Title
55513
    1DOPE     N    1   3.841   4.019  16.705 -0.0379  0.3037  0.1572
    1DOPE   HN1    2   3.778   4.060  16.777 -2.2390 -1.2351 -0.7479
    1DOPE   HN2    3   3.882   3.939  16.757  2.8112  1.3747 -0.2759
    1DOPE   HN3    4   3.917   4.080  16.668 -0.0446  1.0206  1.2975
    1DOPE   C12    5   3.755   3.974  16.592 -0.4195 -0.2673  0.3591
    1DOPE  H12A    6   3.683   3.899  16.632  0.5262 -1.5877 -0.3206
    1DOPE  H12B    7   3.822   3.917  16.523  0.4215  0.4911  0.5356
    1DOPE   C11    8   3.683   4.097  16.537  0.4517  0.5297 -0.2516
    1DOPE  H11A    9   3.631   4.064  16.444 -1.3456  0.9599  0.5596
    1DOPE  H11B   10   3.762   4.169  16.508  1.1215  0.4366  1.2641
    1DOPE     P   11   3.454   4.105  16.686 -0.1853  0.0710  0.4989
    1DOPE   O13   12   3.352   4.201  16.647 -0.1796  0.2853 -0.6201
    1DOPE   O14   13   3.468   4.068  16.831  0.0218  0.7081 -0.1511
    1DOPE   O11   14   3.437   3.975  16.599 -0.3896 -0.1175 -0.4704
    1DOPE   O12   15   3.596   4.161  16.644 -0.5414 -0.4081  0.2427
    1DOPE    C1   16   3.341   3.873  16.634 -0.7230 -0.0952  0.1653
    1DOPE    HA   17   3.240   3.911  16.611 -0.1465  0.6046 -1.3380
    1DOPE    HB   18   3.355   3.848  16.741  0.9243 -0.8479 -0.1920
    1DOPE    C2   19   3.371   3.744  16.562  0.4392 -0.2488 -0.4721
    1DOPE    HS   20   3.471   3.703  16.589  1.2366  1.1437 -1.1935
    1DOPE   O21   21   3.354   3.760  16.423 -0.2946 -0.3768 -0.2438
    1DOPE   C21   22   3.461   3.785  16.354 -0.3694 -0.4012 -0.0517
    1DOPE   O22   23   3.574   3.793  16.403 -0.1009 -0.3078  0.6169
    1DOPE   C22   24   3.427   3.799  16.199 -0.1547  0.0865 -0.0946
    1DOPE   H2R   25   3.402   3.906  16.181 -0.4200  0.2115  0.9878
    1DOPE   H2S   26   3.336   3.738  16.182 -0.4604  0.5209 -0.0376
    1DOPE    C3   27   3.263   3.653  16.617  0.2627 -0.3166  0.8752
    1DOPE    HX   28   3.175   3.717  16.596  2.1481  1.9396 -0.7803
    1DOPE    HY   29   3.283   3.633  16.724 -1.6922 -0.2961  1.2775
    1DOPE   O31   30   3.258   3.527  16.553 -0.2450  0.2724  0.0206
    1DOPE   C31   31   3.366   3.446  16.548  0.0393 -0.6451  0.1661
    1DOPE   O32   32   3.470   3.456  16.611 -0.1126  0.7162 -0.1775
    1DOPE   C32   33   3.354   3.354  16.433  0.1056  0.4726  0.4706
    1DOPE   H2X   34   3.362   3.251  16.473 -1.7253  0.3211  0.5558
    1DOPE   H2Y   35   3.251   3.367  16.393 -0.5452  1.0376  2.2604
    1DOPE   C23   36   3.543   3.756  16.103 -0.1045  0.0429  0.2019
    1DOPE   H3R   37   3.570   3.652  16.132  0.9278  0.6298  1.4557
    1DOPE   H3S   38   3.621   3.835  16.108  1.0784 -1.1074  0.3856
    1DOPE   C24   39   3.503   3.742  15.953 -0.3345  0.4825  0.5035
    1DOPE   H4R   40   3.436   3.829  15.939 -0.1952  0.2682 -1.7131
    1DOPE   H4S   41   3.456   3.642  15.950  0.9954 -0.1848  1.0856
    1DOPE   C25   42   3.625   3.763  15.860 -0.5694  0.0419 -0.6943
    1DOPE   H5R   43   3.699   3.681  15.861 -0.2752  0.2787 -1.8043
    1DOPE   H5S   44   3.683   3.856  15.878  1.4791 -1.2061 -0.5180
    1DOPE   C26   45   3.592   3.773  15.715  0.6889  0.1836 -0.4268
    1DOPE   H6R   46   3.528   3.863  15.702  2.4097  1.2785 -1.9449
    1DOPE   H6S   47   3.547   3.677  15.682 -1.2800  0.5549  1.0353
    1DOPE   C27   48   3.720   3.788  15.623 -0.5935 -0.0922 -0.8013
    1DOPE   H7R   49   3.779   3.700  15.657 -1.4663 -0.3233  0.1319
    1DOPE   H7S   50   3.774   3.880  15.654  1.3821 -1.2770 -0.5024
    1DOPE   C28   51   3.686   3.786  15.477 -0.2027 -0.2147  0.9131
    1DOPE   H8R   52   3.776   3.817  15.419 -0.2462 -1.5218  0.1122
    1DOPE   H8S   53   3.605   3.861  15.467 -0.0588 -0.3607 -3.8249
    1DOPE   C29   54   3.644   3.654  15.408  0.2596  0.3095 -0.2314
    1DOPE   H9R   55   3.569   3.601  15.469 -0.7628  1.7163 -0.2198
    1DOPE  C210   56   3.671   3.595  15.290  0.0905  0.7611 -0.0262
    1DOPE  H10R   57   3.634   3.492  15.279  1.7585 -0.1212  2.0623
    1DOPE  C211   58   3.758   3.645  15.176 -0.0387 -0.3227 -1.0554
    1DOPE  H11R   59   3.857   3.676  15.216  0.6492 -1.7257 -1.5865
    1DOPE  H11S   60   3.713   3.737  15.134 -1.2536 -0.0439  0.7589
    1DOPE  C212   61   3.785   3.557  15.051 -0.6145  0.2879  0.2340
    1DOPE  H12R   62   3.693   3.554  14.988 -0.4623  1.8233 -0.1010
    1DOPE  H12S   63   3.813   3.451  15.068 -0.3815  0.7340  3.1025
    1DOPE  C213   64   3.879   3.618  14.952 -0.3740 -0.0750 -0.7318
    1DOPE  H13R   65   3.973   3.632  15.009 -0.4625  2.1363 -1.0491
    1DOPE  H13S   66   3.840   3.716  14.918  1.0788  1.5863  2.0036
    1DOPE  C214   67   3.901   3.527  14.826  0.4968 -0.0709  0.4298
    1DOPE  H14R   68   3.806   3.521  14.769  0.3602  0.5941  0.5890
    1DOPE  H14S   69   3.925   3.427  14.868 -0.5047 -0.5503 -0.0894
    1DOPE  C215   70   4.010   3.568  14.721 -0.0066  0.5371  0.3597
    1DOPE  H15R   71   4.101   3.589  14.781 -0.3337  1.7212  0.4640
    1DOPE  H15S   72   3.986   3.667  14.677 -0.4043  0.0400 -0.5792
    1DOPE  C216   73   4.025   3.462  14.608 -0.2904 -0.1079  0.0330
    1DOPE  H16R   74   4.037   3.365  14.661  1.1930  0.8415  1.5684
    1DOPE  H16S   75   4.128   3.458  14.566  0.2963  1.8893  1.1314
    1DOPE  C217   76   3.907   3.459  14.506 -0.2007  0.1544 -0.5753
    1DOPE  H17R   77   3.905   3.561  14.462  0.2383 -0.1382 -1.2925
    1DOPE  H17S   78   3.803   3.440  14.539  0.2304  0.3215  0.9595
    1DOPE  C218   79   3.918   3.363  14.391 -0.1869  0.2876  0.5735
    1DOPE  H18R   80   4.019   3.383  14.349 -0.1284  0.9731  1.0155
    1DOPE  H18S   81   3.837   3.362  14.315 -0.7074  0.1190  1.1240
    1DOPE  H18T   82   3.913   3.258  14.427  0.3459  0.0147 -0.1321
    1DOPE   C33   83   3.467   3.387  16.338 -0.3269  0.0506 -0.1877
    1DOPE   H3X   84   3.565   3.359  16.383  0.3520  0.8945 -1.0854
    1DOPE   H3Y   85   3.469   3.495  16.316 -3.1803  0.2501  0.1557
    1DOPE   C34   86   3.453   3.308  16.202 -0.2771 -0.2593 -0.4156
    1DOPE   H4X   87   3.451   3.203  16.239  0.2031 -0.4323 -0.8552
    1DOPE   H4Y   88   3.367   3.328  16.135  0.6578 -0.5393 -1.7614
    1DOPE   C35   89   3.572   3.316  16.105 -0.0196 -0.4459 -0.8122
    1DOPE   H5X   90   3.661   3.351  16.163 -0.3367  1.5698 -1.4676
    1DOPE   H5Y   91   3.556   3.405  16.041 -2.5512  1.3333  2.0291
    1DOPE   C36   92   3.615   3.191  16.023 -0.5688  0.5110  0.4013
    1DOPE   H6X   93   3.625   3.102  16.088 -1.6787  0.1781  0.1316
    1DOPE   H6Y   94   3.719   3.204  15.987 -0.8074  0.3275 -0.3765
    1DOPE   C37   95   3.517   3.166  15.903 -0.2173  0.1363 -0.1640
    1DOPE   H7X   96   3.547   3.070  15.856 -2.1683  0.0523 -1.3678
    1DOPE   H7Y   97   3.419   3.149  15.953 -0.6469  4.8945  1.0944
    1DOPE   C38   98   3.509   3.282  15.801 -0.0340 -0.0810  0.0232
    1DOPE   H8X   99   3.443   3.352  15.857 -0.0564 -0.7619  0.8730
    1DOPE   H8Y  100   3.452   3.232  15.719  0.5590 -0.8666  0.0763
    1DOPE   C39  101   3.647   3.328  15.763  0.0388 -0.5536 -0.5704
    1DOPE   H9X  102   3.688   3.404  15.831  0.1061 -1.8246  0.8487
    1DOPE  C310  103   3.728   3.290  15.661 -0.5751  0.6388 -0.3629
    1DOPE  H10X  104   3.830   3.332  15.652 -0.2406  0.1280  0.8289
    1DOPE  C311  105   3.702   3.177  15.570 -0.1612 -0.2133  0.5153
    1DOPE  H11X  106   3.799   3.131  15.545 -0.5531  0.4117 -2.5495
    1DOPE  H11Y  107   3.635   3.102  15.618  0.6669 -0.7165  0.8890
    1DOPE  C312  108   3.649   3.240  15.437 -0.6551  0.1890 -0.4209
    1DOPE  H12X  109   3.690   3.339  15.405  0.2863 -0.4998 -1.4135
    1DOPE  H12Y  110   3.540   3.251  15.455 -0.6637  0.7206 -0.7656
    1DOPE  C313  111   3.682   3.143  15.320  0.4518 -0.3844 -0.1085
    1DOPE  H13X  112   3.781   3.095  15.334  0.4259 -0.0290  1.4879
    1DOPE  H13Y  113   3.612   3.057  15.318 -0.7596  0.5856 -1.6873
    1DOPE  C314  114   3.690   3.204  15.180  0.7029  0.3215  0.1086
    1DOPE  H14X  115   3.778   3.271  15.172 -1.2020  2.8000 -2.2968
    1DOPE  H14Y  116   3.599   3.267  15.164  1.2614  1.1477  0.1388
    1DOPE  C315  117   3.698   3.107  15.065  0.0330 -0.4678  0.0299
    1DOPE  H15X  118   3.606   3.046  15.051  0.1074 -0.5598 -0.0533
    1DOPE  H15Y  119   3.771   3.026  15.085 -2.0705 -2.5670 -0.3665
    1DOPE  C316  120   3.727   3.163  14.925 -0.6400  0.2839 -0.0286
    1DOPE  H16X  121   3.833   3.151  14.894 -0.6029 -1.8731  0.7947
    1DOPE  H16Y  122   3.715   3.274  14.933 -0.0434  0.2905  0.8375
    1DOPE  C317  123   3.644   3.108  14.810 -0.0375 -0.0824  0.7204
    1DOPE  H17X  124   3.667   3.004  14.779  0.2630  0.9127 -2.8928
    1DOPE  H17Y  125   3.538   3.101  14.844 -1.7577 -1.1281 -3.9857
    1DOPE  C318  126   3.662   3.190  14.687  0.6725  0.2820  0.1240
    1DOPE  H18X  127   3.637   3.137  14.592  3.4882 -0.9895  0.0079
    1DOPE  H18Y  128   3.613   3.289  14.701 -2.3763 -1.4416  3.0489
    1DOPE  H18Z  129   3.772   3.206  14.682  1.1897 -2.1199  2.1832
    2DOPE     N  130   4.330   3.443  16.771 -0.4347  0.0133  0.1789
    2DOPE   HN1  131   4.391   3.376  16.822 -0.4966 -1.2773 -1.3381
    2DOPE   HN2  132   4.273   3.398  16.696  0.7163  0.7777 -1.2065
    2DOPE   HN3  133   4.397   3.512  16.730 -1.2811  0.2071 -0.9384
    2DOPE   C12  134   4.247   3.516  16.872  0.1571 -0.1610 -0.6936
    2DOPE  H12A  135   4.320   3.563  16.942 -0.7340  3.3355 -1.8927
    2DOPE  H12B  136   4.199   3.436  16.932  0.7253  0.3058  0.4148
    2DOPE   C11  137   4.151   3.619  16.821 -0.0204 -0.3474 -0.3049
    2DOPE  H11A  138   4.210   3.712  16.804 -0.5805 -0.0705 -0.7417
    2DOPE  H11B  139   4.087   3.645  16.908  0.6687  1.3823 -0.2844
    2DOPE     P  140   3.976   3.677  16.638  0.0190 -0.3108  0.0174
    2DOPE   O13  141   3.929   3.771  16.743  0.3340 -0.1799 -0.4153
    2DOPE   O14  142   3.874   3.590  16.582  0.4135  0.0073  0.1303
    2DOPE   O11  143   4.063   3.750  16.523  0.0507 -0.1203  0.6139
    2DOPE   O12  144   4.076   3.576  16.707  0.5003 -0.1545  0.4664
    2DOPE    C1  145   4.178   3.689  16.468  0.0583 -0.4571 -0.5044
    2DOPE    HA  146   4.171   3.579  16.455  1.8815 -0.6733  0.0610
    2DOPE    HB  147   4.269   3.704  16.530 -0.4873 -1.1836  0.4972
    2DOPE    C2  148   4.206   3.758  16.326  0.1792  0.4921 -0.5562
    2DOPE    HS  149   4.266   3.849  16.350  2.0470 -0.6419 -0.7641
    2DOPE   O21  150   4.090   3.783  16.249  0.2323  0.0958  0.7869
    2DOPE   C21  151   4.032   3.901  16.272 -0.4729 -0.3239  0.7671
    2DOPE   O22  152   4.081   3.997  16.331  0.1371 -0.1516 -0.0335
    2DOPE   C22  153   3.902   3.901  16.207  0.4292  0.0267  0.5122
    2DOPE   H2R  154   3.821   3.917  16.282 -0.7950 -0.2242 -0.7144
    2DOPE   H2S  155   3.879   3.800  16.169  2.8876 -0.4107  0.0547
    2DOPE    C3  156   4.296   3.667  16.242  0.1032 -0.5019  0.4355
    2DOPE    HX  157   4.237   3.574  16.229  0.9989 -0.9698 -0.4363
    2DOPE    HY  158   4.383   3.629  16.301 -1.1361 -2.0829  1.3153
    2DOPE   O31  159   4.320   3.722  16.113  0.0249  0.0462  0.0025
    2DOPE   C31  160   4.406   3.830  16.110  0.2968  0.0627  0.0150
    2DOPE   O32  161   4.469   3.864  16.208 -0.2720 -0.2632  0.1466
    2DOPE   C32  162   4.413   3.898  15.973  0.3466 -0.5897  0.4281
    2DOPE   H2X  163   4.419   3.811  15.904  0.4163 -0.5324  0.3613
    2DOPE   H2Y  164   4.315   3.945  15.951  1.0877  0.9906  0.3496
    2DOPE   C23  165   3.894   4.007  16.090 -0.1852 -0.3548  0.7567
    2DOPE   H3R  166   3.919   4.109  16.127 -0.8479 -0.0647  0.4074
    2DOPE   H3S  167   3.796   4.027  16.044 -0.6308 -0.5848  1.5842
    2DOPE   C24  168   3.990   3.977  15.974  0.5600 -0.0512  0.1432
    2DOPE   H4R  169   3.959   3.878  15.937 -2.3855  1.2084 -1.0574
    2DOPE   H4S  170   4.100   3.978  15.994  0.5058 -0.6102  0.4805
    2DOPE   C25  171   3.956   4.058  15.853  0.8901 -0.6195 -0.1613
    2DOPE   H5R  172   3.962   4.165  15.880 -2.5301 -0.4227  0.2172
    2DOPE   H5S  173   3.850   4.039  15.829  1.0809  0.8187 -2.4546
    2DOPE   C26  174   4.030   4.029  15.726 -0.2126 -0.0389 -0.5660
    2DOPE   H6R  175   4.031   3.922  15.696  1.3070 -0.1769 -0.0960
    2DOPE   H6S  176   4.134   4.060  15.750 -0.4421 -0.0542  0.4890
    2DOPE   C27  177   3.993   4.114  15.606 -0.3944 -0.1076 -0.2126
    2DOPE   H7R  178   4.005   4.216  15.647  1.4924 -0.0220 -0.8650
    2DOPE   H7S  179   3.887   4.092  15.581  0.3666 -1.4982 -2.6140
    2DOPE   C28  180   4.085   4.105  15.480  0.3572 -0.0294  0.3172
    2DOPE   H8R  181   4.185   4.128  15.521 -0.2332  2.1225  0.6868
    2DOPE   H8S  182   4.067   4.184  15.404  1.7124 -0.3001 -0.3048
    2DOPE   C29  183   4.084   3.968  15.417 -1.0794  0.3836 -0.6399
    2DOPE   H9R  184   4.157   3.900  15.463  1.6065  1.1646 -3.3854
    2DOPE  C210  185   4.005   3.924  15.321 -0.1379 -0.1880 -0.1066
    2DOPE  H10R  186   4.006   3.821  15.283  1.7613 -1.1160  2.1882
    2DOPE  C211  187   3.902   4.009  15.257 -0.0912  0.1341  0.1580
    2DOPE  H11R  188   3.916   4.118  15.271 -1.5118  0.2679  0.6785
    2DOPE  H11S  189   3.797   3.982  15.281 -0.0475  0.7091  1.0035
    2DOPE  C212  190   3.915   3.986  15.104  0.1025  0.8830 -0.2240
    2DOPE  H12R  191   3.832   4.043  15.058  0.0547  1.3566  0.4385
    2DOPE  H12S  192   3.903   3.880  15.073  0.0019  1.6652 -3.1633
    2DOPE  C213  193   4.049   4.035  15.044 -0.7483 -0.1157  0.7350
    2DOPE  H13R  194   4.118   3.951  15.068 -0.0737  0.3630  0.5180
    2DOPE  H13S  195   4.066   4.125  15.106 -1.5114 -0.8552  2.0775
    2DOPE  C214  196   4.060   4.064  14.895 -0.5042 -0.1294 -0.2429
    2DOPE  H14R  197   4.138   4.143  14.885 -2.8837  2.1104 -2.9290
    2DOPE  H14S  198   3.964   4.111  14.865 -0.7600 -0.9971 -0.8040
    2DOPE  C215  199   4.078   3.943  14.807 -0.7212  0.8938 -0.2550
    2DOPE  H15R  200   4.008   3.860  14.829  1.9393 -1.1092  1.3552
    2DOPE  H15S  201   4.176   3.905  14.845 -0.5780  1.3310 -0.1875
    2DOPE  C216  202   4.082   3.973  14.656  0.1574 -0.0642  0.0154
    2DOPE  H16R  203   4.138   4.067  14.638  0.3808 -0.0337  0.8113
    2DOPE  H16S  204   3.974   3.978  14.628  0.4617  0.5935 -1.1120
    2DOPE  C217  205   4.160   3.891  14.554  0.2815  0.2964  0.0419
    2DOPE  H17R  206   4.131   3.784  14.544 -0.1335  0.5145 -1.2648
    2DOPE  H17S  207   4.268   3.888  14.579  0.8042 -2.3895 -2.0988
    2DOPE  C218  208   4.138   3.965  14.421  0.5555  0.2691  0.1696
    2DOPE  H18R  209   4.156   4.074  14.437 -0.6884  0.3346  1.3259
    2DOPE  H18S  210   4.029   3.967  14.400  0.8012  1.0975 -1.1642
    2DOPE  H18T  211   4.174   3.913  14.330 -0.8828  1.5639 -1.1771
    2DOPE   C33  212   4.535   3.988  15.954 -1.1415 -0.8496 -0.0925
    2DOPE   H3X  213   4.616   3.915  15.974  0.4875  0.9143  0.0235
    2DOPE   H3Y  214   4.543   4.059  16.040 -3.6369 -2.0896  1.2624
    2DOPE   C34  215   4.550   4.053  15.816 -0.0672 -1.1046  0.1645
    2DOPE   H4X  216   4.471   4.124  15.785  2.4531  0.5090 -3.0680
    2DOPE   H4Y  217   4.644   4.112  15.820  0.2144 -1.6006  1.4776
    2DOPE   C35  218   4.549   3.952  15.700 -0.7176  0.1436 -0.2347
    2DOPE   H5X  219   4.453   3.897  15.694  0.8575 -2.6621 -2.0756
    2DOPE   H5Y  220   4.633   3.880  15.714 -0.8624 -0.0287 -0.2627
    2DOPE   C36  221   4.566   4.016  15.562  0.9128  0.3079  0.3084
    2DOPE   H6X  222   4.672   4.044  15.541  1.7344 -2.3915  0.5547
    2DOPE   H6Y  223   4.502   4.107  15.561  1.4527  0.6919 -0.1812
    2DOPE   C37  224   4.526   3.924  15.445 -0.1782  0.5643  0.1740
    2DOPE   H7X  225   4.628   3.885  15.423 -0.0355  0.4635  0.9791
    2DOPE   H7Y  226   4.461   3.841  15.483  1.3937 -0.7893  0.0320
    2DOPE   C38  227   4.465   3.987  15.323 -0.0961 -0.8625 -0.0510
    2DOPE   H8X  228   4.534   4.050  15.262  0.1274 -0.3929  0.6788
    2DOPE   H8Y  229   4.385   4.050  15.366  1.1946 -0.2663  1.5845
    2DOPE   C39  230   4.393   3.900  15.219 -0.9367  0.2174 -0.2896
    2DOPE   H9X  231   4.316   3.835  15.265 -1.0650  2.3944  2.8737
    2DOPE  C310  232   4.395   3.901  15.088  0.5996 -0.3889  0.7561
    2DOPE  H10X  233   4.339   3.830  15.026 -2.4456  1.3809  1.2976
    2DOPE  C311  234   4.484   3.985  15.000 -1.0567 -0.3016  1.0911
    2DOPE  H11X  235   4.428   4.063  14.943  1.8013  1.4491  0.4845
    2DOPE  H11Y  236   4.558   4.042  15.060  1.8770 -0.0347 -2.4719
    2DOPE  C312  237   4.576   3.919  14.891 -0.3939  0.5826 -0.4695
    2DOPE  H12X  238   4.628   3.835  14.942  1.7367  2.1342  0.0381
    2DOPE  H12Y  239   4.649   3.999  14.869 -0.6894  0.7387 -0.8893
    2DOPE  C313  240   4.504   3.877  14.769  0.5765  0.4640  0.9881
    2DOPE  H13X  241   4.432   3.798  14.799  0.1659  0.2512 -0.4978
    2DOPE  H13Y  242   4.446   3.967  14.740  0.1128 -0.1500 -0.0635
    2DOPE  C314  243   4.593   3.842  14.651 -0.0758  0.1648 -0.3977
    2DOPE  H14X  244   4.639   3.745  14.681  2.1536  1.2345 -0.1727
    2DOPE  H14Y  245   4.687   3.902  14.650 -0.3268  0.6898  1.8559
    2DOPE  C315  246   4.521   3.842  14.519 -0.0300  0.6380 -0.3208
    2DOPE  H15X  247   4.468   3.939  14.519  1.1215  1.3256  1.3864
    2DOPE  H15Y  248   4.440   3.767  14.535  0.1656  0.0417 -1.9262
    2DOPE  C316  249   4.593   3.806  14.393 -0.4420 -0.4202  0.0658
    2DOPE  H16X  250   4.635   3.704  14.410  1.1167  0.4198  1.4319
    2DOPE  H16Y  251   4.677   3.878  14.397 -2.2167  1.6843  1.7718
    2DOPE  C317  252   4.493   3.801  14.273 -0.2510  0.7051  0.0422
    2DOPE  H17X  253   4.407   3.732  14.288  0.1807 -0.1977 -1.3969
    2DOPE  H17Y  254   4.444   3.900  14.263 -1.5393  0.1461  0.5503
    2DOPE  C318  255   4.564   3.761  14.141 -0.6451  0.0974  0.2250
    2DOPE  H18X  256   4.637   3.834  14.101 -0.6388 -0.2332 -0.3932
    2DOPE  H18Y  257   4.607   3.659  14.153 -2.3142 -0.4638  1.8012
    2DOPE  H18Z  258   4.487   3.751  14.061  0.5005  2.2823 -1.2376
    3DOPE     N  259   2.788   4.529  16.905 -0.3465  1.0196  0.1429
    3DOPE   HN1  260   2.763   4.439  16.859 -3.2443  0.5534  2.3564
    3DOPE   HN2  261   2.872   4.563  16.855 -0.0115  0.3199  0.2179
    3DOPE   HN3  262   2.822   4.496  16.997 -1.3352  1.2191  0.5910
    3DOPE   C12  263   2.682   4.636  16.912 -1.0877 -0.3004  0.2170
    3DOPE  H12A  264   2.725   4.721  16.970  0.3272 -0.9425  0.1444
    3DOPE  H12B  265   2.598   4.599  16.975 -1.3320 -0.1106  0.0079
    3DOPE   C11  266   2.641   4.691  16.772  0.1265 -0.0763  0.7099
    3DOPE  H11A  267   2.609   4.607  16.707 -1.4210 -0.5293  1.9905
    3DOPE  H11B  268   2.740   4.729  16.738  0.2587  0.3486  1.5428
    3DOPE     P  269   2.512   4.888  16.672  0.3030  0.1611  0.0542
    3DOPE   O13  270   2.622   4.983  16.673 -0.6054  0.5003  0.8491
    3DOPE   O14  271   2.374   4.941  16.688 -0.1212 -0.0741 -0.1050
    3DOPE   O11  272   2.515   4.794  16.541 -0.0280 -0.5789  0.3554
    3DOPE   O12  273   2.532   4.780  16.782  0.4864 -0.6528 -0.2545
    3DOPE    C1  274   2.603   4.824  16.433  0.2667 -0.5790  0.1089
    3DOPE    HA  275   2.597   4.741  16.360 -2.8663  0.9687 -1.6127
    3DOPE    HB  276   2.709   4.843  16.460  0.6771 -1.2634 -0.9626
    3DOPE    C2  277   2.553   4.941  16.345  0.1200 -0.9357  0.6135
    3DOPE    HS  278   2.556   5.031  16.411 -0.2360 -1.9808  2.1015
    3DOPE   O21  279   2.414   4.918  16.305 -0.3066  0.1081  0.0665
    3DOPE   C21  280   2.352   5.031  16.262 -0.3035  0.5847  0.3265
    3DOPE   O22  281   2.400   5.142  16.269  0.3686  0.0397  0.7600
    3DOPE   C22  282   2.220   4.994  16.202  0.3073 -0.4860 -0.3291
    3DOPE   H2R  283   2.139   5.002  16.278 -0.2113 -1.2002 -0.7922
    3DOPE   H2S  284   2.216   4.889  16.166 -1.1356 -0.2321 -0.9975
    3DOPE    C3  285   2.655   4.970  16.232  0.4410  0.5610 -0.1086
    3DOPE    HX  286   2.745   5.008  16.286  1.9330 -1.1742 -1.2572
    3DOPE    HY  287   2.612   5.048  16.165 -1.1389 -1.0416 -1.0300
    3DOPE   O31  288   2.680   4.853  16.155 -0.3773 -0.0623 -0.5412
    3DOPE   C31  289   2.622   4.822  16.037  0.9843  1.4598  0.6356
    3DOPE   O32  290   2.533   4.891  15.989 -0.4305 -0.0685  0.1498
    3DOPE   C32  291   2.675   4.680  15.984 -0.6328 -0.1957  0.3807
    3DOPE   H2X  292   2.783   4.685  15.955 -0.5973  1.7485  0.6884
    3DOPE   H2Y  293   2.666   4.604  16.064  0.8743 -1.6664 -0.7717
    3DOPE   C23  294   2.185   5.090  16.082  0.2521 -0.9639 -0.8779
    3DOPE   H3R  295   2.263   5.087  16.004  0.9593  0.3219 -0.2521
    3DOPE   H3S  296   2.178   5.195  16.119  0.2501 -1.1813 -0.2394
    3DOPE   C24  297   2.056   5.066  15.998 -0.8654  0.4580 -0.3254
    3DOPE   H4R  298   1.973   5.071  16.071 -1.1833  1.6102 -0.7506
    3DOPE   H4S  299   2.058   4.961  15.960 -0.5350 -0.2717  1.5798
    3DOPE   C25  300   2.018   5.171  15.889 -0.2658 -1.1890 -0.3468
    3DOPE   H5R  301   2.110   5.214  15.843 -0.8986  0.2883 -0.2932
    3DOPE   H5S  302   1.974   5.256  15.945 -0.0645 -0.4511 -1.2961
    3DOPE   C26  303   1.939   5.119  15.774  0.4227  0.3291  0.0156
    3DOPE   H6R  304   1.846   5.080  15.822  0.8943 -0.0665  0.6155
    3DOPE   H6S  305   1.990   5.046  15.708 -0.1968  0.0831 -0.2053
    3DOPE   C27  306   1.890   5.234  15.672 -0.1154 -0.5687  0.4208
    3DOPE   H7R  307   1.980   5.270  15.618  0.7891 -0.4266  1.9644
    3DOPE   H7S  308   1.857   5.320  15.734 -0.6025 -0.0921 -0.4858
    3DOPE   C28  309   1.787   5.188  15.569 -1.0047  0.8279  0.3087
    3DOPE   H8R  310   1.710   5.138  15.631  0.2650 -0.9322  0.5597
    3DOPE   H8S  311   1.825   5.103  15.508 -0.3048  2.4737 -1.6803
    3DOPE   C29  312   1.726   5.297  15.490  0.3261 -0.0864 -0.3536
    3DOPE   H9R  313   1.661   5.362  15.551 -1.7673 -0.9578 -1.5314
    3DOPE  C210  314   1.747   5.321  15.353 -0.0142 -0.0794 -0.0802
    3DOPE  H10R  315   1.714   5.415  15.307 -2.0315 -0.7293 -0.0660
    3DOPE  C211  316   1.846   5.228  15.276 -0.5400  0.0151 -0.6583
    3DOPE  H11R  317   1.819   5.122  15.291 -0.5724  0.2253  1.0209
    3DOPE  H11S  318   1.952   5.245  15.305 -0.7316 -0.1596  0.1656
    3DOPE  C212  319   1.836   5.252  15.119  0.6923  0.0064  0.4532
    3DOPE  H12R  320   1.727   5.250  15.095  0.4443  0.5429  1.4708
    3DOPE  H12S  321   1.876   5.157  15.077 -0.4019  0.0389 -0.7378
    3DOPE  C213  322   1.910   5.370  15.066 -0.4831  0.4239 -0.0928
    3DOPE  H13R  323   2.006   5.385  15.119 -0.6225  0.4763  0.1474
    3DOPE  H13S  324   1.862   5.467  15.092  1.6323  1.3102  0.6881
    3DOPE  C214  325   1.926   5.351  14.916  0.1926  0.2651 -0.4900
    3DOPE  H14R  326   1.837   5.338  14.851  0.1149 -0.6502 -0.2166
    3DOPE  H14S  327   1.986   5.258  14.905  1.6173  1.2665 -1.5978
    3DOPE  C215  328   2.004   5.464  14.848  0.1929  0.2641 -0.4189
    3DOPE  H15R  329   2.111   5.467  14.874  0.1116 -1.0154  0.1157
    3DOPE  H15S  330   1.956   5.562  14.870 -2.2776 -0.2591 -2.7882
    3DOPE  C216  331   2.007   5.455  14.693 -0.2275  0.3155 -0.9940
    3DOPE  H16R  332   2.066   5.542  14.658  0.0087  0.5289 -0.0952
    3DOPE  H16S  333   1.903   5.473  14.660 -0.1272 -0.2010 -1.6132
    3DOPE  C217  334   2.062   5.324  14.646 -0.8409 -0.0436 -0.7172
    3DOPE  H17R  335   2.063   5.307  14.536 -1.8308 -1.6862 -0.5054
    3DOPE  H17S  336   1.986   5.250  14.678 -0.5751  0.1706  0.4503
    3DOPE  C218  337   2.206   5.295  14.701  0.7628  0.2842  0.9741
    3DOPE  H18R  338   2.211   5.301  14.812  0.9400 -0.1491  0.9942
    3DOPE  H18S  339   2.276   5.377  14.674  1.4767 -0.4568  0.5298
    3DOPE  H18T  340   2.259   5.203  14.668 -0.3086  0.4575 -1.4062
    3DOPE   C33  341   2.600   4.624  15.861  0.4633  0.3890  0.2316
    3DOPE   H3X  342   2.492   4.640  15.878  0.7990  0.9395  1.9710
    3DOPE   H3Y  343   2.612   4.514  15.867 -1.5384  0.2027  2.1009
    3DOPE   C34  344   2.626   4.679  15.715  0.4718 -0.2414 -0.1841
    3DOPE   H4X  345   2.605   4.787  15.700  1.5347 -0.1948 -1.5224
    3DOPE   H4Y  346   2.737   4.675  15.704  0.4502  0.8107 -0.9625
    3DOPE   C35  347   2.547   4.585  15.616 -0.3744  0.3842  0.4416
    3DOPE   H5X  348   2.439   4.606  15.632 -0.9247 -2.0094  0.2550
    3DOPE   H5Y  349   2.557   4.480  15.652 -1.8638  0.3214  0.7067
    3DOPE   C36  350   2.582   4.603  15.470  0.7456  0.0722 -0.7766
    3DOPE   H6X  351   2.687   4.573  15.450  1.3953  1.7432 -0.0889
    3DOPE   H6Y  352   2.563   4.707  15.434 -0.2943 -0.7162 -2.6471
    3DOPE   C37  353   2.486   4.520  15.384 -0.3120  0.1797 -0.6593
    3DOPE   H7X  354   2.513   4.413  15.396  3.4771  1.2256  2.1887
    3DOPE   H7Y  355   2.380   4.538  15.410  0.0634 -0.3007  1.4038
    3DOPE   C38  356   2.498   4.551  15.229 -0.0694 -0.5022 -0.0909
    3DOPE   H8X  357   2.605   4.538  15.204 -0.3135  0.1248 -1.6202
    3DOPE   H8Y  358   2.478   4.660  15.215  0.2383 -0.1550  1.9756
    3DOPE   C39  359   2.411   4.459  15.147  0.2552  0.3505  0.7602
    3DOPE   H9X  360   2.303   4.476  15.152 -0.0318 -0.2764 -1.7266
    3DOPE  C310  361   2.462   4.359  15.072  0.2137 -0.5092  0.0001
    3DOPE  H10X  362   2.394   4.302  15.006  0.1506 -0.4809  0.0412
    3DOPE  C311  363   2.609   4.325  15.047 -0.1503 -0.3232  0.0839
    3DOPE  H11X  364   2.679   4.382  15.113 -0.9778  1.6196 -0.6431
    3DOPE  H11Y  365   2.633   4.218  15.061  1.7490  0.2013  1.3838
    3DOPE  C312  366   2.648   4.362  14.905 -0.5895  0.6724 -0.1080
    3DOPE  H12X  367   2.758   4.354  14.903 -0.6372 -0.6780  1.2279
    3DOPE  H12Y  368   2.635   4.472  14.893 -0.1032  0.9001  1.2783
    3DOPE  C313  369   2.588   4.275  14.794 -0.4242 -0.7048 -0.3471
    3DOPE  H13X  370   2.608   4.169  14.821 -1.1946 -1.3184 -2.0877
    3DOPE  H13Y  371   2.479   4.283  14.778 -0.1963  1.1559 -1.2248
    3DOPE  C314  372   2.653   4.297  14.661  0.0533  0.5644 -0.5417
    3DOPE  H14X  373   2.650   4.208  14.595  1.5255  1.5340 -1.9790
    3DOPE  H14Y  374   2.763   4.301  14.674  0.1079 -1.4801  0.0740
    3DOPE  C315  375   2.591   4.410  14.582  0.1141  0.1251  1.1305
    3DOPE  H15X  376   2.610   4.502  14.642 -1.1223  0.6940  0.6902
    3DOPE  H15Y  377   2.481   4.404  14.573  0.0167  0.5236  1.9594
    3DOPE  C316  378   2.659   4.426  14.445  0.0581 -0.3152 -0.2094
    3DOPE  H16X  379   2.636   4.332  14.390 -3.7463  0.0862  0.4493
    3DOPE  H16Y  380   2.769   4.428  14.462  0.1851  1.1943 -0.9544
    3DOPE  C317  381   2.606   4.540  14.355 -0.4033 -0.3057  0.3874
    3DOPE  H17X  382   2.500   4.510  14.339 -0.0129 -0.9495 -1.2052
    3DOPE  H17Y  383   2.599   4.644  14.394 -2.0686 -0.1361 -0.2530
    3DOPE  C318  384   2.679   4.526  14.215  0.4144 -0.5131  0.0520
    3DOPE  H18X  385   2.628   4.441  14.164 -0.6201 -0.3416  0.7655
    3DOPE  H18Y  386   2.682   4.621  14.158  3.1458  1.2130  2.7610
    3DOPE  H18Z  387   2.788   4.510  14.230  1.1321  2.2457 -1.6027
    4DOPE     N  388   3.731   3.439  16.754 -0.4555  0.2954  0.0198
    4DOPE   HN1  389   3.760   3.462  16.851 -2.3049 -2.9944  1.5362
    4DOPE   HN2  390   3.798   3.480  16.686  0.4312 -1.1965 -0.0391
    4DOPE   HN3  391   3.635   3.474  16.732 -1.3872 -1.0481  1.7343
    4DOPE   C12  392   3.740   3.287  16.754 -0.2709 -0.3521  0.0920
    4DOPE  H12A  393   3.742   3.252  16.649 -0.2126 -1.1404  0.3473
    4DOPE  H12B  394   3.654   3.245  16.811  1.0508 -1.2379  1.5151
    4DOPE   C11  395   3.860   3.244  16.827  0.3553  0.6800  0.2051
    4DOPE  H11A  396   3.859   3.133  16.832  2.7483  0.6477  2.1789
    4DOPE  H11B  397   3.848   3.269  16.934 -1.6977  2.3425 -0.3550
    4DOPE     P  398   4.058   3.236  16.659  0.2300  0.0093 -0.4196
    4DOPE   O13  399   4.086   3.099  16.697 -0.0260  0.0909 -0.4964
    4DOPE   O14  400   4.169   3.314  16.601  0.3491  0.8363 -0.0856
    4DOPE   O11  401   3.945   3.232  16.548 -0.2932  0.3020 -0.6768
    4DOPE   O12  402   3.986   3.302  16.786 -0.0290 -0.0020  0.1011
    4DOPE    C1  403   3.958   3.323  16.436  0.2585  0.1252 -0.5691
    4DOPE    HA  404   4.052   3.382  16.429 -0.2868  0.9965 -0.6064
    4DOPE    HB  405   3.871   3.392  16.434  1.0867  1.3592  1.7630
    4DOPE    C2  406   3.961   3.231  16.306  0.4609  0.2467  0.6982
    4DOPE    HS  407   4.065   3.193  16.297  0.1517 -0.9934  1.9614
    4DOPE   O21  408   3.913   3.319  16.200 -0.0867 -0.0001  0.2064
    4DOPE   C21  409   4.015   3.378  16.140  0.4836 -0.6129  0.2933
    4DOPE   O22  410   4.129   3.369  16.179  0.2649  0.2189 -0.2360
    4DOPE   C22  411   3.966   3.481  16.033 -0.1008  0.6594 -0.1192
    4DOPE   H2R  412   3.925   3.563  16.096 -1.6262 -0.3360  0.2307
    4DOPE   H2S  413   3.885   3.434  15.974 -0.0510 -0.9434  1.0308
    4DOPE    C3  414   3.860   3.111  16.306  0.3387  0.0697  0.5419
    4DOPE    HX  415   3.763   3.155  16.337  0.2274 -0.0817  0.4074
    4DOPE    HY  416   3.889   3.050  16.394  0.1785 -0.2182  0.3943
    4DOPE   O31  417   3.859   3.029  16.184 -0.0628  0.7260 -0.1883
    4DOPE   C31  418   3.967   2.952  16.153  0.3803 -0.2680  0.5064
    4DOPE   O32  419   4.057   2.926  16.227 -0.7336 -0.7089  0.7575
    4DOPE   C32  420   3.945   2.883  16.014  0.0370  0.5516 -0.3598
    4DOPE   H2X  421   3.863   2.810  16.032  1.6827 -1.4041 -0.4528
    4DOPE   H2Y  422   3.921   2.965  15.943  1.2620  1.9140  0.7313
    4DOPE   C23  423   4.082   3.534  15.944  0.1906 -0.1347  0.1549
    4DOPE   H3R  424   4.163   3.463  15.918  1.4208  0.3750  2.3199
    4DOPE   H3S  425   4.139   3.600  16.013 -2.2395 -2.2728  4.6027
    4DOPE   C24  426   4.038   3.605  15.815  0.3573  0.3281 -0.2278
    4DOPE   H4R  427   3.990   3.700  15.845  0.0836  0.8199 -2.1080
    4DOPE   H4S  428   3.959   3.551  15.759  0.9268 -1.1928  0.3658
    4DOPE   C25  429   4.155   3.634  15.723  0.8948 -0.2468 -0.9297
    4DOPE   H5R  430   4.248   3.607  15.777  0.4294 -1.4246 -0.6868
    4DOPE   H5S  431   4.158   3.744  15.706 -0.4425 -0.2077 -1.0837
    4DOPE   C26  432   4.151   3.561  15.588  0.5580 -0.3057 -0.3264
    4DOPE   H6R  433   4.066   3.600  15.528  0.5863  1.2965  0.6013
    4DOPE   H6S  434   4.133   3.452  15.594  0.0916 -0.2018  0.3288
    4DOPE   C27  435   4.276   3.582  15.513 -0.4846 -0.1672  0.0509
    4DOPE   H7R  436   4.373   3.587  15.567 -0.6274 -0.5150  0.3468
    4DOPE   H7S  437   4.267   3.686  15.476  1.5716  0.0467  0.0053
    4DOPE   C28  438   4.314   3.482  15.391 -0.3917  0.3831 -0.3932
    4DOPE   H8R  439   4.349   3.391  15.445  1.4879  1.0822 -0.3753
    4DOPE   H8S  440   4.397   3.528  15.334 -0.2067 -1.7971 -2.0201
    4DOPE   C29  441   4.197   3.452  15.303 -0.0760 -0.3593  0.8588
    4DOPE   H9R  442   4.104   3.441  15.361 -0.5960  2.2714  0.6678
    4DOPE  C210  443   4.204   3.446  15.172  0.0788 -0.1854  0.6610
    4DOPE  H10R  444   4.114   3.449  15.108 -0.3602 -0.6610  1.2448
    4DOPE  C211  445   4.332   3.471  15.095 -0.1222  0.3588 -0.4808
    4DOPE  H11R  446   4.402   3.389  15.120  0.5145  0.4933 -1.7499
    4DOPE  H11S  447   4.374   3.570  15.124 -0.6709  0.1263  1.2122
    4DOPE  C212  448   4.300   3.468  14.947 -0.1459  0.1173  0.4920
    4DOPE  H12R  449   4.225   3.549  14.931 -1.6890 -1.3773 -0.1859
    4DOPE  H12S  450   4.249   3.376  14.913 -0.7318  0.9781 -1.0978
    4DOPE  C213  451   4.430   3.496  14.866 -0.6278 -0.0757 -0.1010
    4DOPE  H13R  452   4.498   3.413  14.894 -0.0574  0.8159  1.2879
    4DOPE  H13S  453   4.473   3.596  14.889 -0.0800  0.1095 -1.8381
    4DOPE  C214  454   4.415   3.486  14.715 -1.2866  1.0761  0.1892
    4DOPE  H14R  455   4.508   3.532  14.678 -0.3555 -1.2241 -0.4797
    4DOPE  H14S  456   4.332   3.553  14.685 -2.6531  0.4518  2.3332
    4DOPE  C215  457   4.411   3.343  14.651  0.1089 -0.2191 -0.1631
    4DOPE  H15R  458   4.310   3.298  14.659  0.7983 -1.7651  0.2202
    4DOPE  H15S  459   4.473   3.281  14.720  0.5274  0.8316  0.4381
    4DOPE  C216  460   4.454   3.332  14.501 -0.1520 -0.3736 -0.0726
    4DOPE  H16R  461   4.475   3.229  14.464  0.5558 -0.4844  0.5954
    4DOPE  H16S  462   4.553   3.381  14.492 -0.1735 -0.3042  0.0700
    4DOPE  C217  463   4.363   3.403  14.407  0.5252  0.4573  1.2624
    4DOPE  H17R  464   4.358   3.507  14.445 -1.2263  0.2674  1.6314
    4DOPE  H17S  465   4.262   3.358  14.402 -0.1147  1.9846 -2.1514
    4DOPE  C218  466   4.406   3.392  14.257  0.2961 -0.2183  0.0391
    4DOPE  H18R  467   4.500   3.444  14.230  0.8493 -1.0150  0.3900
    4DOPE  H18S  468   4.321   3.429  14.196  0.1976 -1.7736 -0.8174
    4DOPE  H18T  469   4.407   3.284  14.230 -2.8995 -0.4996  0.6236
    4DOPE   C33  470   4.063   2.785  15.967  0.6990 -0.4088  0.2643
    4DOPE   H3X  471   4.129   2.754  16.050  1.0964  0.1149  0.1465
    4DOPE   H3Y  472   4.119   2.849  15.896 -0.6150 -0.4308 -0.8581
    4DOPE   C34  473   4.022   2.654  15.889  0.5247 -0.0979  0.0369
    4DOPE   H4X  474   3.967   2.591  15.961 -1.6124  0.5266 -0.9500
    4DOPE   H4Y  475   3.961   2.676  15.799 -0.4898 -0.9455  0.5048
    4DOPE   C35  476   4.144   2.589  15.827  0.0791 -0.0565 -0.5219
    4DOPE   H5X  477   4.182   2.522  15.908 -1.1673  1.6430  1.5479
    4DOPE   H5Y  478   4.216   2.669  15.801 -0.0139 -0.2644 -1.4942
    4DOPE   C36  479   4.113   2.505  15.708  0.4229 -0.0434 -0.0772
    4DOPE   H6X  480   4.013   2.461  15.689  1.2049 -1.8795 -0.1183
    4DOPE   H6Y  481   4.176   2.414  15.705 -0.4849 -0.6775 -0.2442
    4DOPE   C37  482   4.144   2.588  15.581 -0.3657 -0.5042  0.6705
    4DOPE   H7X  483   4.075   2.674  15.594 -1.9591 -1.3140 -1.6791
    4DOPE   H7Y  484   4.250   2.618  15.569  0.3422 -3.5665 -2.6808
    4DOPE   C38  485   4.112   2.514  15.446 -0.4112 -0.7651 -0.0352
    4DOPE   H8X  486   4.006   2.479  15.445 -0.9669  0.8288 -1.2276
    4DOPE   H8Y  487   4.172   2.421  15.450  0.8945  0.0441 -0.1954
    4DOPE   C39  488   4.122   2.585  15.316 -0.9453  0.0501 -0.4557
    4DOPE   H9X  489   4.033   2.585  15.252 -0.6865  0.5437 -0.8276
    4DOPE  C310  490   4.229   2.642  15.263 -0.5176  0.3837 -0.4366
    4DOPE  H10X  491   4.219   2.678  15.160  0.4582 -1.0356 -1.0589
    4DOPE  C311  492   4.363   2.650  15.318  0.0730  0.0812 -0.5417
    4DOPE  H11X  493   4.363   2.727  15.399 -2.2653  0.8501 -1.1815
    4DOPE  H11Y  494   4.393   2.552  15.361  1.6873  0.1876 -1.3655
    4DOPE  C312  495   4.478   2.681  15.219 -0.2050 -0.3539 -0.3250
    4DOPE  H12X  496   4.573   2.689  15.276  0.5765 -3.2651 -1.0598
    4DOPE  H12Y  497   4.448   2.772  15.162  1.1243  0.2261 -0.1507
    4DOPE  C313  498   4.500   2.565  15.122 -0.0976 -0.4365  0.4502
    4DOPE  H13X  499   4.610   2.557  15.119 -0.0444  0.3596  0.0263
    4DOPE  H13Y  500   4.458   2.476  15.173 -1.9401  0.7723  1.1632
    4DOPE  C314  501   4.455   2.592  14.976  0.1631 -0.8231  0.4828
    4DOPE  H14X  502   4.534   2.644  14.919 -3.5845  4.2346 -0.8647
    4DOPE  H14Y  503   4.373   2.666  14.986  0.9110  0.0270  0.3909
    4DOPE  C315  504   4.394   2.461  14.919 -0.1596  0.0198  0.1313
    4DOPE  H15X  505   4.364   2.473  14.813  0.1661 -1.4316 -0.1551
    4DOPE  H15Y  506   4.310   2.428  14.985 -0.2733 -2.2764 -1.0705
    4DOPE  C316  507   4.491   2.346  14.921  0.5505 -0.8535  0.0932
    4DOPE  H16X  508   4.537   2.333  15.022 -0.4912  0.5869  0.7898
    4DOPE  H16Y  509   4.569   2.379  14.849  0.3600  1.3769  0.8162
    4DOPE  C317  510   4.439   2.205  14.893 -0.3422 -0.1043  0.2709
    4DOPE  H17X  511   4.514   2.125  14.913  0.6306 -0.0556 -2.6848
    4DOPE  H17Y  512   4.353   2.192  14.963 -0.7483 -3.0218 -0.6010
    4DOPE  C318  513   4.377   2.181  14.756  0.7546 -0.0419  0.2710
    4DOPE  H18X  514   4.285   2.243  14.744  0.1076 -1.0982 -0.3496
    4DOPE  H18Y  515   4.444   2.209  14.673 -1.7986  1.1461 -1.5182
    4DOPE  H18Z  516   4.358   2.072  14.747 -0.4982  0.0168  1.6157
    5DOPE     N  517   0.936   4.842  16.873 -0.8025 -0.2593  0.0145
    5DOPE   HN1  518   0.860   4.803  16.932 -0.5343 -0.6834  0.0766
    5DOPE   HN2  519   0.989   4.902  16.939 -0.9133  0.6182 -0.6652
    5DOPE   HN3  520   0.894   4.886  16.788  0.3465 -0.6301 -0.7668
    5DOPE   C12  521   1.025   4.726  16.831 -0.7589  0.0957 -0.0240
    5DOPE  H12A  522   0.953   4.644  16.811 -1.4576  0.8421 -0.6321
    5DOPE  H12B  523   1.091   4.707  16.918  0.4213 -1.5435 -1.1994
    5DOPE   C11  524   1.111   4.749  16.698  0.5008  0.5321 -0.2271
    5DOPE  H11A  525   1.045   4.754  16.609  0.4812 -1.3863 -0.3611
    5DOPE  H11B  526   1.171   4.656  16.689  0.8511  0.8658 -1.4195
    5DOPE     P  527   1.357   4.865  16.658  0.0493 -0.6433  0.3309
    5DOPE   O13  528   1.419   4.732  16.676 -0.3934 -0.2856  0.2595
    5DOPE   O14  529   1.425   4.976  16.723 -0.3030  0.1719 -0.7416
    5DOPE   O11  530   1.344   4.895  16.510  0.4322 -0.1981  0.5422
    5DOPE   O12  531   1.205   4.857  16.704 -0.1100 -0.2453 -0.7192
    5DOPE    C1  532   1.273   5.001  16.451  0.0209 -1.3163 -0.2229
    5DOPE    HA  533   1.276   5.087  16.521 -1.0210 -1.7066  0.3262
    5DOPE    HB  534   1.166   4.982  16.429 -0.1597  0.6431 -1.2697
    5DOPE    C2  535   1.339   5.054  16.315  0.2997 -0.2277 -0.5204
    5DOPE    HS  536   1.318   5.162  16.302  2.0228  0.1843 -0.1871
    5DOPE   O21  537   1.280   4.974  16.204  0.0355 -0.4233  0.4748
    5DOPE   C21  538   1.198   5.041  16.125 -0.0150  1.0419 -0.9018
    5DOPE   O22  539   1.155   5.150  16.141  0.1955  0.6155 -0.1821
    5DOPE   C22  540   1.165   4.940  16.013  0.1931 -0.8771  0.7868
    5DOPE   H2R  541   1.062   4.901  16.027 -0.0686 -0.1356  0.9671
    5DOPE   H2S  542   1.239   4.859  16.029  2.6826  0.9928 -0.4182
    5DOPE    C3  543   1.492   5.038  16.324 -0.1518 -0.1193 -0.1797
    5DOPE    HX  544   1.535   4.936  16.335 -0.8248 -0.3806  0.0155
    5DOPE    HY  545   1.516   5.086  16.421  0.4369  0.7573 -0.7374
    5DOPE   O31  546   1.547   5.109  16.212 -0.1971  0.0996  0.1456
    5DOPE   C31  547   1.585   5.231  16.230  0.4378 -0.8263 -0.5406
    5DOPE   O32  548   1.567   5.298  16.334  0.0234 -0.4439  0.2042
    5DOPE   C32  549   1.647   5.293  16.098 -0.2440  0.0623  0.0730
    5DOPE   H2X  550   1.721   5.371  16.126 -0.1208 -0.1275  0.2775
    5DOPE   H2Y  551   1.699   5.218  16.035  0.6661  1.0859 -0.4275
    5DOPE   C23  552   1.176   5.007  15.876  0.4058  0.0137 -0.3908
    5DOPE   H3R  553   1.281   5.030  15.848  0.4621  1.9376  1.1673
    5DOPE   H3S  554   1.126   5.106  15.889  0.7153  0.0245  0.8602
    5DOPE   C24  555   1.114   4.920  15.776 -0.0451 -0.6461  0.4323
    5DOPE   H4R  556   1.003   4.931  15.781  0.1889  2.7953  0.7286
    5DOPE   H4S  557   1.158   4.819  15.778  0.2056 -0.5383  0.3443
    5DOPE   C25  558   1.158   4.970  15.633 -0.8022  0.1699 -0.9943
    5DOPE   H5R  559   1.266   4.956  15.614 -0.5682 -0.6714  0.7995
    5DOPE   H5S  560   1.134   5.078  15.619  0.0721  0.3707 -0.9705
    5DOPE   C26  561   1.075   4.902  15.521  0.4048 -0.0790  0.9183
    5DOPE   H6R  562   0.977   4.952  15.533  0.6551  0.1083  2.3703
    5DOPE   H6S  563   1.068   4.791  15.529  1.2628 -0.3427 -1.1464
    5DOPE   C27  564   1.129   4.941  15.385 -0.6530 -0.5847 -0.1113
    5DOPE   H7R  565   1.230   4.896  15.396 -1.1017 -1.3812  1.0068
    5DOPE   H7S  566   1.145   5.048  15.362  1.2397 -0.7856  0.0993
    5DOPE   C28  567   1.050   4.877  15.266  0.5181 -0.7676 -0.8733
    5DOPE   H8R  568   1.014   4.779  15.303 -0.5560 -0.0010  0.2257
    5DOPE   H8S  569   1.127   4.857  15.189  0.8861 -1.8806 -0.2317
    5DOPE   C29  570   0.930   4.956  15.222 -0.0776  0.0304  0.0576
    5DOPE   H9R  571   0.860   4.981  15.303  0.1246  0.3957  0.1229
    5DOPE  C210  572   0.885   4.969  15.091  0.0322  0.1326  0.6314
    5DOPE  H10R  573   0.803   5.038  15.070  1.6696  2.4203  1.2962
    5DOPE  C211  574   0.963   4.918  14.966  0.7970 -0.8914  0.3091
    5DOPE  H11R  575   0.884   4.907  14.888  0.0060 -1.1078  1.1249
    5DOPE  H11S  576   1.014   4.821  14.980  1.5880 -0.0920  3.7829
    5DOPE  C212  577   1.068   5.011  14.900  0.1833  0.2237  0.7321
    5DOPE  H12R  578   1.163   5.030  14.954  2.0281  0.4147 -2.3539
    5DOPE  H12S  579   1.021   5.110  14.883  1.1464  0.5291 -0.2596
    5DOPE  C213  580   1.118   4.951  14.764 -0.1654 -0.3042 -0.2192
    5DOPE  H13R  581   1.055   4.981  14.678  1.4909  0.6351 -1.1572
    5DOPE  H13S  582   1.114   4.840  14.763 -0.4639 -0.3046  0.4901
    5DOPE  C214  583   1.266   4.988  14.739  0.9194 -0.4320 -0.6814
    5DOPE  H14R  584   1.330   4.922  14.801 -0.8763 -1.8471 -0.2599
    5DOPE  H14S  585   1.278   5.096  14.759 -0.0168 -0.5879  0.8277
    5DOPE  C215  586   1.292   4.971  14.584  0.2804 -0.3709  0.7130
    5DOPE  H15R  587   1.255   4.870  14.559 -0.5750  0.0902  0.0595
    5DOPE  H15S  588   1.400   4.955  14.564  0.5143  0.9883  0.7543
    5DOPE  C216  589   1.243   5.084  14.491 -0.7016  0.2370  0.0040
    5DOPE  H16R  590   1.132   5.085  14.484 -0.5995  0.8342 -2.9955
    5DOPE  H16S  591   1.278   5.051  14.391 -1.1990  0.5477 -0.2815
    5DOPE  C217  592   1.312   5.222  14.517  0.9695  0.9270 -0.0092
    5DOPE  H17R  593   1.314   5.254  14.623 -0.3516 -0.1572  0.3661
    5DOPE  H17S  594   1.247   5.291  14.459 -0.8762 -0.2554  0.5704
    5DOPE  C218  595   1.457   5.233  14.464  0.2177 -0.3630 -0.3515
    5DOPE  H18R  596   1.482   5.335  14.427 -0.5400  0.6706  1.7864
    5DOPE  H18S  597   1.459   5.167  14.375 -0.8344 -1.5176  0.4513
    5DOPE  H18T  598   1.529   5.209  14.545 -1.6584 -0.5977  1.3213
    5DOPE   C33  599   1.546   5.378  16.019 -0.6473 -0.2786 -0.4837
    5DOPE   H3X  600   1.603   5.436  15.943 -1.1267 -0.2018 -0.7845
    5DOPE   H3Y  601   1.512   5.462  16.084  2.4023 -0.6329  1.8487
    5DOPE   C34  602   1.442   5.289  15.957 -0.5696  0.2518 -0.0917
    5DOPE   H4X  603   1.494   5.209  15.901 -1.4082 -0.2770 -0.1357
    5DOPE   H4Y  604   1.377   5.249  16.037 -0.3654  0.9169  0.4203
    5DOPE   C35  605   1.348   5.366  15.865  0.2118 -0.1032  0.3144
    5DOPE   H5X  606   1.316   5.464  15.907  1.4611  0.6098 -0.3577
    5DOPE   H5Y  607   1.250   5.316  15.881 -0.0112 -0.0163 -0.6904
    5DOPE   C36  608   1.391   5.360  15.719 -0.4331  0.1377 -0.2079
    5DOPE   H6X  609   1.405   5.251  15.706  3.7357  0.7436 -2.1668
    5DOPE   H6Y  610   1.491   5.406  15.703 -0.9066  0.8861 -1.1155
    5DOPE   C37  611   1.286   5.401  15.614 -0.4183 -0.0298 -0.1501
    5DOPE   H7X  612   1.192   5.344  15.624 -0.4967  0.2104  0.4770
    5DOPE   H7Y  613   1.259   5.509  15.618  0.9372  0.2871  2.5706
    5DOPE   C38  614   1.340   5.382  15.467  0.2115  0.5473 -0.3438
    5DOPE   H8X  615   1.396   5.286  15.466 -0.1634  0.3242 -0.4965
    5DOPE   H8Y  616   1.413   5.464  15.455  0.8892  0.5811  3.1741
    5DOPE   C39  617   1.227   5.357  15.372 -0.0773  0.1669 -0.2108
    5DOPE   H9X  618   1.123   5.355  15.408 -0.1974 -0.1126 -0.5576
    5DOPE  C310  619   1.248   5.334  15.241  0.7066  0.7269 -0.2616
    5DOPE  H10X  620   1.162   5.311  15.177  0.3788 -3.1109  1.2380
    5DOPE  C311  621   1.378   5.339  15.164 -0.8829  0.4815  0.1981
    5DOPE  H11X  622   1.467   5.376  15.219 -0.1928 -1.0210  0.1494
    5DOPE  H11Y  623   1.403   5.235  15.134 -0.5920  0.3157  1.0044
    5DOPE  C312  624   1.365   5.408  15.025 -0.4198  0.1787 -0.1239
    5DOPE  H12X  625   1.331   5.513  15.039 -1.0892 -0.1468  0.7234
    5DOPE  H12Y  626   1.290   5.350  14.968 -0.0713  0.3969 -0.8257
    5DOPE  C313  627   1.494   5.396  14.940 -0.5819 -0.8258 -0.4805
    5DOPE  H13X  628   1.583   5.414  15.004  1.0196 -3.6515 -1.7389
    5DOPE  H13Y  629   1.507   5.292  14.903 -1.4931 -1.1242 -0.0069
    5DOPE  C314  630   1.503   5.469  14.805 -0.4494 -0.0551  0.0093
    5DOPE  H14X  631   1.430   5.431  14.729  0.5846 -1.0063 -0.5384
    5DOPE  H14Y  632   1.601   5.449  14.757 -0.6073  0.8340 -0.7157
    5DOPE  C315  633   1.490   5.618  14.828  0.2913  0.2159  0.2412
    5DOPE  H15X  634   1.567   5.651  14.901  1.1698 -1.0246 -0.0906
    5DOPE  H15Y  635   1.394   5.631  14.882 -0.1245 -1.2427 -0.1201
    5DOPE  C316  636   1.487   5.697  14.697 -0.3632 -0.3445  0.6863
    5DOPE  H16X  637   1.463   5.802  14.724  1.1429  0.4456 -0.9015
    5DOPE  H16Y  638   1.401   5.658  14.638 -1.3928  0.0302  1.8944
    5DOPE  C317  639   1.623   5.683  14.623  0.4373 -0.0392 -0.1498
    5DOPE  H17X  640   1.703   5.665  14.698  0.0855 -2.3539 -0.2378
    5DOPE  H17Y  641   1.625   5.591  14.561 -0.2265 -0.0466 -0.1656
    5DOPE  C318  642   1.661   5.803  14.536  0.3201  0.9791  0.1359
    5DOPE  H18X  643   1.580   5.823  14.462 -0.1685 -0.1565  0.3511
    5DOPE  H18Y  644   1.686   5.899  14.587  1.0145 -0.6011  2.9324
    5DOPE  H18Z  645   1.748   5.768  14.477  0.5049  0.2511  0.8296
    6DOPE     N  646   1.273   5.356  16.733 -0.2695  0.5271  0.0644
    6DOPE   HN1  647   1.359   5.327  16.682 -0.4642  1.8802 -1.0894
    6DOPE   HN2  648   1.217   5.269  16.745  3.0432 -1.7077  0.6826
    6DOPE   HN3  649   1.230   5.427  16.670  1.3690 -0.7127 -2.6392
    6DOPE   C12  650   1.288   5.427  16.865  0.4093 -0.7756  0.1827
    6DOPE  H12A  651   1.390   5.408  16.902 -0.3353 -2.0429  1.6796
    6DOPE  H12B  652   1.226   5.372  16.940 -0.2735 -0.2914 -0.0087
    6DOPE   C11  653   1.282   5.586  16.862 -0.0361  0.7619 -0.4071
    6DOPE  H11A  654   1.260   5.631  16.961 -1.8487  0.4377 -0.6222
    6DOPE  H11B  655   1.188   5.618  16.811  0.3427  1.6052 -0.5878
    6DOPE     P  656   1.381   5.688  16.634  0.4480 -0.3946 -0.3603
    6DOPE   O13  657   1.302   5.588  16.556  0.0079  0.2594 -0.4626
    6DOPE   O14  658   1.518   5.719  16.591 -0.1573  0.7442 -0.0077
    6DOPE   O11  659   1.299   5.828  16.652 -0.4227 -0.4148  0.3123
    6DOPE   O12  660   1.390   5.638  16.786  0.1700  0.0480 -0.5330
    6DOPE    C1  661   1.332   5.937  16.568  0.3838 -0.0902  0.0334
    6DOPE    HA  662   1.437   5.940  16.532  0.7451  1.1433  1.1081
    6DOPE    HB  663   1.326   6.035  16.620 -0.0032 -1.2004  2.1992
    6DOPE    C2  664   1.243   5.950  16.444  0.4349  0.2574 -0.1384
    6DOPE    HS  665   1.139   5.951  16.482  1.2003  1.6519  2.1270
    6DOPE   O21  666   1.269   5.833  16.354  0.7632 -0.2738 -0.1394
    6DOPE   C21  667   1.173   5.818  16.269 -0.7103 -0.7775 -0.2616
    6DOPE   O22  668   1.067   5.878  16.260  0.0584  0.2581 -0.4360
    6DOPE   C22  669   1.214   5.697  16.180  0.1782 -0.1549  0.1316
    6DOPE   H2R  670   1.120   5.639  16.196 -0.5077  0.8303 -0.2123
    6DOPE   H2S  671   1.298   5.644  16.230 -0.2542 -2.6274 -1.5928
    6DOPE    C3  672   1.260   6.096  16.370  0.1061  0.5290 -0.3422
    6DOPE    HX  673   1.370   6.115  16.371  0.2673 -0.3126 -1.1051
    6DOPE    HY  674   1.212   6.171  16.437 -0.4480 -0.4981  0.4435
    6DOPE   O31  675   1.217   6.096  16.231 -0.7200 -0.0626  0.2591
    6DOPE   C31  676   1.107   6.165  16.201  0.0676  0.1214 -0.3483
    6DOPE   O32  677   1.043   6.237  16.275  0.1320 -0.5078 -0.4698
    6DOPE   C32  678   1.078   6.144  16.051 -0.4263 -0.5874 -0.1076
    6DOPE   H2X  679   1.121   6.228  15.991  0.1233 -0.4321  0.4839
    6DOPE   H2Y  680   1.123   6.049  16.015 -0.5764 -0.3040 -1.0639
    6DOPE   C23  681   1.227   5.744  16.032  0.0643  0.2738  0.4644
    6DOPE   H3R  682   1.141   5.808  16.004  0.6229  0.0898 -1.8755
    6DOPE   H3S  683   1.216   5.658  15.964 -0.9910  1.8820 -1.4890
    6DOPE   C24  684   1.362   5.813  16.018  0.1804  0.2544  0.1936
    6DOPE   H4R  685   1.439   5.733  16.011  0.1252  0.2652 -0.6312
    6DOPE   H4S  686   1.377   5.876  16.109 -0.7180  1.2363 -0.3165
    6DOPE   C25  687   1.376   5.904  15.893  0.0733 -0.1859 -0.2165
    6DOPE   H5R  688   1.471   5.962  15.887 -0.3063  0.3319 -1.4889
    6DOPE   H5S  689   1.291   5.976  15.891  0.5027  0.3155 -0.6952
    6DOPE   C26  690   1.371   5.820  15.766 -0.2474 -0.0070  0.0714
    6DOPE   H6R  691   1.277   5.762  15.760 -0.7328  0.8013 -0.4011
    6DOPE   H6S  692   1.457   5.750  15.770 -1.2873 -1.2678  1.4668
    6DOPE   C27  693   1.395   5.908  15.641  0.1254 -0.4054  0.4453
    6DOPE   H7R  694   1.467   5.990  15.666  0.3914  0.1564 -1.9739
    6DOPE   H7S  695   1.295   5.950  15.618  0.7116  2.2063  2.0967
    6DOPE   C28  696   1.476   5.825  15.531 -0.1108  0.3071  0.1078
    6DOPE   H8R  697   1.551   5.768  15.590  0.5619 -0.5156 -1.4785
    6DOPE   H8S  698   1.540   5.895  15.472  0.2646  0.3683  0.5787
    6DOPE   C29  699   1.406   5.739  15.429 -0.0290 -0.1413  0.2256
    6DOPE   H9R  700   1.331   5.667  15.464 -0.1929 -0.5880 -0.9909
    6DOPE  C210  701   1.447   5.710  15.302  0.4182 -0.2863 -0.3213
    6DOPE  H10R  702   1.387   5.635  15.248 -0.4485 -0.0789  0.3263
    6DOPE  C211  703   1.555   5.778  15.231 -1.0047 -0.0989  0.2790
    6DOPE  H11R  704   1.577   5.734  15.131 -1.2209 -1.6946  0.9110
    6DOPE  H11S  705   1.651   5.766  15.286 -0.8072 -0.4231 -0.1304
    6DOPE  C212  706   1.525   5.925  15.216  0.8681 -0.3740  0.4693
    6DOPE  H12R  707   1.625   5.961  15.183 -0.5869  1.9638 -1.7412
    6DOPE  H12S  708   1.495   5.983  15.306 -0.6749 -0.5593  0.0927
    6DOPE  C213  709   1.421   5.949  15.100  0.1385 -0.6908  0.4941
    6DOPE  H13R  710   1.316   5.923  15.126 -0.1999  0.4109  0.3061
    6DOPE  H13S  711   1.464   5.885  15.020 -0.3649  0.0319 -0.3739
    6DOPE  C214  712   1.426   6.091  15.040 -0.4945 -0.0589 -0.0659
    6DOPE  H14R  713   1.532   6.120  15.026 -0.7474  1.7361  1.3731
    6DOPE  H14S  714   1.380   6.163  15.111 -1.3325 -0.9442  0.3121
    6DOPE  C215  715   1.353   6.096  14.905 -0.5632  0.5565 -0.2282
    6DOPE  H15R  716   1.305   6.193  14.881 -0.5978  0.4997 -0.3919
    6DOPE  H15S  717   1.283   6.010  14.903  0.1171 -0.0076 -0.8128
    6DOPE  C216  718   1.451   6.082  14.790 -0.0845 -0.2830 -0.0079
    6DOPE  H16R  719   1.504   5.985  14.800  0.7800  0.2258  0.3604
    6DOPE  H16S  720   1.524   6.165  14.795 -2.1853  1.6825 -0.4338
    6DOPE  C217  721   1.390   6.074  14.649  0.2700 -0.1637  0.6498
    6DOPE  H17R  722   1.302   6.007  14.640  0.2612  0.0002 -0.7822
    6DOPE  H17S  723   1.470   6.038  14.580  1.9885  1.3449  1.7289
    6DOPE  C218  724   1.341   6.216  14.605 -0.2066 -0.1935  0.2091
    6DOPE  H18R  725   1.424   6.290  14.618  0.6627 -1.2161  0.6776
    6DOPE  H18S  726   1.258   6.251  14.670  0.3864  0.7234  0.4903
    6DOPE  H18T  727   1.289   6.217  14.508 -0.8137  1.3812  0.5210
    6DOPE   C33  728   0.926   6.141  16.019  0.1479 -0.3138 -0.5269
    6DOPE   H3X  729   0.884   6.241  16.040 -0.0801 -0.7567  1.3865
    6DOPE   H3Y  730   0.881   6.063  16.085 -1.3610  1.6328  0.8625
    6DOPE   C34  731   0.882   6.109  15.876 -0.2292  0.4765 -0.1430
    6DOPE   H4X  732   0.778   6.139  15.853  0.1707  0.3614 -2.3055
    6DOPE   H4Y  733   0.941   6.181  15.815  0.5290  0.2993  0.3669
    6DOPE   C35  734   0.894   5.960  15.847 -0.0112 -0.2529 -0.7526
    6DOPE   H5X  735   0.811   5.911  15.904 -0.4799 -1.5085 -2.4273
    6DOPE   H5Y  736   0.986   5.917  15.891 -0.6024 -0.9826 -0.1894
    6DOPE   C36  737   0.908   5.923  15.700 -0.5765 -0.4912 -0.5315
    6DOPE   H6X  738   0.993   5.979  15.656 -0.6966  0.3969  0.3329
    6DOPE   H6Y  739   0.822   5.947  15.633 -0.7709  0.8243  0.1682
    6DOPE   C37  740   0.927   5.770  15.676 -0.3998  0.2719  0.0493
    6DOPE   H7X  741   0.996   5.731  15.753 -2.5322 -0.7429  1.5247
    6DOPE   H7Y  742   0.834   5.713  15.695  0.5691 -0.5740  2.5947
    6DOPE   C38  743   0.982   5.743  15.539 -0.3509 -0.5968 -0.2102
    6DOPE   H8X  744   0.997   5.633  15.530 -1.8449 -0.8529  0.0708
    6DOPE   H8Y  745   1.084   5.786  15.536 -0.5652  0.2822  2.2295
    6DOPE   C39  746   0.901   5.772  15.418  0.1351  0.1718 -0.0529
    6DOPE   H9X  747   0.793   5.786  15.434  0.0587  0.8274 -1.0636
    6DOPE  C310  748   0.947   5.798  15.299  0.2817 -0.1909 -0.3112
    6DOPE  H10X  749   0.870   5.826  15.225  0.2704 -0.7456 -0.5151
    6DOPE  C311  750   1.086   5.815  15.236  0.0785 -0.3242 -0.2910
    6DOPE  H11X  751   1.089   5.917  15.191 -0.2554 -0.1566  0.0597
    6DOPE  H11Y  752   1.163   5.791  15.312 -0.1833 -1.5954 -0.4074
    6DOPE  C312  753   1.098   5.706  15.127  0.1180  0.3771 -0.0275
    6DOPE  H12X  754   1.100   5.605  15.173 -0.6314  0.5826  0.4889
    6DOPE  H12Y  755   1.202   5.722  15.092 -1.2309  1.2791 -4.1887
    6DOPE  C313  756   0.998   5.711  15.016  0.1661  0.6785  0.2320
    6DOPE  H13X  757   0.895   5.684  15.047 -0.1230  1.3107 -0.1579
    6DOPE  H13Y  758   0.979   5.816  14.987 -0.6399  0.6864  0.7446
    6DOPE  C314  759   1.049   5.643  14.891 -0.3554 -0.0849 -0.6145
    6DOPE  H14X  760   1.045   5.534  14.914  1.2943  0.0524  0.4696
    6DOPE  H14Y  761   1.160   5.652  14.892  0.0880 -3.5682 -2.7177
    6DOPE  C315  762   0.970   5.694  14.765 -0.0086 -0.3426 -0.2103
    6DOPE  H15X  763   0.992   5.803  14.756  0.9091 -0.4446  0.5748
    6DOPE  H15Y  764   0.865   5.670  14.791  0.7252 -2.1710  1.2745
    6DOPE  C316  765   1.019   5.635  14.633 -0.6014 -0.5482 -0.2699
    6DOPE  H16X  766   1.009   5.525  14.637 -0.7716 -0.5054  0.9655
    6DOPE  H16Y  767   1.129   5.652  14.642 -0.7708  0.3071  0.2774
    6DOPE  C317  768   0.993   5.700  14.503  0.3225 -0.1974 -0.2681
    6DOPE  H17X  769   1.040   5.636  14.425  2.1864  1.4410 -0.5513
    6DOPE  H17Y  770   0.884   5.691  14.484  0.4504  0.7774 -1.5994
    6DOPE  C318  771   1.039   5.846  14.504  0.6673  0.5527  0.1331
    6DOPE  H18X  772   0.950   5.906  14.534  1.2628  2.3021 -1.4330
    6DOPE  H18Y  773   1.122   5.867  14.575  1.7059 -1.1012 -0.5213
    6DOPE  H18Z  774   1.057   5.877  14.399  1.0850  0.7655  0.2668
    7DOPE     N  775   3.722   5.480  16.744 -0.6178  0.1826 -0.4992
    7DOPE   HN1  776   3.733   5.455  16.644  1.3594  0.0429 -0.2831
    7DOPE   HN2  777   3.626   5.452  16.773  0.3374 -2.1953  0.6773
    7DOPE   HN3  778   3.744   5.581  16.736  1.5183 -0.2698 -0.9901
    7DOPE   C12  779   3.822   5.407  16.838  0.1198  0.0594 -0.0225
    7DOPE  H12A  780   3.788   5.302  16.845  1.2354 -0.2194  1.7041
    7DOPE  H12B  781   3.826   5.457  16.937 -0.3553  1.0331 -0.4747
    7DOPE   C11  782   3.960   5.389  16.762  0.0474  0.5709 -0.2121
    7DOPE  H11A  783   3.938   5.329  16.672 -0.0969  2.0283 -1.1828
    7DOPE  H11B  784   4.042   5.336  16.814 -1.9726 -1.2991  1.2843
    7DOPE     P  785   4.132   5.552  16.642  0.3349  0.4880 -0.0774
    7DOPE   O13  786   4.244   5.494  16.722 -0.0583  0.1952  0.5118
    7DOPE   O14  787   4.139   5.698  16.611  0.5790  0.1145 -0.1305
    7DOPE   O11  788   4.127   5.462  16.509  0.0290 -0.1583 -0.3730
    7DOPE   O12  789   3.999   5.516  16.716 -0.9810  0.6077  0.3778
    7DOPE    C1  790   4.032   5.487  16.406 -0.2005 -0.0056  0.1374
    7DOPE    HA  791   3.944   5.542  16.446 -0.6840 -0.6496 -0.0097
    7DOPE    HB  792   3.977   5.391  16.389 -1.6228  0.6389  0.9497
    7DOPE    C2  793   4.088   5.531  16.278 -0.6966 -0.7052  0.5054
    7DOPE    HS  794   4.089   5.642  16.267  0.9520 -0.8044 -0.8438
    7DOPE   O21  795   4.019   5.462  16.170  0.1499  0.5701 -0.1119
    7DOPE   C21  796   3.917   5.529  16.115  0.7662  0.9429  0.5460
    7DOPE   O22  797   3.877   5.635  16.148 -0.1623  0.1034 -0.2277
    7DOPE   C22  798   3.853   5.435  16.012 -0.0815  0.0811  0.2940
    7DOPE   H2R  799   3.827   5.342  16.068 -1.3403  0.1107 -0.2133
    7DOPE   H2S  800   3.928   5.395  15.940 -0.1842 -0.1419  0.3088
    7DOPE    C3  801   4.235   5.484  16.263  0.6566 -0.1156  0.0575
    7DOPE    HX  802   4.245   5.377  16.291  1.6741 -0.0643 -0.0964
    7DOPE    HY  803   4.297   5.548  16.329  0.2346  0.9668 -0.5689
    7DOPE   O31  804   4.269   5.497  16.128  0.0675 -0.1912  0.1068
    7DOPE   C31  805   4.301   5.624  16.085  0.5568  0.3496  0.0167
    7DOPE   O32  806   4.290   5.723  16.150 -0.3575 -0.2451 -0.5769
    7DOPE   C32  807   4.353   5.616  15.948  0.2347  0.3887  0.0756
    7DOPE   H2X  808   4.418   5.527  15.934 -1.2343 -0.6136 -0.5464
    7DOPE   H2Y  809   4.265   5.606  15.881 -0.6384 -0.7200  1.3444
    7DOPE   C23  810   3.742   5.490  15.928 -0.0377  0.0751  1.0542
    7DOPE   H3R  811   3.771   5.589  15.885 -0.4431  1.0219  2.8451
    7DOPE   H3S  812   3.649   5.509  15.987 -1.1175  1.0329 -0.8553
    7DOPE   C24  813   3.697   5.383  15.820 -0.1727 -0.1175 -0.1319
    7DOPE   H4R  814   3.591   5.403  15.791 -1.2092 -1.8131  2.1609
    7DOPE   H4S  815   3.687   5.286  15.873 -1.0925 -0.0122 -0.0894
    7DOPE   C25  816   3.784   5.367  15.699  0.4280 -0.3480 -0.2012
    7DOPE   H5R  817   3.879   5.320  15.731  1.3025  2.2274  1.2735
    7DOPE   H5S  818   3.815   5.468  15.665 -0.4173  0.2728  0.7868
    7DOPE   C26  819   3.719   5.283  15.584  0.3791  0.0519 -0.2264
    7DOPE   H6R  820   3.637   5.337  15.533  1.7202  3.3014  0.7845
    7DOPE   H6S  821   3.680   5.192  15.635  1.3076  0.7125  1.7608
    7DOPE   C27  822   3.814   5.240  15.475  0.1527  1.0084  0.4512
    7DOPE   H7R  823   3.899   5.187  15.524  0.9569 -0.6266 -2.4719
    7DOPE   H7S  824   3.867   5.323  15.424  2.4189 -1.5257 -1.6357
    7DOPE   C28  825   3.760   5.152  15.368 -0.2501 -0.2158 -1.0922
    7DOPE   H8R  826   3.727   5.057  15.415  0.2211  0.4432  0.6365
    7DOPE   H8S  827   3.842   5.117  15.302 -2.3342  0.5680 -4.3230
    7DOPE   C29  828   3.637   5.208  15.299 -0.6140  0.2902  0.2255
    7DOPE   H9R  829   3.533   5.181  15.326 -0.8732  1.7688  0.7937
    7DOPE  C210  830   3.641   5.285  15.195 -0.2823  0.4910  0.4683
    7DOPE  H10R  831   3.553   5.342  15.164 -1.3086 -2.0478 -1.7128
    7DOPE  C211  832   3.763   5.322  15.118 -0.1311 -0.8642 -0.7953
    7DOPE  H11R  833   3.855   5.290  15.171  0.1061  1.0103  0.0369
    7DOPE  H11S  834   3.768   5.433  15.110  1.0161 -0.8571 -0.2404
    7DOPE  C212  835   3.755   5.268  14.979 -0.1899  0.4050 -0.2368
    7DOPE  H12R  836   3.662   5.311  14.934 -0.2583 -0.3321 -0.8264
    7DOPE  H12S  837   3.741   5.158  14.984  0.1387  0.4168  1.4859
    7DOPE  C213  838   3.868   5.296  14.879 -0.6547 -0.4898  0.0095
    7DOPE  H13R  839   3.954   5.238  14.919 -0.8224 -0.2337  0.7626
    7DOPE  H13S  840   3.889   5.405  14.876 -4.5247  0.3629 -0.7615
    7DOPE  C214  841   3.835   5.244  14.742 -0.1090 -1.0007  0.1282
    7DOPE  H14R  842   3.797   5.140  14.751 -1.2013 -0.6283 -0.0360
    7DOPE  H14S  843   3.935   5.227  14.696  0.5419 -0.9344  1.4496
    7DOPE  C215  844   3.731   5.333  14.672  0.1975 -0.2192  0.2547
    7DOPE  H15R  845   3.770   5.437  14.668 -1.2761  0.3006 -1.6846
    7DOPE  H15S  846   3.631   5.321  14.719 -0.7472 -4.1606 -2.3135
    7DOPE  C216  847   3.704   5.301  14.526 -0.1657 -0.2617 -0.1870
    7DOPE  H16R  848   3.792   5.329  14.466 -0.2547  1.1630  0.2951
    7DOPE  H16S  849   3.613   5.354  14.489 -0.3362  0.7797  1.6011
    7DOPE  C217  850   3.675   5.152  14.509 -0.1960  0.0179 -0.3057
    7DOPE  H17R  851   3.627   5.104  14.597  0.2866 -1.8914 -1.0205
    7DOPE  H17S  852   3.778   5.110  14.504  0.6440  2.0222 -0.9517
    7DOPE  C218  853   3.602   5.109  14.374 -0.4517 -0.4972 -0.4277
    7DOPE  H18R  854   3.571   5.002  14.374 -0.0536 -0.6386  1.0191
    7DOPE  H18S  855   3.671   5.122  14.288  0.4232 -1.6682  0.0616
    7DOPE  H18T  856   3.523   5.183  14.351 -1.3945 -1.0844  0.8260
    7DOPE   C33  857   4.448   5.726  15.907 -0.0848  0.2333 -0.3074
    7DOPE   H3X  858   4.533   5.725  15.978 -1.5463  0.1084  1.5004
    7DOPE   H3Y  859   4.407   5.829  15.905 -0.2567  0.1999  0.9047
    7DOPE   C34  860   4.517   5.692  15.770 -0.2575  0.0258 -0.3540
    7DOPE   H4X  861   4.575   5.781  15.738  0.2725 -0.1005  0.2473
    7DOPE   H4Y  862   4.588   5.607  15.775 -1.8542 -1.4507 -1.4272
    7DOPE   C35  863   4.415   5.679  15.659  0.4048  0.6703 -0.1681
    7DOPE   H5X  864   4.356   5.773  15.660  0.0285  0.5995 -3.4541
    7DOPE   H5Y  865   4.342   5.597  15.675 -0.8863  1.4534 -1.7805
    7DOPE   C36  866   4.478   5.667  15.523  0.5282  0.2371 -0.1094
    7DOPE   H6X  867   4.542   5.576  15.516  0.2761 -0.0696  1.2162
    7DOPE   H6Y  868   4.545   5.754  15.504  0.5626  0.5073  1.1292
    7DOPE   C37  869   4.369   5.668  15.414 -0.2447 -0.1927  1.0948
    7DOPE   H7X  870   4.288   5.597  15.443 -2.0420  1.5955  0.6748
    7DOPE   H7Y  871   4.330   5.772  15.410 -0.9091 -0.4651 -0.2129
    7DOPE   C38  872   4.412   5.630  15.270 -0.6236  0.1287 -0.0040
    7DOPE   H8X  873   4.315   5.614  15.219  0.5212 -1.7795 -1.7556
    7DOPE   H8Y  874   4.463   5.532  15.281 -0.7492 -0.0051 -0.5731
    7DOPE   C39  875   4.497   5.730  15.190  0.0651 -0.1823 -0.3146
    7DOPE   H9X  876   4.545   5.817  15.238  3.9712 -1.1239 -2.1437
    7DOPE  C310  877   4.537   5.700  15.066  0.2354 -0.0296  0.3029
    7DOPE  H10X  878   4.585   5.779  15.006  1.0575 -0.9345 -0.2596
    7DOPE  C311  879   4.506   5.586  14.977 -0.1911 -0.2070  0.0849
    7DOPE  H11X  880   4.597   5.538  14.935  0.0733  0.4758 -0.1408
    7DOPE  H11Y  881   4.472   5.508  15.047 -0.3521  0.3865  0.6797
    7DOPE  C312  882   4.405   5.604  14.870  0.4726  0.4797 -0.2096
    7DOPE  H12X  883   4.309   5.627  14.920 -0.4113 -1.9187 -0.6314
    7DOPE  H12Y  884   4.396   5.509  14.811 -1.5013  1.4147 -1.5361
    7DOPE  C313  885   4.442   5.712  14.763 -0.1252  0.3349 -0.4487
    7DOPE  H13X  886   4.351   5.753  14.714 -0.9855  1.1256  1.6780
    7DOPE  H13Y  887   4.498   5.794  14.812 -0.1487  1.0168 -1.5292
    7DOPE  C314  888   4.535   5.644  14.661  0.1522 -0.3331  0.4843
    7DOPE  H14X  889   4.497   5.553  14.610 -1.0021  0.6588 -0.5219
    7DOPE  H14Y  890   4.624   5.612  14.720  0.5966 -0.1950 -0.0926
    7DOPE  C315  891   4.578   5.736  14.543 -0.0017  0.1950 -0.1172
    7DOPE  H15X  892   4.634   5.820  14.590 -1.0866  0.1095  1.4081
    7DOPE  H15Y  893   4.486   5.780  14.498 -0.1406  2.4862  2.1568
    7DOPE  C316  894   4.672   5.661  14.444  0.1512  0.1823  0.2123
    7DOPE  H16X  895   4.612   5.570  14.423 -0.8300  0.7964  0.2569
    7DOPE  H16Y  896   4.769   5.639  14.494  1.6462 -0.5977 -2.8077
    7DOPE  C317  897   4.702   5.736  14.316 -0.2983 -0.5988 -0.4292
    7DOPE  H17X  898   4.611   5.748  14.254  0.6066  4.1610 -1.2253
    7DOPE  H17Y  899   4.732   5.838  14.348 -1.6342 -0.2108 -0.3450
    7DOPE  C318  900   4.802   5.660  14.227  0.4315  0.2094  0.5299
    7DOPE  H18X  901   4.812   5.552  14.248 -1.7960 -0.3116 -0.8631
    7DOPE  H18Y  902   4.771   5.668  14.121  0.3382 -1.2431  0.4378
    7DOPE  H18Z  903   4.896   5.717  14.244  0.7832 -0.7702  2.0975
    8DOPE     N  904   3.380   5.998  16.793 -0.5782 -0.4175  0.4925
    8DOPE   HN1  905   3.323   6.053  16.726  0.5834 -1.4215 -1.4248
    8DOPE   HN2  906   3.331   5.988  16.885 -1.3919  1.7284  0.3373
    8DOPE   HN3  907   3.470   6.049  16.800 -1.8834  1.8884  1.6324
    8DOPE   C12  908   3.408   5.868  16.715  0.2770 -0.1162 -0.5730
    8DOPE  H12A  909   3.308   5.830  16.686 -0.0290  0.8826 -0.8492
    8DOPE  H12B  910   3.454   5.798  16.788  0.8097  0.0866 -0.7110
    8DOPE   C11  911   3.497   5.890  16.588  0.6099  0.0717  0.4289
    8DOPE  H11A  912   3.433   5.951  16.521 -0.1026 -1.5394 -0.4217
    8DOPE  H11B  913   3.512   5.791  16.539  1.4175 -0.1678  1.1283
    8DOPE     P  914   3.746   5.877  16.661 -0.0282  0.0216 -0.0127
    8DOPE   O13  915   3.721   5.750  16.739 -0.1075 -0.0550 -0.6937
    8DOPE   O14  916   3.853   5.969  16.707 -0.4504 -0.3672  0.3934
    8DOPE   O11  917   3.780   5.821  16.518  0.7042 -0.2319  0.5865
    8DOPE   O12  918   3.620   5.948  16.620  0.2658  0.2072  0.7310
    8DOPE    C1  919   3.871   5.900  16.437  0.5667 -0.1335  0.4118
    8DOPE    HA  920   3.915   5.836  16.357  0.7848 -1.3202  1.4530
    8DOPE    HB  921   3.959   5.927  16.499 -0.0174 -0.8322  1.5760
    8DOPE    C2  922   3.791   6.009  16.362  0.6503 -0.1203  0.8069
    8DOPE    HS  923   3.739   6.074  16.435 -0.7815  1.1837 -1.2739
    8DOPE   O21  924   3.693   5.948  16.276  0.5841 -0.4734  0.4938
    8DOPE   C21  925   3.595   6.023  16.253 -0.4014  0.0493  0.1392
    8DOPE   O22  926   3.575   6.132  16.305  0.1553 -0.5879 -0.2198
    8DOPE   C22  927   3.517   5.964  16.131 -0.1011  0.5192  0.0461
    8DOPE   H2R  928   3.536   6.027  16.041 -0.3982  1.4774  0.6342
    8DOPE   H2S  929   3.409   5.976  16.155 -0.5234 -0.1617 -1.4416
    8DOPE    C3  930   3.884   6.103  16.286 -0.5645 -0.1483 -0.5625
    8DOPE    HX  931   3.943   6.157  16.363  0.3393 -1.5280 -0.2542
    8DOPE    HY  932   3.833   6.176  16.220  0.6161 -1.5132 -3.1169
    8DOPE   O31  933   3.990   6.032  16.202  0.4430  0.5028  0.1664
    8DOPE   C31  934   3.940   6.002  16.077 -0.4198  0.5057  0.3549
    8DOPE   O32  935   3.835   6.042  16.031 -0.3716 -0.2683 -0.1645
    8DOPE   C32  936   4.043   5.918  16.001  0.2479  0.3725 -0.6641
    8DOPE   H2X  937   4.134   5.981  16.014  0.4881 -0.1872  0.5004
    8DOPE   H2Y  938   4.057   5.825  16.060  0.8167  0.4026 -0.7474
    8DOPE   C23  939   3.548   5.808  16.097  0.8838 -0.5077 -0.8853
    8DOPE   H3R  940   3.536   5.756  16.194 -1.3148  1.6141  0.1177
    8DOPE   H3S  941   3.653   5.796  16.064  0.9508  1.7738 -1.7423
    8DOPE   C24  942   3.451   5.732  16.003 -0.2234  0.1243 -0.1745
    8DOPE   H4R  943   3.350   5.742  16.048  0.4314 -0.8092  1.5872
    8DOPE   H4S  944   3.470   5.623  16.002  0.9395  0.2982  0.7971
    8DOPE   C25  945   3.448   5.781  15.862 -0.0030 -1.0818 -0.1959
    8DOPE   H5R  946   3.547   5.784  15.810 -0.7586  1.9822 -1.7220
    8DOPE   H5S  947   3.417   5.887  15.850 -0.6792 -1.2575 -0.0181
    8DOPE   C26  948   3.357   5.702  15.772  0.0386  0.3981  0.2573
    8DOPE   H6R  949   3.263   5.684  15.827  0.4821 -2.8711  0.1460
    8DOPE   H6S  950   3.399   5.602  15.748  0.9485  0.9363 -0.5133
    8DOPE   C27  951   3.327   5.781  15.645 -0.0443 -0.3935 -0.0991
    8DOPE   H7R  952   3.397   5.866  15.634 -0.8807  0.2534 -0.5612
    8DOPE   H7S  953   3.222   5.819  15.641  0.3412  0.8464  0.7081
    8DOPE   C28  954   3.334   5.700  15.513 -0.0442  0.3278 -0.2693
    8DOPE   H8R  955   3.309   5.765  15.426 -1.2653 -1.4484 -1.3150
    8DOPE   H8S  956   3.250   5.627  15.517  0.9331 -1.0124 -2.4173
    8DOPE   C29  957   3.471   5.639  15.480  0.1186  0.2372 -0.1156
    8DOPE   H9R  958   3.526   5.586  15.559 -0.4178 -0.1793 -0.0147
    8DOPE  C210  959   3.534   5.639  15.360 -0.5770  0.1553 -0.3958
    8DOPE  H10R  960   3.626   5.580  15.345 -1.4327 -1.8555  1.8131
    8DOPE  C211  961   3.479   5.694  15.223  0.2314 -0.1905 -0.0499
    8DOPE  H11R  962   3.459   5.802  15.237 -0.5368 -0.4404  0.8752
    8DOPE  H11S  963   3.383   5.638  15.216  0.9464 -1.7920  1.7790
    8DOPE  C212  964   3.558   5.669  15.097  0.3524  0.3150  0.1534
    8DOPE  H12R  965   3.559   5.561  15.072 -0.3519  0.8688 -2.6077
    8DOPE  H12S  966   3.663   5.702  15.108  1.1342 -1.9330 -0.1115
    8DOPE  C213  967   3.477   5.744  14.987  0.0967  0.0735  0.3457
    8DOPE  H13R  968   3.467   5.850  15.018 -1.8067 -0.3061  1.1146
    8DOPE  H13S  969   3.372   5.708  14.981  0.1012  0.0082  0.6428
    8DOPE  C214  970   3.548   5.739  14.852 -0.5528 -0.5825  0.4830
    8DOPE  H14R  971   3.572   5.637  14.815 -0.2800  0.1040 -1.2980
    8DOPE  H14S  972   3.643   5.795  14.863 -1.0273  0.6930 -1.4462
    8DOPE  C215  973   3.466   5.807  14.743  0.2743 -0.4361 -0.1644
    8DOPE  H15R  974   3.449   5.914  14.770 -0.5199 -0.9460  1.5317
    8DOPE  H15S  975   3.370   5.754  14.725 -0.6376  0.4366  1.7661
    8DOPE  C216  976   3.534   5.806  14.603 -0.8271  0.0974 -0.2571
    8DOPE  H16R  977   3.544   5.702  14.564  1.0066  1.0966 -2.7958
    8DOPE  H16S  978   3.632   5.858  14.601 -0.7653 -0.0228 -0.3714
    8DOPE  C217  979   3.443   5.878  14.502 -0.0406  0.0916  0.5279
    8DOPE  H17R  980   3.338   5.846  14.515 -0.2994 -0.4467 -2.2788
    8DOPE  H17S  981   3.470   5.840  14.401 -0.1206  2.5290 -0.4747
    8DOPE  C218  982   3.443   6.035  14.502  0.3703  0.2117  0.3268
    8DOPE  H18R  983   3.399   6.080  14.594  2.1873  0.5177  1.1018
    8DOPE  H18S  984   3.382   6.060  14.413 -0.9683  0.5280  1.3063
    8DOPE  H18T  985   3.542   6.083  14.489  0.0624  0.8217  0.2238
    8DOPE   C33  986   3.992   5.888  15.861  0.3876 -0.9565 -0.1366
    8DOPE   H3X  987   3.950   5.981  15.818 -1.8479 -2.8110 -2.2747
    8DOPE   H3Y  988   3.918   5.806  15.846 -0.5351  0.0248 -1.0741
    8DOPE   C34  989   4.106   5.837  15.763  0.8869 -1.0326  0.1014
    8DOPE   H4X  990   4.190   5.908  15.782 -1.2597  1.5270  0.7056
    8DOPE   H4Y  991   4.142   5.735  15.791 -0.3924 -1.6087 -0.3146
    8DOPE   C35  992   4.058   5.850  15.623 -0.1374  0.3140 -0.0504
    8DOPE   H5X  993   4.143   5.819  15.558  0.1370  1.5293 -0.2982
    8DOPE   H5Y  994   4.063   5.955  15.588  3.3691  1.0821  2.2725
    8DOPE   C36  995   3.931   5.761  15.596  0.1020 -0.5676 -0.2996
    8DOPE   H6X  996   3.843   5.809  15.644 -0.2274 -1.6536  0.1995
    8DOPE   H6Y  997   3.934   5.655  15.627 -0.6095 -0.5668 -0.2162
    8DOPE   C37  998   3.906   5.737  15.447 -0.0764 -1.1917  0.1109
    8DOPE   H7X  999   3.803   5.695  15.442 -0.8050  0.5467 -0.5802
    8DOPE   H7Y 1000   3.898   5.830  15.387 -1.0925 -1.3664 -0.0547
    8DOPE   C38 1001   4.014   5.647  15.386 -0.4457 -0.1245  0.0316
    8DOPE   H8X 1002   4.019   5.554  15.447  0.5699  1.3758  2.3399
    8DOPE   H8Y 1003   4.121   5.678  15.388  0.5450 -3.1303 -0.3443
    8DOPE   C39 1004   3.963   5.615  15.246 -0.2957 -0.2710 -0.2385
    8DOPE   H9X 1005   3.889   5.534  15.243 -1.2925  0.6451 -2.2352
    8DOPE  C310 1006   3.999   5.663  15.133  0.6077 -1.0992  0.4734
    8DOPE  H10X 1007   3.948   5.632  15.041  0.6105  1.2307 -0.3629
    8DOPE  C311 1008   4.103   5.769  15.103 -0.1548 -0.3884 -0.8847
    8DOPE  H11X 1009   4.189   5.759  15.173 -0.0854 -0.5872 -0.9960
    8DOPE  H11Y 1010   4.147   5.745  15.004  1.2328  0.2618 -0.4478
    8DOPE  C312 1011   4.042   5.907  15.099  0.1866  0.0118 -0.7461
    8DOPE  H12X 1012   3.997   5.937  15.196  2.1303 -1.0053  0.5178
    8DOPE  H12Y 1013   3.959   5.893  15.026 -0.5262 -0.9011  0.2062
    8DOPE  C313 1014   4.142   6.018  15.063  0.5201 -0.1229  0.2222
    8DOPE  H13X 1015   4.098   6.118  15.045  1.5757  0.1024 -1.2533
    8DOPE  H13Y 1016   4.212   6.024  15.149  2.6646 -2.5998 -1.2041
    8DOPE  C314 1017   4.216   5.982  14.933 -0.6177  0.2974 -0.1769
    8DOPE  H14X 1018   4.296   5.906  14.946  0.3533  1.1623 -0.9768
    8DOPE  H14Y 1019   4.269   6.079  14.924  0.1062  0.0088  0.8209
    8DOPE  C315 1020   4.140   5.943  14.810  0.6821 -0.1626  0.0270
    8DOPE  H15X 1021   4.090   5.848  14.841  2.0897 -0.4958  1.4262
    8DOPE  H15Y 1022   4.211   5.912  14.731  1.6704  0.0188  0.8205
    8DOPE  C316 1023   4.043   6.048  14.745 -0.4383 -0.0335  0.0528
    8DOPE  H16X 1024   4.106   6.136  14.718  0.0828  0.4403  2.5710
    8DOPE  H16Y 1025   3.969   6.077  14.823 -1.4724 -1.6528 -0.2788
    8DOPE  C317 1026   3.973   5.981  14.623 -0.1215  0.6408 -0.8755
    8DOPE  H17X 1027   4.051   5.957  14.547 -0.4584  0.4122 -1.1539
    8DOPE  H17Y 1028   3.922   5.889  14.659  0.4364  0.8527  0.5427
    8DOPE  C318 1029   3.876   6.084  14.555 -0.2020 -0.2708  1.0287
    8DOPE  H18X 1030   3.904   6.163  14.482 -1.1858  0.7225  1.6849
    8DOPE  H18Y 1031   3.824   6.131  14.642  1.7521 -0.7902  2.5551
    8DOPE  H18Z 1032   3.806   6.025  14.492 -0.4107  0.1571  0.8567
    9DOPE     N 1033   0.558   5.319  16.318 -0.7406 -0.0933  0.7467
    9DOPE   HN1 1034   0.473   5.366  16.282 -0.8136 -1.0340 -0.3613
    9DOPE   HN2 1035   0.635   5.363  16.264 -2.0872  2.2114  0.5600
    9DOPE   HN3 1036   0.542   5.217  16.308 -2.0126  0.0409  1.2498
    9DOPE   C12 1037   0.569   5.348  16.463  0.1699 -0.8024  0.1520
    9DOPE  H12A 1038   0.484   5.306  16.522  0.9014  0.9346  2.6110
    9DOPE  H12B 1039   0.575   5.458  16.477 -1.7680 -0.6892  0.3524
    9DOPE   C11 1040   0.699   5.294  16.510 -0.6481  0.2895 -0.2175
    9DOPE  H11A 1041   0.706   5.323  16.617  1.3526 -0.9711  0.0567
    9DOPE  H11B 1042   0.787   5.346  16.465  0.2300  1.3001  2.5012
    9DOPE     P 1043   0.831   5.078  16.571 -0.3500 -0.5741  0.2699
    9DOPE   O13 1044   0.797   4.950  16.634  0.1953  0.1446 -0.5076
    9DOPE   O14 1045   0.911   5.182  16.648 -0.6081  0.1700  0.4909
    9DOPE   O11 1046   0.914   5.040  16.443 -0.5729  0.3046  0.7094
    9DOPE   O12 1047   0.699   5.149  16.504 -0.0764  0.1905  0.5819
    9DOPE    C1 1048   0.845   4.968  16.340  0.5274  0.0562 -0.0989
    9DOPE    HA 1049   0.866   4.995  16.234 -1.3915  0.6488 -0.3591
    9DOPE    HB 1050   0.735   4.982  16.343  0.3430 -0.6923 -1.8812
    9DOPE    C2 1051   0.874   4.811  16.354  0.3296 -0.6664  0.2529
    9DOPE    HS 1052   0.864   4.786  16.462 -0.2893 -0.5122  0.2338
    9DOPE   O21 1053   1.003   4.771  16.303  0.7762 -0.2433  0.2304
    9DOPE   C21 1054   1.057   4.654  16.338  0.8349 -0.1458 -0.3676
    9DOPE   O22 1055   1.003   4.581  16.419  0.2896 -0.0375 -0.1079
    9DOPE   C22 1056   1.194   4.626  16.271  0.9205 -0.8190  0.4745
    9DOPE   H2R 1057   1.244   4.549  16.334  0.6501 -1.1994  0.2258
    9DOPE   H2S 1058   1.247   4.724  16.272  0.2558 -0.3659 -2.2034
    9DOPE    C3 1059   0.770   4.739  16.268 -0.1092  0.4884  0.1477
    9DOPE    HX 1060   0.670   4.783  16.287  0.0525  0.9809 -0.1511
    9DOPE    HY 1061   0.769   4.632  16.299  0.8021  0.3131 -0.4122
    9DOPE   O31 1062   0.809   4.744  16.126  0.0996  0.2628 -0.0751
    9DOPE   C31 1063   0.730   4.806  16.042 -0.7015  0.5666  0.3219
    9DOPE   O32 1064   0.628   4.863  16.063 -0.5497 -0.1371  0.0816
    9DOPE   C32 1065   0.790   4.787  15.903  0.6057  0.3053  0.6352
    9DOPE   H2X 1066   0.846   4.882  15.886  0.3231  0.1473 -1.5818
    9DOPE   H2Y 1067   0.869   4.709  15.898 -1.3255 -1.8280  1.5904
    9DOPE   C23 1068   1.187   4.587  16.122  0.0359  0.6036 -0.2485
    9DOPE   H3R 1069   1.289   4.603  16.080  0.9295  1.2370  2.0208
    9DOPE   H3S 1070   1.122   4.659  16.067 -0.8671 -0.8675 -1.1985
    9DOPE   C24 1071   1.131   4.446  16.103  0.0609  0.1479 -0.4500
    9DOPE   H4R 1072   1.029   4.428  16.145 -0.5132  2.0019 -0.9622
    9DOPE   H4S 1073   1.203   4.375  16.149  0.2974  1.1579  0.7915
    9DOPE   C25 1074   1.119   4.415  15.949 -0.2397 -0.6119  0.0594
    9DOPE   H5R 1075   1.218   4.439  15.907 -1.4769  1.0276 -2.1162
    9DOPE   H5S 1076   1.040   4.480  15.907 -1.1775 -0.1116  2.4157
    9DOPE   C26 1077   1.101   4.267  15.927 -0.3619  0.6697 -0.4427
    9DOPE   H6R 1078   1.001   4.249  15.971  0.2921 -0.4871  0.6573
    9DOPE   H6S 1079   1.176   4.210  15.987 -0.3935  2.7453  1.7264
    9DOPE   C27 1080   1.100   4.218  15.775  0.1919 -0.2399 -0.5689
    9DOPE   H7R 1081   1.028   4.282  15.720  3.3183  1.6812 -2.7520
    9DOPE   H7S 1082   1.061   4.115  15.762  2.4632 -1.0487 -1.5309
    9DOPE   C28 1083   1.235   4.228  15.697  0.2178  0.2148  0.7135
    9DOPE   H8R 1084   1.322   4.182  15.748  1.9848  0.0734 -2.2489
    9DOPE   H8S 1085   1.254   4.337  15.708 -0.3834  0.4243 -0.1810
    9DOPE   C29 1086   1.225   4.174  15.555  0.4075  0.1571  0.1785
    9DOPE   H9R 1087   1.292   4.091  15.529 -1.1924 -0.5389 -2.1140
    9DOPE  C210 1088   1.164   4.236  15.449  0.1003  0.0497 -0.2727
    9DOPE  H10R 1089   1.159   4.182  15.353 -0.0300  0.1784 -0.3380
    9DOPE  C211 1090   1.093   4.362  15.443  0.3202  0.1295  0.8691
    9DOPE  H11R 1091   1.092   4.419  15.539  0.4125 -1.0626  1.6017
    9DOPE  H11S 1092   0.985   4.351  15.419  0.1733  1.0784  1.0268
    9DOPE  C212 1093   1.164   4.453  15.334  0.3175 -0.2034  0.0882
    9DOPE  H12R 1094   1.261   4.493  15.372  0.4408  0.0765 -0.5111
    9DOPE  H12S 1095   1.093   4.538  15.334 -1.2960 -1.4945  0.5993
    9DOPE  C213 1096   1.156   4.399  15.188 -0.1001 -0.5481 -0.3226
    9DOPE  H13R 1097   1.055   4.364  15.159 -0.4955  2.2221 -2.8665
    9DOPE  H13S 1098   1.224   4.311  15.181  0.5136 -0.1425  0.3518
    9DOPE  C214 1099   1.204   4.511  15.095 -0.1244 -0.0351  0.4997
    9DOPE  H14R 1100   1.307   4.537  15.129  0.7847 -0.9218 -1.3970
    9DOPE  H14S 1101   1.145   4.605  15.106 -0.5951 -0.1709 -0.7018
    9DOPE  C215 1102   1.215   4.453  14.951 -0.5410 -0.3649  0.4281
    9DOPE  H15R 1103   1.123   4.394  14.931 -1.1728  0.2433  1.4709
    9DOPE  H15S 1104   1.297   4.379  14.950  0.2216  0.4564  0.3165
    9DOPE  C216 1105   1.230   4.563  14.842 -0.1700 -0.1611 -0.0197
    9DOPE  H16R 1106   1.316   4.625  14.875 -1.1673  0.3022  1.8216
    9DOPE  H16S 1107   1.137   4.623  14.843 -1.1929 -1.7070  1.1042
    9DOPE  C217 1108   1.275   4.492  14.710  0.7382 -0.7830  0.7909
    9DOPE  H17R 1109   1.209   4.404  14.695  0.4382 -0.3452 -0.6159
    9DOPE  H17S 1110   1.373   4.444  14.728  0.2988 -1.1900  2.3109
    9DOPE  C218 1111   1.274   4.594  14.597  0.1437  0.4126 -0.2656
    9DOPE  H18R 1112   1.240   4.549  14.501  1.9649 -2.2345  0.2237
    9DOPE  H18S 1113   1.379   4.624  14.577  0.0789  1.2368  0.5829
    9DOPE  H18T 1114   1.211   4.678  14.632  0.4435 -0.2290  1.9910
    9DOPE   C33 1115   0.685   4.762  15.790  0.0133 -0.1087 -0.2589
    9DOPE   H3X 1116   0.614   4.847  15.780 -0.7916 -0.3775  2.3736
    9DOPE   H3Y 1117   0.622   4.675  15.816  1.1233 -0.7593  0.3421
    9DOPE   C34 1118   0.742   4.731  15.654  0.1395  0.1494  0.8770
    9DOPE   H4X 1119   0.793   4.822  15.616  0.6464  0.1562  1.5661
    9DOPE   H4Y 1120   0.830   4.664  15.647  0.2257  0.4174 -1.3496
    9DOPE   C35 1121   0.638   4.689  15.544 -0.1304 -0.6604 -0.6767
    9DOPE   H5X 1122   0.589   4.780  15.503 -0.8360 -1.7528 -2.3687
    9DOPE   H5Y 1123   0.568   4.607  15.571  2.5418 -2.3846  1.5905
    9DOPE   C36 1124   0.718   4.630  15.423  0.3739 -0.1650 -0.7092
    9DOPE   H6X 1125   0.763   4.531  15.446 -0.0360 -0.2542 -0.2600
    9DOPE   H6Y 1126   0.790   4.706  15.388  0.4994 -0.1157 -0.3508
    9DOPE   C37 1127   0.626   4.614  15.299 -0.7929 -1.0247  0.3861
    9DOPE   H7X 1128   0.520   4.581  15.303 -1.7247  1.5695 -1.1357
    9DOPE   H7Y 1129   0.624   4.713  15.249 -0.5499 -1.5742 -0.7341
    9DOPE   C38 1130   0.694   4.515  15.196 -0.0948 -0.1972 -0.3534
    9DOPE   H8X 1131   0.615   4.486  15.124  1.2402 -2.2858 -1.0760
    9DOPE   H8Y 1132   0.722   4.421  15.248  0.2131 -0.7657 -1.5166
    9DOPE   C39 1133   0.817   4.579  15.134 -0.0266  0.1137  0.1191
    9DOPE   H9X 1134   0.889   4.631  15.199  0.4544  2.2923 -2.0097
    9DOPE  C310 1135   0.840   4.560  15.000 -0.4915  0.3527 -0.1409
    9DOPE  H10X 1136   0.934   4.598  14.955 -1.1807  0.6831 -1.3545
    9DOPE  C311 1137   0.757   4.489  14.901  0.7690 -0.1557 -0.4964
    9DOPE  H11X 1138   0.781   4.382  14.887 -0.1069 -0.3758 -0.3961
    9DOPE  H11Y 1139   0.649   4.510  14.920  0.2196 -1.7955 -1.6112
    9DOPE  C312 1140   0.766   4.552  14.757 -0.1542 -0.0564 -0.3238
    9DOPE  H12X 1141   0.714   4.650  14.755 -0.2979 -0.0090  2.2441
    9DOPE  H12Y 1142   0.706   4.483  14.694  1.5359 -2.4860  0.6146
    9DOPE  C313 1143   0.898   4.567  14.686 -0.2308 -0.1323  0.4766
    9DOPE  H13X 1144   0.957   4.648  14.735  0.5836 -0.0984 -0.5195
    9DOPE  H13Y 1145   0.944   4.468  14.704 -1.2348 -1.1641 -2.2141
    9DOPE  C314 1146   0.886   4.593  14.534 -0.6630 -0.3387 -1.0193
    9DOPE  H14X 1147   0.809   4.525  14.492 -0.5283 -1.9602  1.1625
    9DOPE  H14Y 1148   0.986   4.568  14.493 -0.2483  1.4686 -1.2057
    9DOPE  C315 1149   0.858   4.746  14.507 -0.0403  0.1051  0.4553
    9DOPE  H15X 1150   0.912   4.802  14.587  0.8215  0.4687 -0.3659
    9DOPE  H15Y 1151   0.750   4.768  14.519 -0.0158 -0.2874  1.5807
    9DOPE  C316 1152   0.902   4.783  14.367 -0.5861  0.2661 -0.1037
    9DOPE  H16X 1153   0.855   4.724  14.286 -0.2488 -1.1352  0.6894
    9DOPE  H16Y 1154   1.012   4.768  14.367 -0.6000  0.0864 -1.0736
    9DOPE  C317 1155   0.891   4.931  14.324 -0.4898  0.0659  0.4855
    9DOPE  H17X 1156   0.951   4.989  14.397  0.1827 -0.4880  0.3787
    9DOPE  H17Y 1157   0.939   4.949  14.226 -1.5784  0.6701  0.0378
    9DOPE  C318 1158   0.752   4.992  14.315  0.4149  0.1129 -0.2231
    9DOPE  H18X 1159   0.687   4.935  14.245 -0.4136  0.1312  0.5234
    9DOPE  H18Y 1160   0.701   4.994  14.414 -2.4323  0.5795 -1.5852
    9DOPE  H18Z 1161   0.760   5.093  14.270  0.8207 -0.4485 -1.4671
   10DOPE     N 1162   1.669   0.635  16.550  0.8410  0.0825  0.5754
   10DOPE   HN1 1163   1.596   0.593  16.613  1.3281  1.5410  2.1855
   10DOPE   HN2 1164   1.651   0.737  16.547  0.7646  0.0481 -1.2969
   10DOPE   HN3 1165   1.648   0.596  16.456  2.1412  1.6923 -0.4329
   10DOPE   C12 1166   1.814   0.601  16.586  1.0251  0.5037 -0.6374
   10DOPE  H12A 1167   1.840   0.650  16.682  0.1590  1.4440 -0.8601
   10DOPE  H12B 1168   1.891   0.637  16.514  1.3087  1.6561  0.2214
   10DOPE   C11 1169   1.843   0.449  16.610 -0.2760  0.4884  0.2007
   10DOPE  H11A 1170   1.950   0.464  16.636  0.5770  0.2494 -2.7907
   10DOPE  H11B 1171   1.843   0.396  16.513  0.1506 -0.7651  0.8669
   10DOPE     P 1172   1.760   0.238  16.740  0.2848 -0.1092 -0.3392
   10DOPE   O13 1173   1.656   0.211  16.842  0.1639 -0.6388 -0.1138
   10DOPE   O14 1174   1.894   0.194  16.778  0.4947  0.4325  0.2341
   10DOPE   O11 1175   1.724   0.169  16.605 -0.0669  0.1805  0.0493
   10DOPE   O12 1176   1.748   0.389  16.702 -0.2325 -0.1745 -0.5147
   10DOPE    C1 1177   1.768   0.041  16.564 -0.7145  0.4565  0.7872
   10DOPE    HA 1178   1.726  -0.040  16.627  0.0766 -0.6380 -0.0504
   10DOPE    HB 1179   1.877   0.024  16.571 -0.9434 -1.4053  0.3876
   10DOPE    C2 1180   1.726   0.007  16.420 -0.3038 -0.1749 -0.9330
   10DOPE    HS 1181   1.758  -0.100  16.417 -0.6448 -0.3182  0.2686
   10DOPE   O21 1182   1.791   0.085  16.314  0.4278 -0.1064 -0.3133
   10DOPE   C21 1183   1.920   0.056  16.297 -0.1169  0.6025  0.6354
   10DOPE   O22 1184   1.982  -0.035  16.349 -0.0605  0.6775  0.3350
   10DOPE   C22 1185   1.976   0.146  16.188  0.5851 -0.1824  0.5205
   10DOPE   H2R 1186   2.021   0.238  16.229 -2.2463  1.6452 -0.1712
   10DOPE   H2S 1187   1.895   0.178  16.119 -1.2526  1.4140  3.2435
   10DOPE    C3 1188   1.570  -0.004  16.400  0.2499 -0.2171 -0.3288
   10DOPE    HX 1189   1.537   0.100  16.426 -0.2878 -0.5396  0.3225
   10DOPE    HY 1190   1.534  -0.055  16.492  2.0205 -0.2920  0.3473
   10DOPE   O31 1191   1.519  -0.048  16.273  0.3697  0.7187  0.5231
   10DOPE   C31 1192   1.512  -0.176  16.258  0.4783  0.0621 -0.2407
   10DOPE   O32 1193   1.553  -0.264  16.336  0.2977 -0.1809 -0.3655
   10DOPE   C32 1194   1.473  -0.211  16.114 -0.0094  0.0397  0.2573
   10DOPE   H2X 1195   1.383  -0.152  16.085 -0.9071 -1.0505  0.7726
   10DOPE   H2Y 1196   1.559  -0.156  16.070  0.5596  0.1159  1.4286
   10DOPE   C23 1197   2.080   0.067  16.113 -0.1793  0.0329 -0.8108
   10DOPE   H3R 1198   2.035  -0.027  16.075  2.0998 -2.3295  1.9166
   10DOPE   H3S 1199   2.168   0.043  16.176 -0.7692 -1.4000 -0.5065
   10DOPE   C24 1200   2.124   0.146  15.982 -0.0854 -0.0433 -0.3419
   10DOPE   H4R 1201   2.167   0.245  16.011 -1.9155  0.1380  2.0297
   10DOPE   H4S 1202   2.028   0.175  15.935  0.4272  1.4461 -0.5250
   10DOPE   C25 1203   2.224   0.067  15.892 -0.9472 -0.1634 -0.9150
   10DOPE   H5R 1204   2.177  -0.031  15.870  0.0743 -1.0196  0.5922
   10DOPE   H5S 1205   2.324   0.054  15.937  0.0702  0.5126 -2.8476
   10DOPE   C26 1206   2.259   0.139  15.758  0.4075 -0.0838  0.2203
   10DOPE   H6R 1207   2.314   0.234  15.774 -1.3656  1.4982 -2.3285
   10DOPE   H6S 1208   2.163   0.162  15.706 -0.1390  0.2109  1.3195
   10DOPE   C27 1209   2.351   0.049  15.671 -0.0873  0.3671 -0.1578
   10DOPE   H7R 1210   2.304  -0.048  15.647  2.0204 -0.4915 -0.9990
   10DOPE   H7S 1211   2.437   0.026  15.737  0.5114 -1.2079 -1.4310
   10DOPE   C28 1212   2.402   0.114  15.546  0.1816  0.0972 -0.5680
   10DOPE   H8R 1213   2.473   0.043  15.500 -1.5164 -0.5999 -2.2420
   10DOPE   H8S 1214   2.460   0.205  15.570  2.0737 -0.9286 -1.0523
   10DOPE   C29 1215   2.291   0.141  15.455  0.0099 -0.2039 -1.0301
   10DOPE   H9R 1216   2.206   0.185  15.508  0.5312 -0.2829 -0.0955
   10DOPE  C210 1217   2.275   0.091  15.327 -0.3621  0.1420 -0.5192
   10DOPE  H10R 1218   2.194   0.140  15.271 -0.5148  0.7050  0.1614
   10DOPE  C211 1219   2.373   0.016  15.240 -0.0932 -0.5586 -0.1552
   10DOPE  H11R 1220   2.322  -0.083  15.232  1.0871 -1.5821  3.1655
   10DOPE  H11S 1221   2.464   0.008  15.304  0.1723  0.8995 -0.3312
   10DOPE  C212 1222   2.409   0.073  15.099  0.0507  0.0822  0.3337
   10DOPE  H12R 1223   2.475   0.158  15.125  0.1591  0.5831 -1.4466
   10DOPE  H12S 1224   2.314   0.092  15.046  0.7953 -1.0212 -1.5004
   10DOPE  C213 1225   2.491  -0.029  15.026  0.4136  0.0076 -0.2560
   10DOPE  H13R 1226   2.438  -0.126  15.027  0.4752 -0.0258 -0.0025
   10DOPE  H13S 1227   2.584  -0.026  15.088  0.3501  2.8771 -0.1510
   10DOPE  C214 1228   2.519  -0.002  14.874 -0.0086  0.8625 -0.2488
   10DOPE  H14R 1229   2.558   0.102  14.871  2.0247  0.1956  1.2740
   10DOPE  H14S 1230   2.418  -0.011  14.829 -1.2970 -1.5668  2.7889
   10DOPE  C215 1231   2.616  -0.111  14.829 -0.3206 -0.5498  0.3808
   10DOPE  H15R 1232   2.572  -0.205  14.870 -2.2335  0.4294  0.6985
   10DOPE  H15S 1233   2.715  -0.095  14.876 -0.7263 -2.6630  2.0867
   10DOPE  C216 1234   2.622  -0.121  14.676 -0.4558 -0.0760 -0.4991
   10DOPE  H16R 1235   2.678  -0.034  14.636 -0.8752  0.3951 -0.0623
   10DOPE  H16S 1236   2.523  -0.111  14.626 -0.6999  0.0866  0.0097
   10DOPE  C217 1237   2.683  -0.250  14.633  0.3939  0.1881  0.1982
   10DOPE  H17R 1238   2.648  -0.332  14.700 -0.4754 -2.4555 -3.2283
   10DOPE  H17S 1239   2.793  -0.241  14.640  0.5081 -0.8905 -0.0272
   10DOPE  C218 1240   2.655  -0.298  14.490 -0.1480 -0.5150  0.2601
   10DOPE  H18R 1241   2.546  -0.322  14.486 -1.1041  3.0365  0.7392
   10DOPE  H18S 1242   2.702  -0.392  14.455 -3.2131 -1.1514 -2.7600
   10DOPE  H18T 1243   2.672  -0.214  14.419 -0.4385  0.5038  1.3550
   10DOPE   C33 1244   1.465  -0.357  16.074 -0.1452 -0.1711 -0.2799
   10DOPE   H3X 1245   1.391  -0.404  16.142  0.4314 -1.4418 -0.5048
   10DOPE   H3Y 1246   1.554  -0.421  16.095 -0.2241 -0.2342 -0.1331
   10DOPE   C34 1247   1.412  -0.380  15.928  0.2693 -0.4688 -0.5616
   10DOPE   H4X 1248   1.414  -0.491  15.918 -2.8423 -0.7924  1.3466
   10DOPE   H4Y 1249   1.309  -0.339  15.924  0.6120  0.7085  1.5318
   10DOPE   C35 1250   1.489  -0.307  15.817  0.4488  0.0986 -0.6148
   10DOPE   H5X 1251   1.595  -0.336  15.831  1.1757  3.2822  1.1898
   10DOPE   H5Y 1252   1.481  -0.197  15.826 -0.1962  0.0283 -0.2395
   10DOPE   C36 1253   1.450  -0.369  15.684  0.3205 -0.8973  0.2733
   10DOPE   H6X 1254   1.347  -0.353  15.647  0.3736 -0.2347  0.3966
   10DOPE   H6Y 1255   1.461  -0.480  15.684  2.1180 -0.8084  2.3632
   10DOPE   C37 1256   1.544  -0.319  15.580 -0.2935  0.4569  0.2817
   10DOPE   H7X 1257   1.542  -0.209  15.597 -1.8716  0.3404  0.9979
   10DOPE   H7Y 1258   1.649  -0.345  15.603 -0.0747 -0.3730 -1.4627
   10DOPE   C38 1259   1.533  -0.378  15.435 -0.1233  1.0956 -0.1388
   10DOPE   H8X 1260   1.535  -0.489  15.441 -0.1201  1.1497  1.0036
   10DOPE   H8Y 1261   1.633  -0.350  15.393  0.2700 -2.6248 -2.1365
   10DOPE   C39 1262   1.412  -0.339  15.359  0.2743  0.0262  0.2014
   10DOPE   H9X 1263   1.318  -0.369  15.408 -0.7759  0.8428 -1.2423
   10DOPE  C310 1264   1.405  -0.260  15.253 -1.1342 -1.1801 -0.4321
   10DOPE  H10X 1265   1.305  -0.242  15.209 -1.0043 -1.5922 -0.9021
   10DOPE  C311 1266   1.526  -0.216  15.181 -1.0041  0.6030 -0.2320
   10DOPE  H11X 1267   1.564  -0.122  15.228 -1.0668  0.3758  0.2784
   10DOPE  H11Y 1268   1.609  -0.289  15.190 -1.1620  0.5545  0.9446
   10DOPE  C312 1269   1.500  -0.178  15.032  0.0730 -0.4765 -0.9233
   10DOPE  H12X 1270   1.418  -0.105  15.018 -0.0412 -0.5301 -0.5593
   10DOPE  H12Y 1271   1.468  -0.269  14.976  0.3298 -1.5309  0.5654
   10DOPE  C313 1272   1.632  -0.142  14.963  0.0914  0.0462 -0.2095
   10DOPE  H13X 1273   1.669  -0.054  15.021 -2.1409 -0.1691  1.7014
   10DOPE  H13Y 1274   1.700  -0.230  14.964 -0.5029 -0.4193  1.2395
   10DOPE  C314 1275   1.607  -0.094  14.822  0.1884  0.2813  0.3968
   10DOPE  H14X 1276   1.559   0.005  14.824  1.6278  1.0153  0.1029
   10DOPE  H14Y 1277   1.538  -0.167  14.774 -0.9733  0.9005  1.0883
   10DOPE  C315 1278   1.736  -0.084  14.741 -0.2421 -0.1886 -0.6470
   10DOPE  H15X 1279   1.795  -0.178  14.749 -0.2398 -0.0209  3.7487
   10DOPE  H15Y 1280   1.798  -0.002  14.784 -0.8491 -0.1069  0.0906
   10DOPE  C316 1281   1.711  -0.031  14.599 -0.1477  0.2069  0.0626
   10DOPE  H16X 1282   1.802  -0.000  14.543 -1.1609  1.4267 -0.9774
   10DOPE  H16Y 1283   1.649   0.061  14.607  0.7610  1.0293 -1.6597
   10DOPE  C317 1284   1.615  -0.122  14.515  0.2842 -0.2112  0.5374
   10DOPE  H17X 1285   1.512  -0.118  14.554 -0.0136 -1.1958 -0.1035
   10DOPE  H17Y 1286   1.610  -0.094  14.408  1.2080 -2.3372 -0.1354
   10DOPE  C318 1287   1.655  -0.273  14.504  0.0986 -0.2429  0.0399
   10DOPE  H18X 1288   1.643  -0.322  14.603 -1.4992  0.6711  0.3424
   10DOPE  H18Y 1289   1.570  -0.317  14.447  0.6424  0.0764 -1.0380
   10DOPE  H18Z 1290   1.755  -0.285  14.458 -0.0797  1.0554 -0.7448
   11DOPE     N 1291   0.480   4.263  16.849 -0.1686  0.5106 -0.1639
   11DOPE   HN1 1292   0.558   4.216  16.800 -1.5303 -1.7289 -0.3085
   11DOPE   HN2 1293   0.497   4.366  16.855 -0.7640  0.5862  0.3904
   11DOPE   HN3 1294   0.471   4.220  16.943 -0.1929  2.3801  0.7523
   11DOPE   C12 1295   0.362   4.241  16.764 -0.6322 -0.4420  0.3571
   11DOPE  H12A 1296   0.289   4.317  16.799  0.7366  0.8252  0.5659
   11DOPE  H12B 1297   0.323   4.137  16.769  1.4210 -1.1851  2.9024
   11DOPE   C11 1298   0.400   4.279  16.619  0.6769 -0.6308  0.9284
   11DOPE  H11A 1299   0.308   4.297  16.559  1.8198 -0.9420 -1.0075
   11DOPE  H11B 1300   0.441   4.186  16.575 -1.2840 -2.0588  2.0107
   11DOPE     P 1301   0.467   4.507  16.515 -0.1792  0.2366 -0.2101
   11DOPE   O13 1302   0.585   4.598  16.528 -0.0364  0.1737  0.7382
   11DOPE   O14 1303   0.340   4.571  16.531  0.1007  0.2452  0.0913
   11DOPE   O11 1304   0.486   4.443  16.375 -0.3510 -0.1785 -0.0706
   11DOPE   O12 1305   0.491   4.393  16.614 -0.0235  0.3717  0.5417
   11DOPE    C1 1306   0.391   4.381  16.290 -0.4825  0.7186 -0.0792
   11DOPE    HA 1307   0.303   4.341  16.344 -1.1534 -1.0768 -2.3478
   11DOPE    HB 1308   0.436   4.288  16.247 -0.0157  0.3068  1.2657
   11DOPE    C2 1309   0.351   4.471  16.175  0.4218 -0.5241  0.3983
   11DOPE    HS 1310   0.267   4.541  16.196  1.0015  0.3475 -0.1349
   11DOPE   O21 1311   0.325   4.391  16.053 -0.2313  0.0085 -0.4578
   11DOPE   C21 1312   0.206   4.329  16.053  0.4649  0.2456  0.2414
   11DOPE   O22 1313   0.117   4.346  16.130  0.3457  0.0538  0.2532
   11DOPE   C22 1314   0.199   4.235  15.928 -0.3426  0.2235  0.1627
   11DOPE   H2R 1315   0.212   4.130  15.963 -0.2076  0.0022 -0.5289
   11DOPE   H2S 1316   0.287   4.265  15.868 -0.3867  0.0416  0.0037
   11DOPE    C3 1317   0.466   4.574  16.139  0.0871  0.4075 -0.2382
   11DOPE    HX 1318   0.568   4.533  16.156  2.0247  4.5707 -0.7248
   11DOPE    HY 1319   0.455   4.661  16.208  0.9033  1.0392 -0.8841
   11DOPE   O31 1320   0.459   4.609  16.004  0.0367 -0.3238  0.2889
   11DOPE   C31 1321   0.355   4.681  15.965  0.0417 -0.6721  0.1647
   11DOPE   O32 1322   0.268   4.728  16.036  0.3747  0.0620 -0.2240
   11DOPE   C32 1323   0.352   4.691  15.819  0.3834 -0.1980  0.0415
   11DOPE   H2X 1324   0.406   4.782  15.785  0.9570 -0.3998  0.4066
   11DOPE   H2Y 1325   0.398   4.604  15.766 -2.1907  0.2108 -3.1742
   11DOPE   C23 1326   0.071   4.237  15.842 -0.6692  0.9959 -0.2371
   11DOPE   H3R 1327   0.035   4.341  15.827 -0.4439  1.0420 -0.4644
   11DOPE   H3S 1328  -0.003   4.173  15.896 -0.4047 -0.5284 -1.6124
   11DOPE   C24 1329   0.097   4.167  15.705  0.3425 -0.3390 -0.2457
   11DOPE   H4R 1330   0.137   4.064  15.717  0.6853 -0.5391 -2.6188
   11DOPE   H4S 1331   0.173   4.222  15.646 -0.1111 -0.7479 -1.2417
   11DOPE   C25 1332  -0.029   4.165  15.623 -0.0323 -0.2593 -0.4141
   11DOPE   H5R 1333  -0.062   4.271  15.610  0.1635 -0.2536 -0.8821
   11DOPE   H5S 1334  -0.097   4.114  15.694  1.5046  1.5765  2.5838
   11DOPE   C26 1335  -0.018   4.094  15.490 -0.0479 -0.1868  0.0939
   11DOPE   H6R 1336   0.045   4.004  15.498 -1.7596 -1.4583 -0.1004
   11DOPE   H6S 1337   0.025   4.165  15.416  0.6355 -0.5989  0.0960
   11DOPE   C27 1338  -0.155   4.058  15.437  0.2644 -0.0891  0.3826
   11DOPE   H7R 1339  -0.235   4.127  15.474 -0.1815  0.2089 -1.0811
   11DOPE   H7S 1340  -0.188   3.966  15.490 -2.1728 -0.0062 -0.8618
   11DOPE   C28 1341  -0.164   4.047  15.280 -0.2307 -0.8239 -0.2318
   11DOPE   H8R 1342  -0.152   4.144  15.227 -2.4513 -0.5879 -0.4124
   11DOPE   H8S 1343  -0.271   4.027  15.255 -1.3717  1.7867  2.0238
   11DOPE   C29 1344  -0.069   3.942  15.237 -0.3172 -0.1375  0.3668
   11DOPE   H9R 1345  -0.031   3.877  15.317 -3.3541 -2.7923 -0.1337
   11DOPE  C210 1346  -0.039   3.914  15.109 -0.0592  0.2628 -0.3269
   11DOPE  H10R 1347   0.034   3.836  15.085 -0.7347 -0.1468 -1.1005
   11DOPE  C211 1348  -0.097   3.975  14.983  0.4130 -0.1117 -0.0113
   11DOPE  H11R 1349  -0.158   4.062  15.014  2.5771  0.1876  4.0419
   11DOPE  H11S 1350  -0.161   3.902  14.930 -0.6907  0.9519 -0.1969
   11DOPE  C212 1351   0.005   4.005  14.885  0.3677 -0.0643 -0.3632
   11DOPE  H12R 1352   0.075   4.086  14.916  2.5800 -1.3680 -1.6653
   11DOPE  H12S 1353  -0.042   4.041  14.791 -0.5500  0.2876  0.2184
   11DOPE  C213 1354   0.089   3.886  14.842 -0.9271 -0.0381  0.0024
   11DOPE  H13R 1355   0.022   3.802  14.813 -2.9679  1.2810  0.6532
   11DOPE  H13S 1356   0.157   3.855  14.924 -1.0912 -1.5544 -0.4083
   11DOPE  C214 1357   0.183   3.934  14.728 -0.0363 -0.5887 -0.0620
   11DOPE  H14R 1358   0.269   3.991  14.768 -1.4104  0.9996  0.7238
   11DOPE  H14S 1359   0.132   3.992  14.649 -0.0930 -1.2476 -0.5201
   11DOPE  C215 1360   0.226   3.813  14.642  0.2684 -0.5785  0.0959
   11DOPE  H15R 1361   0.141   3.750  14.610 -0.7991  0.4232  0.8851
   11DOPE  H15S 1362   0.301   3.751  14.695 -1.1451 -0.9143  1.7959
   11DOPE  C216 1363   0.290   3.857  14.514  0.6665 -0.4751 -0.3603
   11DOPE  H16R 1364   0.363   3.941  14.518 -0.4609  0.6040 -1.5063
   11DOPE  H16S 1365   0.202   3.891  14.455 -0.5524 -1.6145  0.7148
   11DOPE  C217 1366   0.349   3.734  14.447 -0.1551 -0.1239  0.2242
   11DOPE  H17R 1367   0.272   3.662  14.412 -1.4226  0.1733  2.2619
   11DOPE  H17S 1368   0.427   3.681  14.505 -1.1792 -2.2844 -0.2527
   11DOPE  C218 1369   0.408   3.778  14.309  0.3446  0.5086  0.2850
   11DOPE  H18R 1370   0.332   3.827  14.245  1.6236  0.2835 -1.4711
   11DOPE  H18S 1371   0.446   3.689  14.254 -1.6731 -0.0608 -0.2692
   11DOPE  H18T 1372   0.486   3.854  14.330  0.7821 -0.2592  1.5511
   11DOPE   C33 1373   0.218   4.693  15.753 -0.5395 -0.0842 -0.3571
   11DOPE   H3X 1374   0.164   4.787  15.773  1.3263  1.4668 -2.1573
   11DOPE   H3Y 1375   0.158   4.610  15.797  3.0685 -2.3051  0.8499
   11DOPE   C34 1376   0.218   4.675  15.605  0.3540  0.0702 -0.3139
   11DOPE   H4X 1377   0.118   4.708  15.570  0.3501  1.9556  1.2652
   11DOPE   H4Y 1378   0.297   4.735  15.554 -2.5322  0.1206 -5.2719
   11DOPE   C35 1379   0.240   4.527  15.574  0.3772  0.2590 -0.0396
   11DOPE   H5X 1380   0.170   4.458  15.626  1.9691 -0.3591  1.3796
   11DOPE   H5Y 1381   0.343   4.501  15.605  0.2336  0.4512  0.6360
   11DOPE   C36 1382   0.221   4.499  15.428  0.2782 -0.0889  0.2108
   11DOPE   H6X 1383   0.295   4.567  15.381 -0.1187  1.2251  1.4204
   11DOPE   H6Y 1384   0.121   4.542  15.404 -0.4627 -1.8247  0.0248
   11DOPE   C37 1385   0.231   4.356  15.379 -0.4932  1.0689 -0.0194
   11DOPE   H7X 1386   0.341   4.339  15.373 -0.5928  0.7738 -4.7092
   11DOPE   H7Y 1387   0.191   4.281  15.450 -1.6998  0.9597 -0.7932
   11DOPE   C38 1388   0.186   4.334  15.239 -0.0833  0.1417  0.1122
   11DOPE   H8X 1389   0.076   4.340  15.233 -0.2396 -0.6124  1.8484
   11DOPE   H8Y 1390   0.205   4.229  15.208 -1.7860 -0.8934  2.2930
   11DOPE   C39 1391   0.244   4.438  15.136 -0.2374 -0.4462 -0.5880
   11DOPE   H9X 1392   0.218   4.544  15.149 -0.0056 -0.4872  0.2366
   11DOPE  C310 1393   0.345   4.420  15.049  0.0185 -0.5759  0.1487
   11DOPE  H10X 1394   0.375   4.511  14.995 -0.5996  0.9707  2.2600
   11DOPE  C311 1395   0.424   4.297  15.018 -0.0814  0.4946  0.0486
   11DOPE  H11X 1396   0.533   4.316  15.021 -0.0561  1.1669 -2.4011
   11DOPE  H11Y 1397   0.395   4.218  15.090  1.9023  2.3098  3.0836
   11DOPE  C312 1398   0.391   4.238  14.883  0.0506  0.1166 -0.3212
   11DOPE  H12X 1399   0.288   4.197  14.879  0.1633 -0.1610 -0.3510
   11DOPE  H12Y 1400   0.469   4.161  14.868 -0.8627 -0.5256 -2.2042
   11DOPE  C313 1401   0.414   4.329  14.760  0.4450  0.3477 -0.1721
   11DOPE  H13X 1402   0.371   4.431  14.772 -0.7776 -0.3699  2.1764
   11DOPE  H13Y 1403   0.525   4.338  14.756  0.6379 -1.1420  0.8929
   11DOPE  C314 1404   0.371   4.279  14.619 -0.5387  0.6798  0.0032
   11DOPE  H14X 1405   0.261   4.290  14.629 -0.1365  3.9168  3.0489
   11DOPE  H14Y 1406   0.400   4.175  14.595  0.0587  0.9913 -0.6704
   11DOPE  C315 1407   0.422   4.374  14.507 -0.0335  0.0617 -0.0513
   11DOPE  H15X 1408   0.532   4.379  14.515  0.1083 -0.3524 -1.4585
   11DOPE  H15Y 1409   0.390   4.477  14.534  0.1314  0.5791 -1.6935
   11DOPE  C316 1410   0.393   4.350  14.356 -0.3880  0.0494  0.3890
   11DOPE  H16X 1411   0.460   4.412  14.292 -0.5215 -0.9632 -0.7744
   11DOPE  H16Y 1412   0.286   4.368  14.333 -0.4413  0.3922  0.9064
   11DOPE  C317 1413   0.426   4.204  14.306  0.0282  0.5480  0.7385
   11DOPE  H17X 1414   0.535   4.190  14.321 -0.0007 -2.1546 -0.8749
   11DOPE  H17Y 1415   0.365   4.138  14.371 -0.6677 -0.6169 -1.0124
   11DOPE  C318 1416   0.391   4.156  14.160  0.6601 -0.3489  0.0367
   11DOPE  H18X 1417   0.442   4.216  14.081 -2.4207  0.8672 -1.1589
   11DOPE  H18Y 1418   0.411   4.048  14.141 -1.6013 -0.8554  0.2505
   11DOPE  H18Z 1419   0.283   4.175  14.147  0.8647  0.7679 -0.1087
   12DOPE     N 1420   2.724   0.300  16.744 -0.4690 -0.2495 -0.3986
   12DOPE   HN1 1421   2.626   0.325  16.768 -0.0451  0.6715  0.4485
   12DOPE   HN2 1422   2.767   0.358  16.669 -0.4003 -1.3530 -1.2528
   12DOPE   HN3 1423   2.719   0.204  16.703 -0.2401 -0.9543  1.1666
   12DOPE   C12 1424   2.824   0.291  16.857  1.4143 -0.3815 -0.2708
   12DOPE  H12A 1425   2.777   0.232  16.938  1.1142 -1.5118 -1.2384
   12DOPE  H12B 1426   2.842   0.398  16.883 -2.5618  0.3654  0.0708
   12DOPE   C11 1427   2.956   0.231  16.815 -0.9527  0.1667 -0.2818
   12DOPE  H11A 1428   3.026   0.213  16.900  1.6685 -1.6427 -2.6390
   12DOPE  H11B 1429   2.999   0.312  16.753  2.0508 -0.7439  0.3908
   12DOPE     P 1430   2.909  -0.036  16.799 -0.2998 -0.1128  0.0679
   12DOPE   O13 1431   2.830  -0.035  16.922  0.5964  0.2167 -0.4910
   12DOPE   O14 1432   3.035  -0.112  16.801 -0.2298  0.2283 -0.2343
   12DOPE   O11 1433   2.813  -0.091  16.685 -0.2216 -0.1659  0.3333
   12DOPE   O12 1434   2.923   0.110  16.738 -0.0883 -0.0485  0.2580
   12DOPE    C1 1435   2.798  -0.231  16.675 -0.2204 -0.1476  0.2606
   12DOPE    HA 1436   2.746  -0.258  16.770  2.3181 -0.5073  1.6337
   12DOPE    HB 1437   2.892  -0.290  16.664 -0.2864  0.0228 -1.3101
   12DOPE    C2 1438   2.717  -0.273  16.553 -0.2360  0.0255 -0.0307
   12DOPE    HS 1439   2.770  -0.359  16.507  1.5857  0.8696  0.3845
   12DOPE   O21 1440   2.717  -0.168  16.453  0.1710  0.5137  0.3943
   12DOPE   C21 1441   2.829  -0.147  16.392 -0.3675  0.5396 -0.1946
   12DOPE   O22 1442   2.928  -0.221  16.389  0.2403 -0.0223 -0.1438
   12DOPE   C22 1443   2.806  -0.015  16.302  0.0970 -0.5625  0.5005
   12DOPE   H2R 1444   2.889  -0.013  16.228  1.1150  1.4209  1.6031
   12DOPE   H2S 1445   2.820   0.078  16.361  0.0883  1.3516 -2.3215
   12DOPE    C3 1446   2.569  -0.308  16.586 -0.8524  0.4847 -0.2586
   12DOPE    HX 1447   2.536  -0.210  16.626 -1.6061  0.4389 -0.7539
   12DOPE    HY 1448   2.569  -0.389  16.662  2.1861  1.3472  0.8029
   12DOPE   O31 1449   2.501  -0.353  16.474  0.7821  0.3196 -0.4634
   12DOPE   C31 1450   2.384  -0.297  16.456 -0.2783  0.3321 -0.4871
   12DOPE   O32 1451   2.338  -0.203  16.516 -1.0268  0.2140 -0.2729
   12DOPE   C32 1452   2.314  -0.355  16.330  0.2171 -0.6293  0.5916
   12DOPE   H2X 1453   2.316  -0.465  16.342 -0.8322 -0.9902 -1.9360
   12DOPE   H2Y 1454   2.206  -0.330  16.328  0.2792 -0.3798 -0.2080
   12DOPE   C23 1455   2.672  -0.012  16.228  0.1984 -0.6001  0.0994
   12DOPE   H3R 1456   2.660   0.093  16.196 -1.2769 -1.0478 -0.9096
   12DOPE   H3S 1457   2.582  -0.038  16.288 -0.7650 -1.4205 -1.6243
   12DOPE   C24 1458   2.670  -0.094  16.102  0.0115 -0.4250  0.0772
   12DOPE   H4R 1459   2.565  -0.097  16.068 -0.6548  0.5927  1.9135
   12DOPE   H4S 1460   2.703  -0.200  16.110  2.9938  0.1438 -2.3730
   12DOPE   C25 1461   2.744  -0.013  15.995 -0.6170 -0.1159  0.0230
   12DOPE   H5R 1462   2.847   0.012  16.028  0.0106  0.0774 -1.9706
   12DOPE   H5S 1463   2.695   0.085  15.975  0.7330  0.1055 -2.5891
   12DOPE   C26 1464   2.760  -0.097  15.870  0.0326  0.4812 -0.0635
   12DOPE   H6R 1465   2.661  -0.135  15.837  0.7319 -0.7401 -0.8217
   12DOPE   H6S 1466   2.817  -0.190  15.891 -1.6550 -0.4087  0.8532
   12DOPE   C27 1467   2.828  -0.025  15.756  0.8131  0.0242 -0.0164
   12DOPE   H7R 1468   2.908   0.045  15.788 -0.1949  0.9364  0.6115
   12DOPE   H7S 1469   2.752   0.045  15.713  0.0931 -0.3603  0.6167
   12DOPE   C28 1470   2.884  -0.134  15.659 -0.1556 -0.5393  0.1021
   12DOPE   H8R 1471   2.967  -0.185  15.713  2.8063  2.2185 -1.5278
   12DOPE   H8S 1472   2.935  -0.078  15.578 -2.1944  0.5855 -0.4623
   12DOPE   C29 1473   2.774  -0.219  15.591 -0.1267  0.4573 -0.2629
   12DOPE   H9R 1474   2.734  -0.294  15.660 -0.6742  1.3341  0.3960
   12DOPE  C210 1475   2.719  -0.201  15.463  0.0882 -0.1295  0.5565
   12DOPE  H10R 1476   2.638  -0.270  15.436  0.3888 -1.0826  1.9417
   12DOPE  C211 1477   2.759  -0.104  15.358 -0.3453 -0.2580 -0.0315
   12DOPE  H11R 1478   2.829  -0.036  15.410  0.2295 -0.9230  0.0867
   12DOPE  H11S 1479   2.676  -0.043  15.316  0.4202 -0.1749 -1.4932
   12DOPE  C212 1480   2.836  -0.168  15.235 -0.3875  0.3651  0.4607
   12DOPE  H12R 1481   2.934  -0.203  15.275 -0.4675 -1.6236 -0.9408
   12DOPE  H12S 1482   2.847  -0.084  15.163 -0.4652 -0.3199 -0.3670
   12DOPE  C213 1483   2.761  -0.282  15.172  0.4142 -0.4385 -0.4327
   12DOPE  H13R 1484   2.658  -0.243  15.161  0.5371  0.7761  1.9757
   12DOPE  H13S 1485   2.761  -0.364  15.247  2.1597  0.6254  0.8220
   12DOPE  C214 1486   2.832  -0.344  15.051  0.0713 -0.7213 -0.0283
   12DOPE  H14R 1487   2.941  -0.336  15.068  0.3908 -1.5362 -1.5257
   12DOPE  H14S 1488   2.816  -0.286  14.958 -2.0236  3.3041  2.5479
   12DOPE  C215 1489   2.798  -0.495  15.033 -0.0228  0.0496  0.2968
   12DOPE  H15R 1490   2.816  -0.541  15.133 -0.9455 -0.2349  0.3433
   12DOPE  H15S 1491   2.869  -0.537  14.959 -0.4987  5.0524 -3.5524
   12DOPE  C216 1492   2.646  -0.516  14.998  0.1426 -0.3815 -0.5079
   12DOPE  H16R 1493   2.614  -0.461  14.908 -0.5179  0.9684  0.5157
   12DOPE  H16S 1494   2.576  -0.480  15.076 -0.5391 -1.4817 -0.5829
   12DOPE  C217 1495   2.614  -0.665  14.987  0.4001  0.6261 -0.0197
   12DOPE  H17R 1496   2.635  -0.717  15.083 -0.0398 -0.6609 -0.6007
   12DOPE  H17S 1497   2.664  -0.723  14.907  0.9032 -0.7050  1.2344
   12DOPE  C218 1498   2.469  -0.686  14.954  0.3120  0.0254  0.3810
   12DOPE  H18R 1499   2.459  -0.684  14.843  1.5519  0.0100  0.2504
   12DOPE  H18S 1500   2.395  -0.621  15.005 -1.8434 -1.1651 -1.0737
   12DOPE  H18T 1501   2.438  -0.785  14.994  0.3963 -0.6832 -1.2071
   12DOPE   C33 1502   2.392  -0.324  16.200 -0.2632 -0.2149 -0.1295
   12DOPE   H3X 1503   2.470  -0.402  16.211 -2.4634 -2.3937  1.0960
   12DOPE   H3Y 1504   2.441  -0.226  16.182  1.1014 -1.0966 -1.4851
   12DOPE   C34 1505   2.309  -0.348  16.074 -0.0212  0.2173 -0.4024
   12DOPE   H4X 1506   2.245  -0.439  16.071 -0.6258  0.6298 -0.1216
   12DOPE   H4Y 1507   2.239  -0.264  16.055 -0.1002  0.0062 -1.1010
   12DOPE   C35 1508   2.396  -0.370  15.944 -0.2388 -0.6649 -0.2746
   12DOPE   H5X 1509   2.444  -0.469  15.954 -0.1906 -0.4446  2.1765
   12DOPE   H5Y 1510   2.483  -0.301  15.938 -0.2942 -0.6537 -1.0505
   12DOPE   C36 1511   2.304  -0.369  15.827  0.5259 -0.7222  0.7920
   12DOPE   H6X 1512   2.236  -0.281  15.839  1.5077  0.6147 -2.5028
   12DOPE   H6Y 1513   2.245  -0.463  15.837  1.0204 -1.1840 -0.4534
   12DOPE   C37 1514   2.373  -0.353  15.693 -0.1413 -0.2382 -0.3169
   12DOPE   H7X 1515   2.420  -0.252  15.692 -1.3905  0.3552 -0.4265
   12DOPE   H7Y 1516   2.457  -0.425  15.704  0.0608  0.2528  1.8247
   12DOPE   C38 1517   2.290  -0.382  15.564 -0.2711  0.1394 -0.4296
   12DOPE   H8X 1518   2.190  -0.335  15.576 -0.9633 -1.9169  3.2667
   12DOPE   H8Y 1519   2.267  -0.491  15.560 -1.1867  0.3494 -1.3996
   12DOPE   C39 1520   2.354  -0.333  15.431 -0.1901  0.0939  0.0947
   12DOPE   H9X 1521   2.364  -0.224  15.422  1.8219 -0.0929 -0.4199
   12DOPE  C310 1522   2.400  -0.416  15.331 -0.2128  0.2324 -0.1192
   12DOPE  H10X 1523   2.440  -0.366  15.242 -0.6434 -0.9991 -1.0274
   12DOPE  C311 1524   2.400  -0.568  15.326  0.4888 -0.5165 -0.3321
   12DOPE  H11X 1525   2.317  -0.608  15.387 -0.3304 -0.0185 -1.1044
   12DOPE  H11Y 1526   2.384  -0.610  15.224 -0.8276  0.8262 -0.7048
   12DOPE  C312 1527   2.534  -0.624  15.376  0.4821 -0.2572 -0.0520
   12DOPE  H12X 1528   2.541  -0.584  15.480 -0.6835  0.7184 -0.3265
   12DOPE  H12Y 1529   2.623  -0.590  15.318  0.2697 -0.1505 -0.3136
   12DOPE  C313 1530   2.540  -0.779  15.373  0.5488 -0.1185 -0.0672
   12DOPE  H13X 1531   2.498  -0.820  15.279 -2.2002  0.0462  1.0002
   12DOPE  H13Y 1532   2.645  -0.806  15.396  0.6043  1.3234  1.6013
   12DOPE  C314 1533   2.458  -0.838  15.492  0.2238 -0.3536  0.0611
   12DOPE  H14X 1534   2.448  -0.947  15.470 -0.1427  0.0266 -1.8145
   12DOPE  H14Y 1535   2.355  -0.796  15.493 -0.1786 -1.1252 -2.1992
   12DOPE  C315 1536   2.515  -0.809  15.635  0.2921 -0.3848 -0.0540
   12DOPE  H15X 1537   2.495  -0.701  15.654  0.4052 -0.5476  1.0469
   12DOPE  H15Y 1538   2.624  -0.825  15.627 -0.0120 -1.6258 -2.9797
   12DOPE  C316 1539   2.444  -0.883  15.748  0.6590 -0.0983  0.4337
   12DOPE  H16X 1540   2.483  -0.987  15.746 -1.2029 -0.9423 -4.1891
   12DOPE  H16Y 1541   2.334  -0.877  15.735  0.7131  2.1184  0.5353
   12DOPE  C317 1542   2.480  -0.807  15.884  0.1128  0.1057  0.1370
   12DOPE  H17X 1543   2.570  -0.860  15.923  0.9672  0.6052 -1.0875
   12DOPE  H17Y 1544   2.499  -0.701  15.859  2.1342 -0.2919 -0.1472
   12DOPE  C318 1545   2.367  -0.802  15.983  0.3379 -0.4362 -0.5557
   12DOPE  H18X 1546   2.306  -0.715  15.951  2.2776  0.5204 -1.8260
   12DOPE  H18Y 1547   2.309  -0.897  15.983 -1.0939  0.3918 -1.1250
   12DOPE  H18Z 1548   2.399  -0.782  16.087  0.2376  1.4324 -0.8360
   13DOPE     N 1549   1.560   3.064  17.081 -0.1987  0.1237  0.0485
   13DOPE   HN1 1550   1.558   3.161  17.044 -2.0525  0.3052  0.4916
   13DOPE   HN2 1551   1.464   3.038  17.051 -1.3357  1.0740  2.5792
   13DOPE   HN3 1552   1.568   3.069  17.184  0.4939  2.1715 -0.0633
   13DOPE   C12 1553   1.667   2.972  17.024  0.1689 -0.4284 -0.2211
   13DOPE  H12A 1554   1.658   2.872  17.072 -0.6373 -0.8566 -1.2086
   13DOPE  H12B 1555   1.767   3.014  17.050 -0.9282  2.0083  0.3223
   13DOPE   C11 1556   1.647   2.944  16.876  0.5802 -0.5809  0.1975
   13DOPE  H11A 1557   1.724   2.872  16.843  4.0961  1.3794  3.3221
   13DOPE  H11B 1558   1.669   3.034  16.815 -1.5607 -1.0185 -1.3256
   13DOPE     P 1559   1.457   2.757  16.868 -0.3489  0.0470  0.1329
   13DOPE   O13 1560   1.316   2.772  16.898 -0.4588  0.7187  0.1014
   13DOPE   O14 1561   1.547   2.694  16.966 -0.0235 -0.1199 -0.1593
   13DOPE   O11 1562   1.477   2.687  16.727 -0.3944 -0.8878 -0.0415
   13DOPE   O12 1563   1.509   2.912  16.850 -0.0066  0.2540  0.4255
   13DOPE    C1 1564   1.471   2.757  16.604 -0.2023  0.0365 -0.2242
   13DOPE    HA 1565   1.525   2.703  16.524  1.3692  2.5938 -1.0098
   13DOPE    HB 1566   1.515   2.859  16.606  0.4880 -0.2569 -0.2469
   13DOPE    C2 1567   1.324   2.777  16.561 -0.0573  0.1163  0.6024
   13DOPE    HS 1568   1.289   2.838  16.647  2.2947  0.2749  1.5295
   13DOPE   O21 1569   1.254   2.648  16.553 -0.7674  0.2100  0.0101
   13DOPE   C21 1570   1.122   2.660  16.547  0.2784  0.4392 -0.4856
   13DOPE   O22 1571   1.061   2.764  16.568  0.2992  0.1007 -0.1354
   13DOPE   C22 1572   1.065   2.524  16.498  0.0896 -0.4185  0.1735
   13DOPE   H2R 1573   1.028   2.474  16.591 -1.3596 -0.2958 -0.3134
   13DOPE   H2S 1574   1.150   2.461  16.462 -0.7810  0.1589 -3.1989
   13DOPE    C3 1575   1.313   2.871  16.436 -0.1898  0.4195 -0.3319
   13DOPE    HX 1576   1.368   2.965  16.457 -1.5033  1.3819 -1.0741
   13DOPE    HY 1577   1.204   2.891  16.432  0.0902  2.8233  1.7516
   13DOPE   O31 1578   1.347   2.811  16.311  0.0252  0.6039 -0.1738
   13DOPE   C31 1579   1.476   2.838  16.275 -0.2981  0.2258  0.0831
   13DOPE   O32 1580   1.562   2.889  16.344  0.4324 -0.6349  0.3234
   13DOPE   C32 1581   1.503   2.789  16.138 -0.3739  0.1178 -0.2930
   13DOPE   H2X 1582   1.519   2.679  16.135 -0.4208  0.1060 -0.1226
   13DOPE   H2Y 1583   1.413   2.823  16.080  0.0260 -0.3776 -1.2303
   13DOPE   C23 1584   0.949   2.526  16.399 -0.1370 -0.0508 -0.3331
   13DOPE   H3R 1585   0.886   2.611  16.434  0.4085 -0.4818  1.8367
   13DOPE   H3S 1586   0.893   2.434  16.425 -0.8898  0.4822 -0.0316
   13DOPE   C24 1587   0.991   2.534  16.255  0.0444  0.1074  0.3734
   13DOPE   H4R 1588   0.920   2.476  16.193 -0.6518  1.1526  0.1705
   13DOPE   H4S 1589   1.092   2.488  16.249  0.2075  0.4262  0.6295
   13DOPE   C25 1590   1.010   2.678  16.211 -0.5009  1.1522  0.5483
   13DOPE   H5R 1591   1.088   2.726  16.275  1.3016 -0.0814 -0.6237
   13DOPE   H5S 1592   0.906   2.716  16.224 -1.2765 -0.3773 -0.8519
   13DOPE   C26 1593   1.060   2.680  16.071  0.2009 -0.3051 -0.7315
   13DOPE   H6R 1594   1.091   2.784  16.048  2.8622 -1.0176 -0.6398
   13DOPE   H6S 1595   0.977   2.649  16.003 -0.9489  1.1442 -0.0481
   13DOPE   C27 1596   1.188   2.600  16.040 -0.4597 -0.1624 -0.3167
   13DOPE   H7R 1597   1.177   2.490  16.039  3.7903 -0.7729 -1.6053
   13DOPE   H7S 1598   1.257   2.610  16.127  0.9279  1.0554 -1.4900
   13DOPE   C28 1599   1.252   2.652  15.908 -0.2295  1.0261  0.3368
   13DOPE   H8R 1600   1.349   2.598  15.904 -0.6275  0.2804  0.6149
   13DOPE   H8S 1601   1.277   2.760  15.919  0.1319  1.2550 -2.1420
   13DOPE   C29 1602   1.170   2.624  15.781 -0.5443  0.0252  0.2538
   13DOPE   H9R 1603   1.061   2.631  15.791 -0.7347 -0.5673 -1.1558
   13DOPE  C210 1604   1.231   2.593  15.661 -0.2809 -0.0580 -0.3918
   13DOPE  H10R 1605   1.167   2.567  15.576  1.2427 -0.5518 -1.4284
   13DOPE  C211 1606   1.374   2.583  15.630 -0.7920  0.0458  0.7800
   13DOPE  H11R 1607   1.431   2.574  15.726  1.1960  3.4878  0.0877
   13DOPE  H11S 1608   1.420   2.675  15.587  1.7371 -0.3226  2.4459
   13DOPE  C212 1609   1.414   2.475  15.524  0.2273 -0.2174 -0.0042
   13DOPE  H12R 1610   1.383   2.377  15.566 -0.9086  0.4704  0.8334
   13DOPE  H12S 1611   1.525   2.482  15.516  0.4161 -1.7856  0.9254
   13DOPE  C213 1612   1.347   2.497  15.386  0.2024 -0.0428  0.1922
   13DOPE  H13R 1613   1.237   2.485  15.393  0.3602 -0.9353  1.7243
   13DOPE  H13S 1614   1.379   2.416  15.317 -0.3711 -0.4241  0.3661
   13DOPE  C214 1615   1.382   2.632  15.312 -0.8704  0.5464 -0.4076
   13DOPE  H14R 1616   1.490   2.651  15.323 -0.8026 -0.9598  3.1712
   13DOPE  H14S 1617   1.332   2.718  15.361 -0.7761 -0.3639  1.4034
   13DOPE  C215 1618   1.332   2.623  15.168 -0.8412 -0.2194  0.1975
   13DOPE  H15R 1619   1.327   2.720  15.113 -1.6497 -0.5372 -0.3199
   13DOPE  H15S 1620   1.227   2.587  15.181  0.0570 -2.3123  2.1538
   13DOPE  C216 1621   1.406   2.525  15.072 -0.8294 -0.4864 -0.6594
   13DOPE  H16R 1622   1.376   2.419  15.085  1.8783 -1.2016  0.6902
   13DOPE  H16S 1623   1.515   2.530  15.097 -1.1192  0.2251  0.5363
   13DOPE  C217 1624   1.375   2.567  14.930 -1.1559 -0.2174  0.2479
   13DOPE  H17R 1625   1.439   2.510  14.859  0.7623  0.3696  1.4318
   13DOPE  H17S 1626   1.393   2.676  14.922 -2.9237 -0.0379 -2.7350
   13DOPE  C218 1627   1.226   2.546  14.897  0.3176 -0.7565  0.3728
   13DOPE  H18R 1628   1.167   2.632  14.933 -0.1535 -0.9768  0.1320
   13DOPE  H18S 1629   1.194   2.447  14.936  1.6670 -0.9157  1.1573
   13DOPE  H18T 1630   1.224   2.543  14.786 -0.4698  1.0352  0.3206
   13DOPE   C33 1631   1.631   2.861  16.083  0.0798 -0.6932 -0.5719
   13DOPE   H3X 1632   1.720   2.846  16.147  2.4209  0.7990 -3.2237
   13DOPE   H3Y 1633   1.615   2.970  16.077  0.9233 -0.4227  1.3199
   13DOPE   C34 1634   1.674   2.812  15.945 -0.0984  0.0690 -0.0652
   13DOPE   H4X 1635   1.776   2.769  15.939 -0.3081 -0.5198  0.4497
   13DOPE   H4Y 1636   1.609   2.725  15.922 -1.8267  0.3318  3.1788
   13DOPE   C35 1637   1.656   2.916  15.829  0.3941 -0.9626 -0.2649
   13DOPE   H5X 1638   1.704   3.010  15.866 -1.1714 -0.1777 -0.1100
   13DOPE   H5Y 1639   1.545   2.923  15.830  0.2759 -2.2489 -1.6292
   13DOPE   C36 1640   1.708   2.866  15.698 -0.0612  0.3650 -0.2402
   13DOPE   H6X 1641   1.650   2.782  15.655  0.5806 -0.4229  0.3998
   13DOPE   H6Y 1642   1.815   2.838  15.702  0.0407  0.8117  0.4858
   13DOPE   C37 1643   1.696   2.982  15.594 -0.5580  0.2908 -0.3881
   13DOPE   H7X 1644   1.600   3.031  15.619 -0.2896  0.6231  0.0055
   13DOPE   H7Y 1645   1.782   3.052  15.601  0.1158 -0.4774 -0.7763
   13DOPE   C38 1646   1.701   2.919  15.456 -0.6939  0.2098  0.5229
   13DOPE   H8X 1647   1.617   2.849  15.440 -0.7579  0.7151 -1.7022
   13DOPE   H8Y 1648   1.789   2.852  15.445  0.5376  1.8687 -0.4244
   13DOPE   C39 1649   1.715   3.023  15.347  0.4939  0.3813  0.3341
   13DOPE   H9X 1650   1.763   3.114  15.384 -0.4393  1.0439 -0.0622
   13DOPE  C310 1651   1.689   3.008  15.214 -0.3753 -0.4942  0.1366
   13DOPE  H10X 1652   1.691   3.100  15.153  0.1075 -0.9561 -0.5481
   13DOPE  C311 1653   1.610   2.895  15.159  0.4835 -0.3396  0.1783
   13DOPE  H11X 1654   1.580   2.818  15.233 -1.0145  1.4151  1.4867
   13DOPE  H11Y 1655   1.511   2.920  15.115 -0.5639 -2.5605  1.1335
   13DOPE  C312 1656   1.697   2.817  15.056 -0.2619 -0.3119 -0.9908
   13DOPE  H12X 1657   1.682   2.708  15.072  2.2602 -0.8123 -1.6430
   13DOPE  H12Y 1658   1.806   2.839  15.059 -0.5100  0.9282 -0.6314
   13DOPE  C313 1659   1.646   2.862  14.920 -1.0520  0.3555 -0.2435
   13DOPE  H13X 1660   1.535   2.864  14.920 -1.1129 -1.0126  1.2891
   13DOPE  H13Y 1661   1.687   2.965  14.910 -0.1636 -0.1040 -1.7038
   13DOPE  C314 1662   1.713   2.783  14.803  0.0316 -0.4249  0.2311
   13DOPE  H14X 1663   1.679   2.678  14.793 -0.8589  0.0475 -2.2720
   13DOPE  H14Y 1664   1.824   2.783  14.813  0.0264  1.0196  0.5241
   13DOPE  C315 1665   1.699   2.854  14.658  0.6658 -0.7127 -1.3511
   13DOPE  H15X 1666   1.765   2.942  14.674  1.1922 -1.4698  1.0678
   13DOPE  H15Y 1667   1.596   2.892  14.641  1.0787  0.1873 -1.9267
   13DOPE  C316 1668   1.744   2.763  14.546 -0.1553 -0.1122  0.8118
   13DOPE  H16X 1669   1.680   2.675  14.522  0.1383  0.3117 -1.8744
   13DOPE  H16Y 1670   1.843   2.716  14.565 -0.0211  0.5807  1.9004
   13DOPE  C317 1671   1.760   2.836  14.413 -0.3937 -0.7314  0.2209
   13DOPE  H17X 1672   1.808   2.934  14.435 -2.2166 -0.0313  1.2753
   13DOPE  H17Y 1673   1.832   2.774  14.355 -0.8781 -1.2062  0.1211
   13DOPE  C318 1674   1.627   2.859  14.345  0.7951  0.4065 -0.3183
   13DOPE  H18X 1675   1.552   2.883  14.423  2.0379 -2.6977  2.0058
   13DOPE  H18Y 1676   1.629   2.923  14.254  1.1435  0.0482 -0.5646
   13DOPE  H18Z 1677   1.585   2.764  14.306 -1.2760  1.8444 -1.8346
   14DOPE     N 1678   4.751   5.244  16.996  1.2457  0.8006  0.0595
   14DOPE   HN1 1679   4.711   5.259  17.091  0.3483  2.6083 -0.5359
   14DOPE   HN2 1680   4.852   5.221  17.007  0.7441 -0.9350  1.6066
   14DOPE   HN3 1681   4.735   5.336  16.950 -2.0942  2.0787  3.2145
   14DOPE   C12 1682   4.678   5.124  16.935  0.9321 -0.3824 -0.2958
   14DOPE  H12A 1683   4.569   5.144  16.927  0.7566 -0.7952  0.8283
   14DOPE  H12B 1684   4.690   5.039  17.005  2.2694 -0.4082 -0.5231
   14DOPE   C11 1685   4.723   5.084  16.789  0.4319  0.1073 -0.0422
   14DOPE  H11A 1686   4.685   5.158  16.715 -1.2158 -2.2290 -1.6951
   14DOPE  H11B 1687   4.666   4.989  16.778  2.0761 -0.9365  0.2255
   14DOPE     P 1688   4.983   5.138  16.742  0.3933  0.6191  0.0790
   14DOPE   O13 1689   5.091   5.049  16.693 -0.3010  0.1629  0.4020
   14DOPE   O14 1690   5.007   5.231  16.861  0.2964  0.3724 -0.0569
   14DOPE   O11 1691   4.927   5.232  16.628  0.0468  0.4110  0.2233
   14DOPE   O12 1692   4.859   5.046  16.777 -0.4678  0.2864  0.0693
   14DOPE    C1 1693   4.877   5.173  16.507  0.4267 -0.3021 -0.3934
   14DOPE    HA 1694   4.809   5.087  16.528  1.7010 -1.4537 -0.8055
   14DOPE    HB 1695   4.956   5.143  16.435 -0.3040  0.6545 -1.6280
   14DOPE    C2 1696   4.788   5.279  16.440 -0.1879  0.0928 -0.1204
   14DOPE    HS 1697   4.742   5.331  16.527 -0.5091  0.7806 -0.6885
   14DOPE   O21 1698   4.686   5.219  16.358  0.3571  0.6372 -0.2271
   14DOPE   C21 1699   4.599   5.292  16.297 -0.0160  0.2830 -0.0318
   14DOPE   O22 1700   4.585   5.415  16.306  0.0732  0.3230 -0.1611
   14DOPE   C22 1701   4.510   5.192  16.219 -1.1806  0.2759 -0.5272
   14DOPE   H2R 1702   4.419   5.170  16.280  0.1343 -1.6325  0.8694
   14DOPE   H2S 1703   4.556   5.091  16.221 -1.2455  0.2553 -0.0033
   14DOPE    C3 1704   4.875   5.381  16.363 -0.5629  0.1317 -0.5777
   14DOPE    HX 1705   4.970   5.413  16.411  1.3222 -0.4722 -3.6005
   14DOPE    HY 1706   4.818   5.476  16.351 -0.6016  0.2473  0.4517
   14DOPE   O31 1707   4.914   5.320  16.243 -0.0549  0.0641  0.7151
   14DOPE   C31 1708   4.968   5.400  16.152  0.0879 -0.1415  0.0907
   14DOPE   O32 1709   5.015   5.511  16.176 -0.9699 -0.1498 -0.1832
   14DOPE   C32 1710   4.970   5.332  16.015 -1.1238  0.0429  0.3192
   14DOPE   H2X 1711   4.884   5.263  16.000  1.0455 -3.6355  3.1289
   14DOPE   H2Y 1712   4.957   5.414  15.940 -0.8559 -0.7148 -0.5784
   14DOPE   C23 1713   4.479   5.238  16.078 -0.0249  0.1134  0.9721
   14DOPE   H3R 1714   4.471   5.348  16.065 -0.5860 -0.1808 -1.6924
   14DOPE   H3S 1715   4.381   5.202  16.041  0.8490 -0.9372 -0.4560
   14DOPE   C24 1716   4.591   5.196  15.975 -0.4224  0.2826  0.5741
   14DOPE   H4R 1717   4.604   5.087  15.959  1.9039  0.5375  0.3856
   14DOPE   H4S 1718   4.683   5.235  16.023 -1.4349  2.6865  0.6889
   14DOPE   C25 1719   4.582   5.275  15.842 -0.8301 -0.6934 -0.4463
   14DOPE   H5R 1720   4.602   5.383  15.860 -1.7213 -0.3379 -1.4807
   14DOPE   H5S 1721   4.475   5.282  15.815 -1.2592  1.9888  1.4792
   14DOPE   C26 1722   4.667   5.221  15.730  0.1464 -0.2301 -0.7005
   14DOPE   H6R 1723   4.618   5.125  15.706  0.6788 -1.6979  3.3323
   14DOPE   H6S 1724   4.772   5.196  15.755  0.3278 -0.8608 -1.9787
   14DOPE   C27 1725   4.665   5.312  15.607  0.0080 -1.4090  0.0914
   14DOPE   H7R 1726   4.720   5.407  15.628 -1.1108 -0.6768 -0.1989
   14DOPE   H7S 1727   4.563   5.337  15.570  0.1077 -1.1898 -0.0379
   14DOPE   C28 1728   4.729   5.244  15.482  0.7531  0.1266  0.1444
   14DOPE   H8R 1729   4.667   5.164  15.437  0.1394  2.3255 -3.3732
   14DOPE   H8S 1730   4.820   5.193  15.520 -0.1533 -0.8870  0.9929
   14DOPE   C29 1731   4.767   5.340  15.375  0.6906 -0.2042  0.9655
   14DOPE   H9R 1732   4.825   5.420  15.425  0.9836  0.8586 -0.9640
   14DOPE  C210 1733   4.746   5.341  15.239  0.1473  0.2806  0.1023
   14DOPE  H10R 1734   4.794   5.426  15.189 -0.7568  0.5774 -0.2837
   14DOPE  C211 1735   4.683   5.239  15.150 -0.5748 -0.5043  0.2712
   14DOPE  H11R 1736   4.605   5.294  15.093  0.9251 -0.1220 -1.5607
   14DOPE  H11S 1737   4.650   5.148  15.204  1.5121 -0.2436  2.1158
   14DOPE  C212 1738   4.774   5.178  15.037  0.4046 -0.5412  0.1734
   14DOPE  H12R 1739   4.711   5.097  14.994 -1.1350  0.7330 -0.0758
   14DOPE  H12S 1740   4.867   5.130  15.074  0.1131 -1.2233  0.0276
   14DOPE  C213 1741   4.815   5.276  14.930  0.8662  0.2001 -0.2086
   14DOPE  H13R 1742   4.915   5.318  14.953  0.1776  1.3994  0.6614
   14DOPE  H13S 1743   4.737   5.354  14.921  1.4578  1.0031  1.3350
   14DOPE  C214 1744   4.815   5.206  14.787  0.5276  0.0763 -0.3989
   14DOPE  H14R 1745   4.731   5.133  14.786  1.2143 -0.8442  1.7901
   14DOPE  H14S 1746   4.903   5.138  14.785  0.0603 -0.5595  0.1099
   14DOPE  C215 1747   4.810   5.311  14.668  0.3741  0.5496 -0.0514
   14DOPE  H15R 1748   4.877   5.399  14.675 -1.3304  1.8910  0.0841
   14DOPE  H15S 1749   4.706   5.351  14.666 -0.5705 -1.7599 -1.0396
   14DOPE  C216 1750   4.821   5.251  14.530  0.5501  0.0140 -0.2955
   14DOPE  H16R 1751   4.815   5.329  14.450 -0.7332  0.4026  0.1570
   14DOPE  H16S 1752   4.732   5.193  14.499 -0.8054  2.7074 -1.8141
   14DOPE  C217 1753   4.956   5.180  14.495  0.2907 -0.1095 -0.0871
   14DOPE  H17R 1754   4.977   5.102  14.571 -3.9560 -0.8797  0.5567
   14DOPE  H17S 1755   5.042   5.249  14.508  0.9948 -1.3723  2.7606
   14DOPE  C218 1756   4.956   5.116  14.355  0.1057 -0.2797 -0.2157
   14DOPE  H18R 1757   4.943   5.193  14.275  1.3841  0.5563  0.3514
   14DOPE  H18S 1758   4.862   5.060  14.339 -1.2218  2.1632 -1.6359
   14DOPE  H18T 1759   5.047   5.056  14.335 -1.3827 -2.7232 -0.0330
   14DOPE   C33 1760   5.098   5.247  15.984 -0.1801 -0.2907 -0.4946
   14DOPE   H3X 1761   5.095   5.160  16.054 -1.5958  0.5026  0.4796
   14DOPE   H3Y 1762   5.193   5.302  16.001  0.4647 -0.8292 -2.1167
   14DOPE   C34 1763   5.103   5.204  15.835  0.3825 -0.1716 -0.1514
   14DOPE   H4X 1764   5.183   5.127  15.824 -0.9901 -1.5683 -0.7100
   14DOPE   H4Y 1765   5.004   5.157  15.816 -1.1289  3.0379 -0.7583
   14DOPE   C35 1766   5.115   5.324  15.736  0.0862 -0.4484 -0.2004
   14DOPE   H5X 1767   5.189   5.398  15.772 -0.1770  0.3838 -1.3142
   14DOPE   H5Y 1768   5.020   5.382  15.739  0.1211 -0.3686 -0.6032
   14DOPE   C36 1769   5.140   5.284  15.588  0.4141 -0.1336 -0.0504
   14DOPE   H6X 1770   5.058   5.220  15.548 -1.2372  1.5510  0.4892
   14DOPE   H6Y 1771   5.232   5.223  15.576  0.6828  0.2196  0.1696
   14DOPE   C37 1772   5.140   5.402  15.489 -0.3760 -0.0685  0.0877
   14DOPE   H7X 1773   5.042   5.447  15.516 -0.3220 -0.4038  0.8763
   14DOPE   H7Y 1774   5.224   5.474  15.497  1.8738 -2.2551 -2.2731
   14DOPE   C38 1775   5.140   5.358  15.340 -0.0961 -0.3485 -0.3359
   14DOPE   H8X 1776   5.103   5.453  15.295 -0.6230  0.0917  0.9946
   14DOPE   H8Y 1777   5.062   5.279  15.324 -1.7797  1.0599  0.5768
   14DOPE   C39 1778   5.268   5.303  15.289  0.1014 -0.2084  1.0790
   14DOPE   H9X 1779   5.323   5.241  15.361  3.5382  1.2937 -0.0133
   14DOPE  C310 1780   5.314   5.310  15.160 -0.0261 -0.4023  0.2482
   14DOPE  H10X 1781   5.408   5.263  15.129  0.6261  1.0848 -0.1196
   14DOPE  C311 1782   5.238   5.395  15.055  0.0097 -0.9689  0.3368
   14DOPE  H11X 1783   5.141   5.425  15.099  1.7857 -0.2789  4.1993
   14DOPE  H11Y 1784   5.285   5.493  15.033 -1.1490 -0.1135  1.5373
   14DOPE  C312 1785   5.211   5.306  14.933  0.1823  0.5458  0.5156
   14DOPE  H12X 1786   5.119   5.343  14.882 -0.9447 -1.7320  0.7898
   14DOPE  H12Y 1787   5.190   5.204  14.972  2.2874 -0.1950 -0.1346
   14DOPE  C313 1788   5.325   5.301  14.836  0.9415 -0.3765  0.2321
   14DOPE  H13X 1789   5.346   5.402  14.793  1.2911 -0.3374  0.4929
   14DOPE  H13Y 1790   5.420   5.271  14.885  0.4888 -2.0195  0.1435
   14DOPE  C314 1791   5.289   5.208  14.719  0.3867 -0.7331  0.7359
   14DOPE  H14X 1792   5.188   5.234  14.681  0.5087  0.1469  1.0030
   14DOPE  H14Y 1793   5.277   5.105  14.759 -1.3138 -0.3809  1.2211
   14DOPE  C315 1794   5.386   5.212  14.599  0.2145  0.1254  0.6562
   14DOPE  H15X 1795   5.490   5.200  14.635  1.3307 -0.2673 -2.4208
   14DOPE  H15Y 1796   5.370   5.311  14.550 -0.2842 -0.5789 -0.6757
   14DOPE  C316 1797   5.353   5.113  14.494 -0.1467 -0.2754 -0.3734
   14DOPE  H16X 1798   5.244   5.118  14.472  0.4377 -0.2255 -3.8008
   14DOPE  H16Y 1799   5.383   5.010  14.522  1.1820  0.7845  2.5183
   14DOPE  C317 1800   5.434   5.147  14.367 -0.6027  0.5129 -0.3601
   14DOPE  H17X 1801   5.449   5.257  14.356 -1.4707  0.7012  0.2799
   14DOPE  H17Y 1802   5.540   5.115  14.378 -0.2871  1.0609 -1.6251
   14DOPE  C318 1803   5.375   5.101  14.233  0.7524  0.4997  0.4127
   14DOPE  H18X 1804   5.269   5.133  14.234  1.1585  1.9307  1.4155
   14DOPE  H18Y 1805   5.436   5.152  14.156  0.6392  1.3747  0.8895
   14DOPE  H18Z 1806   5.384   4.990  14.228  1.9654  0.6231 -0.6645
   15DOPE     N 1807   6.615   3.809  16.671 -0.0820  0.4532  0.4047
   15DOPE   HN1 1808   6.540   3.766  16.727 -0.4883  0.8742  0.1858
   15DOPE   HN2 1809   6.705   3.771  16.706  0.2913  1.0823  0.1633
   15DOPE   HN3 1810   6.613   3.913  16.677  1.1988  0.6154 -1.1926
   15DOPE   C12 1811   6.577   3.770  16.531  0.9726  0.1670  0.7891
   15DOPE  H12A 1812   6.482   3.821  16.504  1.9754  1.1723 -1.0064
   15DOPE  H12B 1813   6.553   3.662  16.528 -0.1294  0.4135  0.1818
   15DOPE   C11 1814   6.687   3.795  16.429 -0.2057  0.7698  0.2516
   15DOPE  H11A 1815   6.653   3.757  16.330  1.1376 -1.4638  0.5890
   15DOPE  H11B 1816   6.772   3.727  16.449 -0.7273  0.1551  0.4001
   15DOPE     P 1817   6.871   3.983  16.427  0.3452 -0.1682 -0.5388
   15DOPE   O13 1818   6.920   3.948  16.559  0.3995 -0.3004 -0.0362
   15DOPE   O14 1819   6.868   4.125  16.383  0.1848 -0.5231 -0.3714
   15DOPE   O11 1820   6.946   3.890  16.320  0.0490 -0.7842  0.5696
   15DOPE   O12 1821   6.721   3.933  16.425  0.8583 -0.1960  0.3568
   15DOPE    C1 1822   6.910   3.909  16.184  0.4555  0.3321  0.8287
   15DOPE    HA 1823   6.916   4.016  16.155  0.4112  0.4963  1.4098
   15DOPE    HB 1824   6.806   3.872  16.166  1.2895 -1.1951 -1.1588
   15DOPE    C2 1825   7.010   3.829  16.092 -0.3916 -0.5617 -0.4117
   15DOPE    HS 1826   6.959   3.812  15.995  3.2298 -0.7919 -2.4559
   15DOPE   O21 1827   7.060   3.710  16.152  0.0159 -0.2052 -0.1615
   15DOPE   C21 1828   6.971   3.610  16.159  1.0351  0.0561 -0.1265
   15DOPE   O22 1829   6.855   3.612  16.117  0.0777  0.0085  0.0607
   15DOPE   C22 1830   7.027   3.480  16.210  0.3564  0.6622  0.2197
   15DOPE   H2R 1831   6.949   3.402  16.195  0.8552 -0.2018  1.7522
   15DOPE   H2S 1832   7.034   3.478  16.321  0.5714  2.7908  0.2797
   15DOPE    C3 1833   7.134   3.905  16.059 -0.2732 -0.7566  0.1050
   15DOPE    HX 1834   7.193   3.906  16.153  0.6725  1.1561 -0.4489
   15DOPE    HY 1835   7.103   4.009  16.035 -2.2729 -1.3894 -0.2615
   15DOPE   O31 1836   7.202   3.850  15.946  0.3812 -0.2320  0.2454
   15DOPE   C31 1837   7.162   3.879  15.827  0.7431 -0.5221 -0.0849
   15DOPE   O32 1838   7.076   3.962  15.799  0.1192 -0.3919  0.0704
   15DOPE   C32 1839   7.231   3.781  15.735 -0.1155  0.2331 -0.3565
   15DOPE   H2X 1840   7.333   3.822  15.725  0.6717 -1.1699  1.4020
   15DOPE   H2Y 1841   7.232   3.683  15.787  0.2716 -0.3420 -1.4309
   15DOPE   C23 1842   7.153   3.448  16.133  0.8823 -0.3518 -0.8214
   15DOPE   H3R 1843   7.190   3.354  16.180 -0.9287 -0.3830  0.6419
   15DOPE   H3S 1844   7.231   3.526  16.148 -0.7047  0.7223  2.9070
   15DOPE   C24 1845   7.135   3.407  15.984 -0.0720  0.4730  0.6590
   15DOPE   H4R 1846   7.084   3.486  15.926  2.0809  2.0962  0.8316
   15DOPE   H4S 1847   7.078   3.312  15.977  0.5143  0.1446  0.2128
   15DOPE   C25 1848   7.273   3.385  15.927  0.2005  0.0883  0.0331
   15DOPE   H5R 1849   7.324   3.305  15.986 -2.8152 -0.6620  1.8160
   15DOPE   H5S 1850   7.331   3.476  15.954 -2.0903  1.9348 -1.0048
   15DOPE   C26 1851   7.282   3.383  15.775  0.7002  0.4437  0.1926
   15DOPE   H6R 1852   7.250   3.485  15.744 -0.8881 -0.3672 -0.9897
   15DOPE   H6S 1853   7.212   3.305  15.739 -0.3429  1.0411  0.8801
   15DOPE   C27 1854   7.425   3.358  15.725  0.3399 -0.6134  0.8257
   15DOPE   H7R 1855   7.482   3.310  15.807  1.2740  0.2618  0.7170
   15DOPE   H7S 1856   7.477   3.456  15.724  1.0327 -0.9787 -0.2466
   15DOPE   C28 1857   7.444   3.285  15.588  0.5815 -0.4990 -0.3424
   15DOPE   H8R 1858   7.395   3.186  15.596 -1.5410  0.3371 -2.0479
   15DOPE   H8S 1859   7.554   3.274  15.571  0.9982  1.6857  0.5989
   15DOPE   C29 1860   7.373   3.363  15.470 -0.7455  0.8529  0.6756
   15DOPE   H9R 1861   7.329   3.460  15.496  1.3658  2.1243 -0.2895
   15DOPE  C210 1862   7.360   3.321  15.340  0.5727  0.3135 -0.5998
   15DOPE  H10R 1863   7.285   3.373  15.279 -0.3191  1.2108  1.1579
   15DOPE  C211 1864   7.443   3.209  15.275  0.1104  0.4745 -0.3943
   15DOPE  H11R 1865   7.485   3.138  15.349 -0.3260  0.3065 -0.3043
   15DOPE  H11S 1866   7.530   3.249  15.219  0.3664 -0.8029 -0.9477
   15DOPE  C212 1867   7.358   3.120  15.179  0.7797  0.1939  0.0450
   15DOPE  H12R 1868   7.286   3.060  15.240  1.4439 -0.6696  0.0031
   15DOPE  H12S 1869   7.427   3.044  15.137 -0.1635 -0.8948  0.4047
   15DOPE  C213 1870   7.282   3.183  15.066  0.1964 -0.2708 -0.1270
   15DOPE  H13R 1871   7.200   3.247  15.104  1.2775  0.3055  1.3549
   15DOPE  H13S 1872   7.233   3.106  15.003 -1.0860  1.9291 -1.9735
   15DOPE  C214 1873   7.359   3.281  14.981  0.4388 -0.4007 -0.4127
   15DOPE  H14R 1874   7.459   3.239  14.956  0.7215  0.1595 -0.2410
   15DOPE  H14S 1875   7.380   3.370  15.045 -2.0221 -0.6714  0.8954
   15DOPE  C215 1876   7.292   3.314  14.848 -0.0483 -0.7127 -0.4492
   15DOPE  H15R 1877   7.339   3.407  14.809  1.8863 -1.0258  1.0023
   15DOPE  H15S 1878   7.187   3.339  14.874  0.9131  1.3295  1.8966
   15DOPE  C216 1879   7.312   3.210  14.743 -0.3156 -0.7104 -0.6130
   15DOPE  H16R 1880   7.286   3.108  14.779  2.6416 -1.0833  0.7620
   15DOPE  H16S 1881   7.422   3.214  14.733 -0.2616  0.1911  0.2258
   15DOPE  C217 1882   7.235   3.235  14.614  0.1042  0.0569 -0.0487
   15DOPE  H17R 1883   7.130   3.203  14.635 -0.1800  0.6512 -0.5546
   15DOPE  H17S 1884   7.270   3.177  14.526 -2.1901  0.2312 -1.1368
   15DOPE  C218 1885   7.225   3.384  14.575 -0.6005  0.3951 -0.3516
   15DOPE  H18R 1886   7.327   3.423  14.600 -1.3643  2.2202  0.1156
   15DOPE  H18S 1887   7.152   3.437  14.640 -0.5232  0.8175 -0.6057
   15DOPE  H18T 1888   7.206   3.385  14.466  1.3257  1.0591 -0.7234
   15DOPE   C33 1889   7.164   3.749  15.594 -0.1926  0.4635 -0.6242
   15DOPE   H3X 1890   7.068   3.698  15.614  0.4081  0.0288  1.3292
   15DOPE   H3Y 1891   7.244   3.687  15.548 -0.1522  0.7113 -0.8895
   15DOPE   C34 1892   7.146   3.865  15.502  0.2381 -0.7437  0.9319
   15DOPE   H4X 1893   7.076   3.939  15.545 -0.8564 -0.7630 -0.7289
   15DOPE   H4Y 1894   7.241   3.914  15.468 -0.8274  0.3527 -0.6438
   15DOPE   C35 1895   7.091   3.821  15.365 -0.2574  0.1169 -0.9354
   15DOPE   H5X 1896   7.066   3.907  15.299 -1.9165  0.1027 -0.3716
   15DOPE   H5Y 1897   6.993   3.771  15.378  0.6839 -1.4788  0.5631
   15DOPE   C36 1898   7.183   3.734  15.282 -0.2773  0.5553  0.7080
   15DOPE   H6X 1899   7.175   3.626  15.310 -0.3388  0.1550 -0.7614
   15DOPE   H6Y 1900   7.286   3.774  15.291  0.6032 -1.6621  1.5089
   15DOPE   C37 1901   7.135   3.752  15.135 -0.6691  0.6685  0.3861
   15DOPE   H7X 1902   7.027   3.726  15.143 -0.1471 -3.1222 -2.3293
   15DOPE   H7Y 1903   7.136   3.856  15.096 -0.9835 -0.0569 -1.6641
   15DOPE   C38 1904   7.188   3.644  15.038  0.1889 -0.7442  0.7346
   15DOPE   H8X 1905   7.125   3.660  14.948  0.5211  3.6954  1.1020
   15DOPE   H8Y 1906   7.166   3.541  15.075 -2.3158 -1.1687 -1.6089
   15DOPE   C39 1907   7.332   3.659  14.997  0.4452  0.5994 -0.5387
   15DOPE   H9X 1908   7.408   3.640  15.074  2.9544  3.3356 -2.1741
   15DOPE  C310 1909   7.383   3.677  14.876 -0.0698  0.9646  0.1579
   15DOPE  H10X 1910   7.491   3.696  14.868  0.4925 -1.7450  0.5384
   15DOPE  C311 1911   7.314   3.699  14.740 -0.6787  0.5359  0.1324
   15DOPE  H11X 1912   7.380   3.656  14.661  0.2688  1.7861  0.2200
   15DOPE  H11Y 1913   7.216   3.647  14.734 -0.2881 -0.1869 -0.0963
   15DOPE  C312 1914   7.303   3.846  14.708  1.0110 -0.0298 -0.2587
   15DOPE  H12X 1915   7.263   3.889  14.803  0.2059 -1.2457 -0.0226
   15DOPE  H12Y 1916   7.215   3.854  14.641  0.6200 -0.1510  0.2302
   15DOPE  C313 1917   7.434   3.904  14.648  0.8376 -0.4799  0.8757
   15DOPE  H13X 1918   7.529   3.895  14.704  1.6656 -3.7875 -0.8150
   15DOPE  H13Y 1919   7.475   3.848  14.561  2.0273 -2.6054  2.7040
   15DOPE  C314 1920   7.422   4.055  14.626 -0.5970 -0.7491  0.2140
   15DOPE  H14X 1921   7.383   4.092  14.724 -2.8797 -3.6587  0.5282
   15DOPE  H14Y 1922   7.340   4.083  14.556 -0.9002 -2.6877 -0.2442
   15DOPE  C315 1923   7.557   4.126  14.587 -0.6023 -0.5394  0.8216
   15DOPE  H15X 1924   7.627   4.122  14.673  1.8321 -0.7150 -1.0667
   15DOPE  H15Y 1925   7.537   4.229  14.550  1.2892 -0.2393  0.5718
   15DOPE  C316 1926   7.631   4.052  14.472  0.0250 -0.2251  0.0801
   15DOPE  H16X 1927   7.555   4.034  14.392 -1.3130 -0.2101  1.3025
   15DOPE  H16Y 1928   7.677   3.958  14.509 -0.8861 -0.2574  1.1743
   15DOPE  C317 1929   7.747   4.138  14.409 -0.2068  0.2039  0.3653
   15DOPE  H17X 1930   7.690   4.217  14.357  0.4369  0.2232 -0.3221
   15DOPE  H17Y 1931   7.799   4.195  14.489 -0.3200  1.5772 -0.5011
   15DOPE  C318 1932   7.853   4.069  14.317 -0.9501  1.0255  0.0687
   15DOPE  H18X 1933   7.940   4.135  14.296  0.4700 -0.3418  1.3345
   15DOPE  H18Y 1934   7.886   3.980  14.375 -2.7506  0.8308  0.8635
   15DOPE  H18Z 1935   7.820   4.032  14.218  3.8862  0.8200 -1.7379
   16DOPE     N 1936   0.018   4.313  16.425 -0.3210  0.3830 -0.4344
   16DOPE   HN1 1937  -0.035   4.292  16.338 -0.6252  0.3376 -0.2392
   16DOPE   HN2 1938   0.109   4.265  16.412 -0.0186  0.9582 -0.4972
   16DOPE   HN3 1939  -0.025   4.277  16.513  0.8052  0.6305  0.2296
   16DOPE   C12 1940   0.036   4.462  16.453 -0.4820 -0.3235  0.0451
   16DOPE  H12A 1941   0.079   4.514  16.365 -0.1893  0.0453  0.4042
   16DOPE  H12B 1942   0.100   4.462  16.544 -1.4712  0.3955  0.7622
   16DOPE   C11 1943  -0.099   4.525  16.474 -0.4041 -0.1864  0.9018
   16DOPE  H11A 1944  -0.161   4.480  16.554 -1.5960  3.4095  2.2045
   16DOPE  H11B 1945  -0.165   4.502  16.387 -1.4107 -2.8657  2.2591
   16DOPE     P 1946  -0.176   4.775  16.421  0.2584  0.2099 -0.2043
   16DOPE   O13 1947  -0.125   4.907  16.445 -0.3278  0.0521 -0.0218
   16DOPE   O14 1948  -0.319   4.755  16.458 -0.7707 -0.5287 -0.1690
   16DOPE   O11 1949  -0.163   4.720  16.268 -0.2858 -0.6795 -0.5876
   16DOPE   O12 1950  -0.083   4.666  16.495  0.2515 -0.1821  0.4630
   16DOPE    C1 1951  -0.048   4.771  16.200 -0.2819  0.5962 -0.0112
   16DOPE    HA 1952   0.040   4.715  16.238 -1.5600 -1.1521  0.4425
   16DOPE    HB 1953  -0.037   4.881  16.212  1.6238  0.5300 -0.7886
   16DOPE    C2 1954  -0.067   4.748  16.048  0.0820 -0.1152 -0.5804
   16DOPE    HS 1955   0.011   4.805  15.993 -0.9865  0.5649 -1.4293
   16DOPE   O21 1956  -0.200   4.764  16.004  0.1487 -0.0775  0.1329
   16DOPE   C21 1957  -0.244   4.887  16.031  0.2516  0.0800 -0.1235
   16DOPE   O22 1958  -0.167   4.980  16.054 -0.3642 -0.0973  0.2892
   16DOPE   C22 1959  -0.399   4.886  16.027  0.6968  0.1609 -0.1217
   16DOPE   H2R 1960  -0.427   4.993  16.038  1.3722  0.3641 -0.2972
   16DOPE   H2S 1961  -0.441   4.830  16.113 -0.3137 -2.7057 -2.3027
   16DOPE    C3 1962  -0.034   4.597  16.017 -0.3690  0.3781  0.4304
   16DOPE    HX 1963  -0.084   4.536  16.095  1.6013  0.5426  1.8999
   16DOPE    HY 1964   0.075   4.577  16.024 -0.3107  0.1011 -0.9530
   16DOPE   O31 1965  -0.076   4.565  15.885  0.1367  0.2495  0.3815
   16DOPE   C31 1966  -0.198   4.516  15.878  0.3369  0.4935  0.2408
   16DOPE   O32 1967  -0.272   4.478  15.966  0.4527  0.2433  0.0356
   16DOPE   C32 1968  -0.236   4.503  15.730 -0.0249 -0.1812  0.1866
   16DOPE   H2X 1969  -0.148   4.469  15.672 -1.1869 -1.8309 -0.6671
   16DOPE   H2Y 1970  -0.314   4.426  15.712 -1.4397  1.1622  0.3655
   16DOPE   C23 1971  -0.458   4.815  15.907  0.5613  0.1842 -0.1052
   16DOPE   H3R 1972  -0.451   4.704  15.913  0.2763  0.0893 -1.2048
   16DOPE   H3S 1973  -0.393   4.844  15.821 -0.0163  0.3501 -0.4925
   16DOPE   C24 1974  -0.605   4.863  15.889  0.7607  0.3189 -0.3409
   16DOPE   H4R 1975  -0.604   4.973  15.879  0.3524  0.4192  0.6686
   16DOPE   H4S 1976  -0.661   4.846  15.983  0.8237  4.3041  0.5665
   16DOPE   C25 1977  -0.679   4.807  15.763  0.3683 -0.2915  0.6386
   16DOPE   H5R 1978  -0.773   4.864  15.785  0.7991  1.1695 -1.0260
   16DOPE   H5S 1979  -0.695   4.698  15.774 -1.3850 -0.2743 -1.2250
   16DOPE   C26 1980  -0.624   4.850  15.627 -0.2047  0.2318 -0.0108
   16DOPE   H6R 1981  -0.534   4.790  15.601  0.2065  1.6972 -2.2379
   16DOPE   H6S 1982  -0.597   4.958  15.627 -1.9895  0.7160 -1.3079
   16DOPE   C27 1983  -0.717   4.824  15.504 -0.8155  0.4877 -0.2643
   16DOPE   H7R 1984  -0.803   4.894  15.510 -0.8791  0.3382  0.6888
   16DOPE   H7S 1985  -0.759   4.721  15.514 -3.1176  1.1786 -1.9191
   16DOPE   C28 1986  -0.659   4.841  15.356  0.1983 -0.3139 -0.3129
   16DOPE   H8R 1987  -0.736   4.801  15.286 -0.9446 -1.0883  1.3223
   16DOPE   H8S 1988  -0.573   4.771  15.360 -0.8671 -1.6293  1.4900
   16DOPE   C29 1989  -0.617   4.974  15.310 -0.1318 -0.8068 -0.0690
   16DOPE   H9R 1990  -0.575   5.043  15.385 -2.4266 -1.0316  1.5327
   16DOPE  C210 1991  -0.616   5.029  15.185 -0.8789  0.2049  0.3940
   16DOPE  H10R 1992  -0.567   5.126  15.169  1.0335 -0.9019 -0.8204
   16DOPE  C211 1993  -0.672   4.968  15.062  0.2787 -0.3335  0.1791
   16DOPE  H11R 1994  -0.754   5.037  15.032 -0.8981 -1.3193  1.0226
   16DOPE  H11S 1995  -0.720   4.871  15.087 -0.0663 -0.2998 -0.3495
   16DOPE  C212 1996  -0.577   4.953  14.941 -0.1940 -0.5245 -0.1560
   16DOPE  H12R 1997  -0.492   4.891  14.976 -1.6040 -1.1696  2.4168
   16DOPE  H12S 1998  -0.531   5.051  14.916 -0.2393 -0.8567 -1.6205
   16DOPE  C213 1999  -0.641   4.886  14.814 -0.1508 -0.2259 -0.5069
   16DOPE  H13R 2000  -0.724   4.820  14.846  0.3273  0.1200  1.5751
   16DOPE  H13S 2001  -0.572   4.808  14.775 -0.9639 -2.0191  1.4778
   16DOPE  C214 2002  -0.667   4.981  14.701 -0.3704 -0.3330  0.1491
   16DOPE  H14R 2003  -0.734   5.065  14.729 -1.4690 -1.1022 -0.0989
   16DOPE  H14S 2004  -0.730   4.927  14.627  1.4819 -2.2121 -0.1305
   16DOPE  C215 2005  -0.542   5.024  14.636 -0.7201 -0.5225  0.2538
   16DOPE  H15R 2006  -0.492   4.932  14.597  0.3549  0.6993 -1.4061
   16DOPE  H15S 2007  -0.465   5.063  14.706 -0.4332  0.8195 -0.7595
   16DOPE  C216 2008  -0.559   5.138  14.530  0.4558 -0.1006  0.1593
   16DOPE  H16R 2009  -0.546   5.237  14.578  1.5013 -0.0509 -0.2081
   16DOPE  H16S 2010  -0.662   5.115  14.494  0.4540 -1.0109  0.7078
   16DOPE  C217 2011  -0.448   5.120  14.420  0.1715  0.1819 -0.2820
   16DOPE  H17R 2012  -0.453   5.013  14.389  2.1186 -0.0913  0.2544
   16DOPE  H17S 2013  -0.350   5.142  14.467  1.9112  1.4030 -4.1163
   16DOPE  C218 2014  -0.475   5.215  14.310 -0.7483 -0.6231 -0.5942
   16DOPE  H18R 2015  -0.479   5.320  14.346 -2.8786 -0.2241 -1.8100
   16DOPE  H18S 2016  -0.574   5.191  14.266 -2.2004  0.4453  1.8649
   16DOPE  H18T 2017  -0.395   5.205  14.234 -1.5021  0.8813 -1.6330
   16DOPE   C33 2018  -0.286   4.635  15.671 -0.6978  1.3941  0.0135
   16DOPE   H3X 2019  -0.217   4.712  15.712  1.0788  0.7908 -1.6867
   16DOPE   H3Y 2020  -0.393   4.651  15.698 -1.1859 -1.7693  0.4252
   16DOPE   C34 2021  -0.281   4.640  15.519  0.4609  1.1752  0.6189
   16DOPE   H4X 2022  -0.316   4.742  15.494  0.6175  1.1937  0.4775
   16DOPE   H4Y 2023  -0.176   4.638  15.483 -0.1271 -2.1620 -1.4271
   16DOPE   C35 2024  -0.365   4.532  15.445 -0.0664  0.4782  0.2346
   16DOPE   H5X 2025  -0.470   4.518  15.480  0.2419 -2.1351  0.3189
   16DOPE   H5Y 2026  -0.319   4.432  15.461  0.5352  0.3410 -2.0671
   16DOPE   C36 2027  -0.364   4.543  15.295  0.1682  0.0443 -0.0502
   16DOPE   H6X 2028  -0.285   4.619  15.280  0.2216  0.5002  2.1937
   16DOPE   H6Y 2029  -0.456   4.581  15.245 -0.3027 -0.3246  0.5236
   16DOPE   C37 2030  -0.310   4.415  15.226 -1.1203  0.6248  0.8772
   16DOPE   H7X 2031  -0.201   4.409  15.247 -0.9393  2.5644  0.5894
   16DOPE   H7Y 2032  -0.360   4.326  15.270 -3.0033  0.7474 -0.8701
   16DOPE   C38 2033  -0.340   4.414  15.072 -0.2446 -0.1572 -0.2436
   16DOPE   H8X 2034  -0.448   4.419  15.043 -0.8572  0.8514  1.9909
   16DOPE   H8Y 2035  -0.309   4.313  15.038  1.3862  0.2730 -0.0906
   16DOPE   C39 2036  -0.259   4.535  15.007  0.8222  0.4679  0.2810
   16DOPE   H9X 2037  -0.305   4.635  15.014  0.4914  0.3569 -0.2221
   16DOPE  C310 2038  -0.148   4.527  14.933 -0.3439  0.4060  0.1191
   16DOPE  H10X 2039  -0.097   4.620  14.905  1.7789  0.0384  2.3357
   16DOPE  C311 2040  -0.063   4.405  14.916  0.1721  0.6744 -0.5423
   16DOPE  H11X 2041   0.041   4.436  14.940 -0.3417  2.6303 -0.6930
   16DOPE  H11Y 2042  -0.084   4.316  14.980  2.5954  1.3743  1.3992
   16DOPE  C312 2043  -0.069   4.352  14.770  0.2697  0.2106  0.2496
   16DOPE  H12X 2044   0.009   4.273  14.760  0.8885  0.7075  0.9980
   16DOPE  H12Y 2045  -0.038   4.437  14.707  2.0493 -0.3809  0.2649
   16DOPE  C313 2046  -0.206   4.296  14.723  0.4459  0.0584  1.1692
   16DOPE  H13X 2047  -0.233   4.207  14.785  0.6502 -1.5395 -0.9075
   16DOPE  H13Y 2048  -0.287   4.369  14.745 -0.8793 -1.5085  1.7668
   16DOPE  C314 2049  -0.203   4.268  14.570  0.0526 -0.1646 -0.5107
   16DOPE  H14X 2050  -0.190   4.363  14.515  1.9141 -0.2342 -0.2653
   16DOPE  H14Y 2051  -0.301   4.227  14.535 -1.1099  1.5186  0.6239
   16DOPE  C315 2052  -0.085   4.184  14.516  0.0717 -0.3714  0.3947
   16DOPE  H15X 2053  -0.104   4.078  14.543  1.7456 -0.6898  0.4559
   16DOPE  H15Y 2054   0.015   4.215  14.555  0.1757  0.2604 -0.3433
   16DOPE  C316 2055  -0.075   4.169  14.362  0.3830  0.9417 -0.3779
   16DOPE  H16X 2056  -0.031   4.262  14.320  0.2209  0.7520 -0.9778
   16DOPE  H16Y 2057  -0.183   4.151  14.346  0.7080 -1.9961  0.2455
   16DOPE  C317 2058   0.008   4.052  14.319  0.4833 -0.3262 -0.5334
   16DOPE  H17X 2059   0.118   4.064  14.324  0.2296  2.8454 -0.8179
   16DOPE  H17Y 2060  -0.018   3.964  14.382  0.1503  0.1325 -0.0193
   16DOPE  C318 2061  -0.032   4.015  14.169  0.1408 -0.1422 -0.2147
   16DOPE  H18X 2062   0.030   3.928  14.140 -0.4065 -0.9909  1.1198
   16DOPE  H18Y 2063  -0.139   3.989  14.159  0.1783  0.4278 -2.7588
   16DOPE  H18Z 2064  -0.009   4.107  14.110  1.8249  0.8932  1.9245
   17DOPE     N 2065   1.590   0.482  16.904  0.9907 -0.7654 -0.1409
   17DOPE   HN1 2066   1.675   0.458  16.960  1.5499  1.6062  0.1756
   17DOPE   HN2 2067   1.604   0.443  16.809 -0.5884 -0.4444 -0.5360
   17DOPE   HN3 2068   1.581   0.586  16.894 -1.3070 -0.7386  1.5140
   17DOPE   C12 2069   1.474   0.418  16.977  0.1966 -0.2777 -0.4600
   17DOPE  H12A 2070   1.473   0.462  17.079  1.0553  0.6265 -0.8205
   17DOPE  H12B 2071   1.497   0.309  16.988  4.6245  0.6178  1.4696
   17DOPE   C11 2072   1.330   0.440  16.913 -0.3669  0.4177  0.5764
   17DOPE  H11A 2073   1.321   0.551  16.910  2.6085  0.7268 -1.3188
   17DOPE  H11B 2074   1.259   0.383  16.977  0.0787 -0.8450 -0.0164
   17DOPE     P 2075   1.327   0.460  16.658 -0.3730 -0.0954  0.7444
   17DOPE   O13 2076   1.448   0.550  16.659 -0.2408 -0.0361  0.0812
   17DOPE   O14 2077   1.196   0.534  16.647  0.1087  0.9903 -0.0507
   17DOPE   O11 2078   1.342   0.356  16.545  0.3718  0.2773  0.0953
   17DOPE   O12 2079   1.336   0.373  16.786 -0.1848 -0.5756 -0.5608
   17DOPE    C1 2080   1.221   0.276  16.515 -0.2488  0.1179 -0.4180
   17DOPE    HA 2081   1.147   0.269  16.598 -0.5167 -2.1618 -0.7584
   17DOPE    HB 2082   1.250   0.169  16.504  3.0307  0.7322  1.1257
   17DOPE    C2 2083   1.149   0.303  16.384 -0.0922  0.0133 -0.6538
   17DOPE    HS 2084   1.077   0.223  16.358 -0.9168  1.2046 -2.2867
   17DOPE   O21 2085   1.252   0.314  16.280 -0.3156  0.3565  0.0434
   17DOPE   C21 2086   1.290   0.191  16.238  1.1615 -0.1888  0.0596
   17DOPE   O22 2087   1.247   0.083  16.278 -0.4327  0.1736 -0.0087
   17DOPE   C22 2088   1.384   0.200  16.121  0.4668  0.2737 -0.6175
   17DOPE   H2R 2089   1.473   0.135  16.133  0.7470  0.3102 -2.2712
   17DOPE   H2S 2090   1.430   0.301  16.127 -0.3648  0.5924  2.7811
   17DOPE    C3 2091   1.062   0.434  16.380 -1.8797  0.9595 -0.7210
   17DOPE    HX 2092   1.141   0.512  16.375 -2.4373  1.4995 -1.3872
   17DOPE    HY 2093   1.007   0.441  16.476  0.2163  0.1059  0.5946
   17DOPE   O31 2094   0.976   0.439  16.271 -0.7852  0.1444  0.0404
   17DOPE   C31 2095   0.867   0.368  16.286 -0.8980  0.1120 -0.5753
   17DOPE   O32 2096   0.834   0.306  16.389  0.4131 -0.2659  0.3536
   17DOPE   C32 2097   0.777   0.365  16.167 -0.3240 -0.8164  0.3449
   17DOPE   H2X 2098   0.732   0.265  16.150  0.1987 -1.0918  0.5415
   17DOPE   H2Y 2099   0.689   0.425  16.200  1.4000  2.3996 -0.4823
   17DOPE   C23 2100   1.322   0.171  15.985 -0.4945  0.8402 -0.2326
   17DOPE   H3R 2101   1.247   0.245  15.951  0.1299  1.4727 -0.2631
   17DOPE   H3S 2102   1.266   0.075  15.982 -1.3885  1.2512  1.6607
   17DOPE   C24 2103   1.433   0.159  15.873  0.3435 -0.3859  0.1680
   17DOPE   H4R 2104   1.512   0.084  15.894 -0.8142 -2.2013 -1.6304
   17DOPE   H4S 2105   1.484   0.257  15.860  2.7146 -1.6135 -0.2821
   17DOPE   C25 2106   1.359   0.126  15.737 -0.0443 -0.3605  0.4661
   17DOPE   H5R 2107   1.270   0.192  15.731  2.1639  2.8402 -0.2303
   17DOPE   H5S 2108   1.327   0.020  15.744  3.9732 -1.6974  1.2251
   17DOPE   C26 2109   1.435   0.141  15.608  0.4424 -0.3952  0.2683
   17DOPE   H6R 2110   1.519   0.071  15.587  2.4466  1.0593  2.8640
   17DOPE   H6S 2111   1.473   0.244  15.595 -2.0525  0.3781 -1.5663
   17DOPE   C27 2112   1.336   0.120  15.495 -0.0264 -0.2145  0.1795
   17DOPE   H7R 2113   1.263   0.202  15.479 -0.8609 -0.5658  1.9759
   17DOPE   H7S 2114   1.270   0.032  15.508 -2.6046  0.9544 -3.4473
   17DOPE   C28 2115   1.404   0.114  15.362 -0.3692 -0.0881  0.6457
   17DOPE   H8R 2116   1.323   0.088  15.290 -1.3499  0.1179  1.6467
   17DOPE   H8S 2117   1.478   0.031  15.363  0.0716  0.2531 -0.6806
   17DOPE   C29 2118   1.475   0.232  15.315 -0.8481 -0.4325  0.3638
   17DOPE   H9R 2119   1.556   0.263  15.382  0.8640 -2.4861 -0.6100
   17DOPE  C210 2120   1.457   0.297  15.196  0.0409  0.1687 -0.6465
   17DOPE  H10R 2121   1.512   0.392  15.185  0.0461  0.3361  0.6176
   17DOPE  C211 2122   1.352   0.269  15.089  0.2829  0.2057  0.0966
   17DOPE  H11R 2123   1.256   0.320  15.113 -0.2857 -0.8479  0.0934
   17DOPE  H11S 2124   1.333   0.160  15.084 -0.6343  0.2624  1.5964
   17DOPE  C212 2125   1.413   0.316  14.953  0.0601  0.7068  0.1068
   17DOPE  H12R 2126   1.518   0.285  14.933 -0.3651 -0.0407 -1.0915
   17DOPE  H12S 2127   1.423   0.426  14.964  0.2789  0.8335 -1.1782
   17DOPE  C213 2128   1.321   0.275  14.836 -0.5872 -0.6566  0.6600
   17DOPE  H13R 2129   1.233   0.341  14.822 -0.2360 -0.7472 -2.5884
   17DOPE  H13S 2130   1.298   0.168  14.858  0.2449 -0.7277  1.2280
   17DOPE  C214 2131   1.401   0.267  14.704  0.4167  0.3598  0.0712
   17DOPE  H14R 2132   1.476   0.188  14.727 -2.6751 -2.1343  2.5160
   17DOPE  H14S 2133   1.457   0.361  14.682  1.5942 -0.4630 -0.5823
   17DOPE  C215 2134   1.318   0.211  14.590 -0.1465 -0.1808  0.7989
   17DOPE  H15R 2135   1.233   0.280  14.569  1.1722  0.8133 -1.7453
   17DOPE  H15S 2136   1.280   0.111  14.620 -0.2036 -0.7443 -1.0592
   17DOPE  C216 2137   1.403   0.196  14.455  0.6575 -0.7131 -0.7487
   17DOPE  H16R 2138   1.488   0.131  14.486 -1.1086 -3.1560 -0.7713
   17DOPE  H16S 2139   1.444   0.296  14.427  1.3943 -0.7660  0.0990
   17DOPE  C217 2140   1.332   0.138  14.332 -0.0521  0.1481 -0.6682
   17DOPE  H17R 2141   1.232   0.186  14.321 -0.0236  0.6416  0.8693
   17DOPE  H17S 2142   1.301   0.034  14.353  0.1525  0.5637  2.0753
   17DOPE  C218 2143   1.424   0.139  14.212 -0.5586  0.2766  0.1247
   17DOPE  H18R 2144   1.529   0.106  14.233  0.8014  3.4122 -1.0988
   17DOPE  H18S 2145   1.430   0.242  14.171 -2.3366  0.1466 -0.5419
   17DOPE  H18T 2146   1.376   0.082  14.130 -0.0157  1.6665 -1.2214
   17DOPE   C33 2147   0.834   0.406  16.034  0.3524  0.0147  0.9339
   17DOPE   H3X 2148   0.886   0.504  16.043 -0.2617  0.2956  1.5727
   17DOPE   H3Y 2149   0.752   0.418  15.960 -0.5731 -0.6562  1.8386
   17DOPE   C34 2150   0.934   0.301  15.975  0.3010 -0.9878 -0.9858
   17DOPE   H4X 2151   1.013   0.286  16.051 -1.3720 -0.9207  0.8504
   17DOPE   H4Y 2152   0.880   0.205  15.964 -0.3479 -0.7483 -0.0480
   17DOPE   C35 2153   0.972   0.360  15.832  0.2756  0.1993  0.0187
   17DOPE   H5X 2154   1.083   0.355  15.825  0.3316 -1.2941  1.3993
   17DOPE   H5Y 2155   0.952   0.468  15.821  0.5357  0.1344 -1.3140
   17DOPE   C36 2156   0.926   0.267  15.715 -0.3666 -0.3190 -0.3769
   17DOPE   H6X 2157   0.815   0.276  15.716 -0.3685 -0.3403  0.5201
   17DOPE   H6Y 2158   0.948   0.160  15.734  0.6299 -0.2002 -0.8207
   17DOPE   C37 2159   0.985   0.300  15.581 -0.2927  0.2263  0.1403
   17DOPE   H7X 2160   0.960   0.406  15.562 -0.6994  0.0042 -0.6205
   17DOPE   H7Y 2161   1.095   0.296  15.596 -0.3840 -1.2622  0.5743
   17DOPE   C38 2162   0.952   0.205  15.463 -0.0445 -0.4108 -1.1593
   17DOPE   H8X 2163   0.845   0.175  15.463 -0.2882  0.3562  0.3577
   17DOPE   H8Y 2164   1.012   0.113  15.481  0.9458  0.3450 -0.5050
   17DOPE   C39 2165   0.998   0.270  15.338 -0.1731 -0.0748 -0.3308
   17DOPE   H9X 2166   1.057   0.363  15.345 -0.7152  0.2438  0.1689
   17DOPE  C310 2167   0.978   0.222  15.218  0.1175 -0.2320 -0.5198
   17DOPE  H10X 2168   1.011   0.278  15.130 -0.6332  2.3259  0.7155
   17DOPE  C311 2169   0.900   0.095  15.202 -0.3431 -0.2589 -0.9272
   17DOPE  H11X 2170   0.932   0.019  15.276 -0.5273  0.5919  0.0492
   17DOPE  H11Y 2171   0.793   0.124  15.211 -0.5674 -0.9368 -1.3731
   17DOPE  C312 2172   0.916   0.053  15.061 -0.5421  0.8722 -0.1295
   17DOPE  H12X 2173   0.876   0.129  14.991  0.7492  0.1199 -1.7547
   17DOPE  H12Y 2174   0.853  -0.038  15.048  0.2660  0.3097 -0.2251
   17DOPE  C313 2175   1.061   0.012  15.018 -0.1706  0.6958  0.3579
   17DOPE  H13X 2176   1.128   0.101  15.026  1.7096 -0.7891  2.3361
   17DOPE  H13Y 2177   1.094  -0.060  15.096 -0.6666  1.3762  1.2215
   17DOPE  C314 2178   1.073  -0.051  14.879 -0.3198  0.2326  0.3395
   17DOPE  H14X 2179   1.004  -0.137  14.880 -1.3110  0.9985 -0.1747
   17DOPE  H14Y 2180   1.175  -0.089  14.858 -0.0174  0.0080  2.0912
   17DOPE  C315 2181   1.038   0.031  14.753  0.6972 -0.1954  0.6689
   17DOPE  H15X 2182   1.098   0.124  14.737 -0.8327  0.8023  0.4882
   17DOPE  H15Y 2183   0.933   0.058  14.778  0.0451 -0.9050 -1.1679
   17DOPE  C316 2184   1.045  -0.051  14.618 -0.2254  0.1023 -0.0521
   17DOPE  H16X 2185   0.992  -0.148  14.632 -0.3405 -0.1570 -2.0091
   17DOPE  H16Y 2186   1.149  -0.081  14.594 -0.7773 -2.3623  0.3756
   17DOPE  C317 2187   0.978   0.017  14.489  0.2090 -0.1869  0.8022
   17DOPE  H17X 2188   0.870   0.035  14.511 -0.5013 -2.5357 -0.3437
   17DOPE  H17Y 2189   1.032   0.111  14.465 -1.5406  0.1577 -2.3106
   17DOPE  C318 2190   0.988  -0.064  14.360  0.0178  0.3061 -0.1214
   17DOPE  H18X 2191   0.942  -0.166  14.362  1.6137 -0.5156 -1.9958
   17DOPE  H18Y 2192   0.936  -0.021  14.272  0.4175  0.3299 -0.3456
   17DOPE  H18Z 2193   1.093  -0.071  14.326 -0.5739  0.2895 -2.0238
   18DOPE     N 2194   5.260   4.855  16.691 -0.2986 -0.0019 -0.1221
   18DOPE   HN1 2195   5.189   4.931  16.697  0.3921  0.9364 -2.6317
   18DOPE   HN2 2196   5.271   4.832  16.590  0.1620 -0.1698 -0.0373
   18DOPE   HN3 2197   5.243   4.765  16.741  0.0030  0.6261  1.1578
   18DOPE   C12 2198   5.385   4.917  16.749 -0.3379 -0.2433  0.8707
   18DOPE  H12A 2199   5.368   4.922  16.859 -0.2880 -0.5306  0.8937
   18DOPE  H12B 2200   5.381   5.016  16.700 -1.5441 -0.6454  0.1037
   18DOPE   C11 2201   5.514   4.838  16.714  0.2921  0.9173 -0.1141
   18DOPE  H11A 2202   5.603   4.890  16.756 -0.7127  1.0462  2.0183
   18DOPE  H11B 2203   5.521   4.829  16.604  0.5073  1.0344 -0.1099
   18DOPE     P 2204   5.655   4.625  16.768  0.0169  0.1756 -0.0860
   18DOPE   O13 2205   5.639   4.491  16.825  0.7295 -0.7501 -0.1172
   18DOPE   O14 2206   5.745   4.716  16.842  0.0180  0.1243  0.0117
   18DOPE   O11 2207   5.682   4.620  16.611 -0.4167 -0.1755  0.4466
   18DOPE   O12 2208   5.507   4.700  16.774 -0.4534 -0.0100 -1.0569
   18DOPE    C1 2209   5.574   4.551  16.533  0.1264 -0.3672 -0.4832
   18DOPE    HA 2210   5.508   4.625  16.483 -0.1700 -0.1918  0.1514
   18DOPE    HB 2211   5.514   4.475  16.588 -1.5716 -0.1317 -1.9360
   18DOPE    C2 2212   5.642   4.469  16.415 -0.3268  0.2444  0.2926
   18DOPE    HS 2213   5.689   4.382  16.465  0.0445 -0.5600 -1.3647
   18DOPE   O21 2214   5.741   4.544  16.348  0.2379  0.3472 -0.2161
   18DOPE   C21 2215   5.844   4.467  16.299 -0.0310  0.7206 -0.5171
   18DOPE   O22 2216   5.861   4.348  16.325  0.1364 -0.1788 -0.7246
   18DOPE   C22 2217   5.923   4.556  16.202  0.1785  0.0552  0.3827
   18DOPE   H2R 2218   6.010   4.499  16.163  0.1665  0.7367 -0.6501
   18DOPE   H2S 2219   5.946   4.650  16.256  1.0760  0.1902 -0.2148
   18DOPE    C3 2220   5.555   4.414  16.300 -0.7035 -0.3892 -0.4285
   18DOPE    HX 2221   5.481   4.349  16.351  0.4913 -1.8184 -0.4619
   18DOPE    HY 2222   5.622   4.366  16.226 -1.3394 -0.5485 -0.9074
   18DOPE   O31 2223   5.476   4.510  16.225 -0.4543 -0.4059  0.7374
   18DOPE   C31 2224   5.379   4.443  16.150 -0.3021  0.1238  0.4128
   18DOPE   O32 2225   5.369   4.320  16.142  0.1703  0.3939 -0.1631
   18DOPE   C32 2226   5.291   4.553  16.091  0.0240  0.4267  0.6048
   18DOPE   H2X 2227   5.228   4.587  16.176  1.6559  1.5212  1.4441
   18DOPE   H2Y 2228   5.360   4.630  16.051 -0.7364 -0.1303 -1.9291
   18DOPE   C23 2229   5.832   4.585  16.083 -0.1992 -0.4135 -0.1338
   18DOPE   H3R 2230   5.853   4.687  16.044 -1.5353  0.2824  0.8915
   18DOPE   H3S 2231   5.726   4.607  16.108  0.0015  2.1545 -1.2449
   18DOPE   C24 2232   5.845   4.476  15.971 -0.0115  0.0068 -0.3173
   18DOPE   H4R 2233   5.832   4.371  16.003  1.4128 -0.8627 -2.3833
   18DOPE   H4S 2234   5.943   4.490  15.921 -0.2646  0.5530 -0.6714
   18DOPE   C25 2235   5.744   4.498  15.861 -0.3112  0.0972  0.1352
   18DOPE   H5R 2236   5.720   4.606  15.858 -0.9635 -0.0434  0.0675
   18DOPE   H5S 2237   5.649   4.446  15.885  0.2957 -1.2584 -0.2750
   18DOPE   C26 2238   5.806   4.449  15.731  0.1484 -0.0291  0.5135
   18DOPE   H6R 2239   5.825   4.341  15.745 -0.8263 -0.0285  2.2159
   18DOPE   H6S 2240   5.907   4.486  15.701 -0.6675  1.1373 -0.9104
   18DOPE   C27 2241   5.714   4.478  15.611 -0.2185 -0.1531  1.2402
   18DOPE   H7R 2242   5.721   4.588  15.592 -1.0958 -0.0296  1.5520
   18DOPE   H7S 2243   5.609   4.452  15.638 -0.1064 -2.9294 -0.6095
   18DOPE   C28 2244   5.744   4.400  15.486 -0.0049 -0.6443  0.1425
   18DOPE   H8R 2245   5.652   4.418  15.426 -2.1300  1.6281  3.7322
   18DOPE   H8S 2246   5.754   4.294  15.515 -4.0520 -1.2257 -0.0150
   18DOPE   C29 2247   5.870   4.458  15.427 -0.5594 -0.1550  0.6907
   18DOPE   H9R 2248   5.956   4.470  15.495 -0.7650 -1.3027  1.1875
   18DOPE  C210 2249   5.892   4.493  15.299 -0.2374 -0.9158  0.3363
   18DOPE  H10R 2250   5.997   4.520  15.279  0.7575 -1.3427  4.0390
   18DOPE  C211 2251   5.793   4.504  15.190  0.5590  0.2578  0.5804
   18DOPE  H11R 2252   5.760   4.607  15.215 -0.4764 -0.7325  3.9045
   18DOPE  H11S 2253   5.705   4.437  15.201  0.2801  0.2092 -1.5430
   18DOPE  C212 2254   5.843   4.503  15.041  0.3803 -0.2863 -0.2194
   18DOPE  H12R 2255   5.919   4.583  15.028 -1.3975  1.6199  0.6362
   18DOPE  H12S 2256   5.756   4.520  14.975 -0.5153  0.7909  1.1864
   18DOPE  C213 2257   5.909   4.373  15.008  0.1748 -0.3359  0.1562
   18DOPE  H13R 2258   5.841   4.289  15.034 -2.6151  1.0985 -2.0019
   18DOPE  H13S 2259   5.999   4.378  15.073  0.4537 -0.1363 -0.2351
   18DOPE  C214 2260   5.953   4.368  14.859 -0.4635  0.0252  0.0142
   18DOPE  H14R 2261   5.866   4.370  14.790 -1.1450 -0.2912  0.8477
   18DOPE  H14S 2262   6.001   4.269  14.847 -2.2510 -0.6417 -2.1140
   18DOPE  C215 2263   6.054   4.474  14.806 -0.2515 -0.1621  0.0248
   18DOPE  H15R 2264   6.149   4.460  14.860 -0.6688 -2.3260  0.2571
   18DOPE  H15S 2265   6.034   4.579  14.836 -0.6770 -0.2811  0.1686
   18DOPE  C216 2266   6.070   4.462  14.659  0.1633 -0.3784  0.4488
   18DOPE  H16R 2267   5.968   4.485  14.620  0.7153 -3.1845 -3.2399
   18DOPE  H16S 2268   6.097   4.362  14.620  0.3438  0.2694 -1.2078
   18DOPE  C217 2269   6.169   4.559  14.588  0.1643  0.1705 -0.5924
   18DOPE  H17R 2270   6.269   4.553  14.636 -1.0125 -0.5085  1.8993
   18DOPE  H17S 2271   6.130   4.662  14.606  2.7069  0.9057  1.2135
   18DOPE  C218 2272   6.176   4.536  14.442  0.4850  0.6735 -0.4956
   18DOPE  H18R 2273   6.256   4.597  14.395  0.6457  0.0921 -0.9891
   18DOPE  H18S 2274   6.080   4.572  14.400 -1.1890 -1.3887  1.3336
   18DOPE  H18T 2275   6.175   4.429  14.413  0.0213  1.1314 -2.3002
   18DOPE   C33 2276   5.206   4.516  15.963  0.8374  0.1829  0.2795
   18DOPE   H3X 2277   5.167   4.614  15.927  1.7361 -0.5394 -2.9910
   18DOPE   H3Y 2278   5.119   4.449  15.982 -0.1604  1.2559 -0.3651
   18DOPE   C34 2279   5.279   4.462  15.832  0.0224 -0.5069 -0.0595
   18DOPE   H4X 2280   5.359   4.537  15.812 -0.5669 -0.0548 -0.8122
   18DOPE   H4Y 2281   5.318   4.363  15.864  1.6549  0.0512 -0.1897
   18DOPE   C35 2282   5.172   4.453  15.722 -0.5076  1.1919  0.1166
   18DOPE   H5X 2283   5.150   4.551  15.674 -2.4072 -1.2364 -4.6836
   18DOPE   H5Y 2284   5.097   4.375  15.745  1.7731 -0.8219  1.2144
   18DOPE   C36 2285   5.237   4.405  15.584  0.0214 -0.4123  0.3837
   18DOPE   H6X 2286   5.265   4.298  15.595  0.3682 -0.3106  0.4990
   18DOPE   H6Y 2287   5.326   4.469  15.568  0.8089 -1.0700  1.9545
   18DOPE   C37 2288   5.135   4.427  15.464  0.0423 -0.3265  0.1635
   18DOPE   H7X 2289   5.053   4.357  15.488 -2.1330  2.8200  2.7462
   18DOPE   H7Y 2290   5.084   4.526  15.466 -2.4115 -1.4376 -2.4251
   18DOPE   C38 2291   5.197   4.394  15.330  0.0355 -0.2274  0.4444
   18DOPE   H8X 2292   5.122   4.382  15.248 -2.0423 -2.2270  2.4991
   18DOPE   H8Y 2293   5.253   4.299  15.347  0.8587  0.3825  1.2395
   18DOPE   C39 2294   5.291   4.500  15.279 -0.5159  0.3486 -0.0663
   18DOPE   H9X 2295   5.283   4.598  15.328  0.0528  0.4906 -0.2411
   18DOPE  C310 2296   5.393   4.473  15.186 -0.2984  0.6312 -0.6148
   18DOPE  H10X 2297   5.459   4.557  15.157 -0.3969  0.4106 -1.4922
   18DOPE  C311 2298   5.415   4.346  15.114  0.5747  0.2494  0.0525
   18DOPE  H11X 2299   5.524   4.326  15.117  0.5837 -0.3047 -2.3046
   18DOPE  H11Y 2300   5.376   4.253  15.160 -3.8477  1.6329 -0.4422
   18DOPE  C312 2301   5.378   4.354  14.962 -0.1965  0.5214 -0.8403
   18DOPE  H12X 2302   5.453   4.425  14.921 -0.3616  0.7420 -0.7639
   18DOPE  H12Y 2303   5.275   4.396  14.954 -0.5583 -0.1464  0.0481
   18DOPE  C313 2304   5.382   4.226  14.886  0.0566  0.3254 -0.1016
   18DOPE  H13X 2305   5.484   4.184  14.875 -0.7711 -1.6800 -0.6926
   18DOPE  H13Y 2306   5.322   4.142  14.929  0.7501 -0.3299 -0.3993
   18DOPE  C314 2307   5.339   4.248  14.739  0.8755  0.6713  0.2082
   18DOPE  H14X 2308   5.237   4.290  14.727  0.1951 -0.1003  2.8064
   18DOPE  H14Y 2309   5.349   4.146  14.695  1.0088  0.6879  0.1987
   18DOPE  C315 2310   5.431   4.335  14.659 -0.4330  0.0173 -0.2412
   18DOPE  H15X 2311   5.531   4.298  14.692 -0.4136  0.5352  0.2964
   18DOPE  H15Y 2312   5.417   4.442  14.684 -1.6290 -0.5435  1.7170
   18DOPE  C316 2313   5.403   4.311  14.506  0.4254 -0.1285 -0.3493
   18DOPE  H16X 2314   5.459   4.391  14.454  0.4083 -0.0970 -0.3194
   18DOPE  H16Y 2315   5.301   4.311  14.462 -0.2775  0.4250  1.1788
   18DOPE  C317 2316   5.456   4.171  14.459  0.3688  0.0728  0.5546
   18DOPE  H17X 2317   5.551   4.149  14.512  0.8882 -1.6388 -0.9961
   18DOPE  H17Y 2318   5.379   4.092  14.478  0.1970 -0.4040 -1.8896
   18DOPE  C318 2319   5.497   4.158  14.311  0.4806 -0.6174 -0.4278
   18DOPE  H18X 2320   5.560   4.242  14.275 -0.6967 -0.2377 -1.6766
   18DOPE  H18Y 2321   5.548   4.061  14.294 -1.3472 -1.7098  0.1015
   18DOPE  H18Z 2322   5.411   4.163  14.240  0.5511 -0.9194 -0.5366
   19DOPE     N 2323   5.706   5.287  16.500  0.1560 -0.5563  0.1462
   19DOPE   HN1 2324   5.804   5.302  16.468  0.9585 -0.4390  2.4677
   19DOPE   HN2 2325   5.675   5.189  16.487  0.6690 -0.7043  0.0004
   19DOPE   HN3 2326   5.640   5.339  16.438  2.0224  1.3955 -0.3597
   19DOPE   C12 2327   5.693   5.316  16.645 -0.1699  0.4005 -0.5849
   19DOPE  H12A 2328   5.669   5.423  16.660  1.0767  0.8248 -1.3939
   19DOPE  H12B 2329   5.795   5.300  16.688 -0.4299  0.0823 -0.0766
   19DOPE   C11 2330   5.592   5.220  16.704  0.2252  0.5508  0.0129
   19DOPE  H11A 2331   5.591   5.226  16.815 -1.2563  1.3739 -0.0148
   19DOPE  H11B 2332   5.622   5.115  16.687 -2.6627 -0.2286 -0.9553
   19DOPE     P 2333   5.364   5.354  16.703  0.1064  0.0346 -0.0890
   19DOPE   O13 2334   5.436   5.483  16.713  0.4445  0.3289  0.1879
   19DOPE   O14 2335   5.301   5.307  16.830  0.9129 -0.0725 -0.0560
   19DOPE   O11 2336   5.253   5.361  16.586  0.0738  0.2146  0.6382
   19DOPE   O12 2337   5.460   5.241  16.646 -0.7604 -0.6022 -0.1870
   19DOPE    C1 2338   5.300   5.396  16.455 -0.1612  0.7287 -0.1599
   19DOPE    HA 2339   5.374   5.479  16.458 -1.7046  2.2022  3.9452
   19DOPE    HB 2340   5.213   5.445  16.405  1.2334  3.4087 -0.1194
   19DOPE    C2 2341   5.331   5.276  16.364  0.0249  0.2365  0.2330
   19DOPE    HS 2342   5.421   5.222  16.403 -0.0844  0.1662  0.3889
   19DOPE   O21 2343   5.366   5.314  16.235  0.6752  0.3329 -0.3153
   19DOPE   C21 2344   5.474   5.385  16.217 -0.5644 -0.5557  0.0873
   19DOPE   O22 2345   5.564   5.407  16.302 -0.0539 -0.2041 -0.4844
   19DOPE   C22 2346   5.475   5.456  16.078 -0.2209 -0.1947 -0.3262
   19DOPE   H2R 2347   5.558   5.530  16.080  1.5884 -2.1089 -0.2276
   19DOPE   H2S 2348   5.376   5.497  16.050 -0.5562 -0.5489  0.2980
   19DOPE    C3 2349   5.212   5.174  16.359  0.9126  0.1824 -0.0065
   19DOPE    HX 2350   5.132   5.228  16.304  1.3608 -0.7775 -1.6971
   19DOPE    HY 2351   5.172   5.154  16.461 -1.4809  3.1782 -0.2025
   19DOPE   O31 2352   5.232   5.058  16.271  0.3168  0.9507  0.1137
   19DOPE   C31 2353   5.311   4.966  16.321 -0.5761 -0.5864  0.5241
   19DOPE   O32 2354   5.350   4.965  16.438 -0.4445 -0.5174 -0.1044
   19DOPE   C32 2355   5.365   4.872  16.215  0.1802 -0.2956  0.0582
   19DOPE   H2X 2356   5.424   4.793  16.266  2.0398  0.9474 -0.0413
   19DOPE   H2Y 2357   5.273   4.847  16.159  0.3054  1.6319 -1.0854
   19DOPE   C23 2358   5.519   5.352  15.976 -0.1572 -0.2936  0.6988
   19DOPE   H3R 2359   5.448   5.267  15.970 -0.1818 -0.1773 -2.3443
   19DOPE   H3S 2360   5.626   5.320  15.976  1.0667  2.8909 -3.4309
   19DOPE   C24 2361   5.536   5.418  15.835  0.2206  0.1773 -0.0686
   19DOPE   H4R 2362   5.606   5.505  15.833  1.2673 -0.6609 -0.9153
   19DOPE   H4S 2363   5.440   5.465  15.807 -0.2174  0.7656  2.1914
   19DOPE   C25 2364   5.572   5.313  15.729 -0.3408 -1.0875 -0.8507
   19DOPE   H5R 2365   5.486   5.245  15.710 -2.0328  1.0443 -1.1837
   19DOPE   H5S 2366   5.659   5.250  15.757 -1.2576 -2.7527 -1.6248
   19DOPE   C26 2367   5.595   5.397  15.594 -0.3342  0.2086 -0.5993
   19DOPE   H6R 2368   5.653   5.488  15.618  1.7439 -1.3556  0.5949
   19DOPE   H6S 2369   5.497   5.433  15.555 -0.7911  0.3423  0.6440
   19DOPE   C27 2370   5.657   5.325  15.479 -0.0052  0.2517  0.4311
   19DOPE   H7R 2371   5.577   5.257  15.441 -1.7016  2.6722 -0.5656
   19DOPE   H7S 2372   5.743   5.267  15.519 -0.0249  0.1445  0.3208
   19DOPE   C28 2373   5.719   5.410  15.368  0.2548 -0.0158 -0.4096
   19DOPE   H8R 2374   5.798   5.484  15.394  1.1885  0.7329 -4.5364
   19DOPE   H8S 2375   5.631   5.468  15.334 -0.0151  1.0354  1.9438
   19DOPE   C29 2376   5.768   5.325  15.253  0.0569  0.8035  0.7880
   19DOPE   H9R 2377   5.850   5.257  15.280  0.7655  0.1193 -2.5555
   19DOPE  C210 2378   5.741   5.344  15.119 -0.1393 -0.2024  0.1797
   19DOPE  H10R 2379   5.786   5.273  15.049  1.4892 -0.1612  1.1351
   19DOPE  C211 2380   5.665   5.453  15.050 -1.1145 -0.6610  0.1778
   19DOPE  H11R 2381   5.643   5.542  15.112 -0.3620  0.0986 -0.6218
   19DOPE  H11S 2382   5.571   5.407  15.011 -2.3040  2.7081 -1.2846
   19DOPE  C212 2383   5.743   5.507  14.926  0.2108  0.1499  0.3999
   19DOPE  H12R 2384   5.850   5.493  14.951  0.7674 -0.4851 -2.0488
   19DOPE  H12S 2385   5.718   5.615  14.919  2.5105  0.6800 -0.5265
   19DOPE  C213 2386   5.716   5.423  14.794  0.4193  0.0031 -0.6094
   19DOPE  H13R 2387   5.620   5.464  14.756  0.3309 -1.0756 -1.5648
   19DOPE  H13S 2388   5.721   5.315  14.820 -0.0798  0.3769  1.2037
   19DOPE  C214 2389   5.819   5.455  14.692 -0.5970  0.0356 -0.0682
   19DOPE  H14R 2390   5.920   5.431  14.732  0.3505  1.1798 -1.6336
   19DOPE  H14S 2391   5.819   5.559  14.653  2.1110 -1.1657 -3.9103
   19DOPE  C215 2392   5.800   5.358  14.566  0.2705 -0.1890 -0.1709
   19DOPE  H15R 2393   5.691   5.346  14.548  0.3895 -0.8599 -0.4955
   19DOPE  H15S 2394   5.831   5.258  14.602  1.8465  0.2225 -0.3234
   19DOPE  C216 2395   5.883   5.399  14.449  0.1931 -0.4383 -0.1018
   19DOPE  H16R 2396   5.900   5.302  14.397 -0.8343  0.3101 -1.8908
   19DOPE  H16S 2397   5.979   5.430  14.497 -0.1035  0.0662  0.1722
   19DOPE  C217 2398   5.828   5.496  14.349 -0.0644 -0.7021  1.0623
   19DOPE  H17R 2399   5.807   5.583  14.416 -0.9700 -0.3598  0.3681
   19DOPE  H17S 2400   5.728   5.467  14.309 -0.1694 -1.1778  1.6584
   19DOPE  C218 2401   5.932   5.535  14.235 -0.0460  0.5992 -0.6182
   19DOPE  H18R 2402   6.028   5.561  14.284  0.2094 -0.8453 -0.3093
   19DOPE  H18S 2403   5.885   5.616  14.174 -0.8769  0.3121 -0.3635
   19DOPE  H18T 2404   5.952   5.444  14.175  3.7421  1.0791 -0.3406
   19DOPE   C33 2405   5.453   4.951  16.123  0.1388 -0.4664  0.1389
   19DOPE   H3X 2406   5.545   4.951  16.185  0.3800 -1.3214 -0.2060
   19DOPE   H3Y 2407   5.417   5.052  16.091  1.5842  0.3864  1.1359
   19DOPE   C34 2408   5.476   4.888  15.991 -0.2134 -0.3508  0.9520
   19DOPE   H4X 2409   5.573   4.929  15.956 -0.6307  0.4771  0.7465
   19DOPE   H4Y 2410   5.487   4.777  15.988  1.9288 -0.3612 -4.8362
   19DOPE   C35 2411   5.377   4.938  15.881 -0.4752  0.3066 -0.6466
   19DOPE   H5X 2412   5.404   5.046  15.872  1.5650 -0.0826  0.3635
   19DOPE   H5Y 2413   5.272   4.921  15.914 -0.4111 -1.5827 -1.3090
   19DOPE   C36 2414   5.398   4.881  15.744 -0.0069  0.0049  0.3779
   19DOPE   H6X 2415   5.317   4.924  15.681  0.0927 -0.3023  0.0391
   19DOPE   H6Y 2416   5.375   4.772  15.750 -0.3791  0.1120  1.0022
   19DOPE   C37 2417   5.527   4.924  15.678  0.0146  0.1203  0.4994
   19DOPE   H7X 2418   5.570   5.019  15.718  0.3173  1.0299 -1.8531
   19DOPE   H7Y 2419   5.606   4.850  15.702  0.0456 -0.2949 -0.8363
   19DOPE   C38 2420   5.511   4.961  15.525 -0.2984 -0.2779  0.7798
   19DOPE   H8X 2421   5.598   5.021  15.489 -1.4090  0.1883 -1.2949
   19DOPE   H8Y 2422   5.414   5.014  15.511  0.7206  1.4931 -0.0194
   19DOPE   C39 2423   5.512   4.829  15.446  0.3347 -0.0593 -0.4894
   19DOPE   H9X 2424   5.447   4.749  15.485  0.1078  1.0167  1.4542
   19DOPE  C310 2425   5.572   4.819  15.327  0.7600  0.6785  0.5261
   19DOPE  H10X 2426   5.575   4.727  15.266  1.0446  0.7805  0.3844
   19DOPE  C311 2427   5.643   4.927  15.258 -0.2783  0.4404  0.8604
   19DOPE  H11X 2428   5.669   5.021  15.312  0.4924  0.2267  0.8730
   19DOPE  H11Y 2429   5.735   4.893  15.206 -1.2217 -2.5468  0.9928
   19DOPE  C312 2430   5.548   4.973  15.143  1.1193 -0.8350  0.2258
   19DOPE  H12X 2431   5.571   5.077  15.111 -2.2668 -0.0068  0.1278
   19DOPE  H12Y 2432   5.446   4.978  15.187  0.9459  0.3088 -0.2715
   19DOPE  C313 2433   5.527   4.887  15.021  0.2810  0.6642 -0.8138
   19DOPE  H13X 2434   5.482   4.787  15.044  0.3858  1.2471  2.2891
   19DOPE  H13Y 2435   5.457   4.946  14.958  0.1850 -0.9493 -2.3267
   19DOPE  C314 2436   5.649   4.846  14.938  0.1102  0.3875  0.0486
   19DOPE  H14X 2437   5.715   4.778  14.997  0.4501  1.2583  0.6914
   19DOPE  H14Y 2438   5.707   4.933  14.902 -0.4869  0.5438 -0.5458
   19DOPE  C315 2439   5.596   4.786  14.804 -0.2386  0.2273  0.4135
   19DOPE  H15X 2440   5.545   4.871  14.753  0.7591  0.3168 -0.4699
   19DOPE  H15Y 2441   5.519   4.708  14.823  1.4981 -1.8730 -0.7692
   19DOPE  C316 2442   5.705   4.731  14.721 -0.4233  0.9362 -0.0209
   19DOPE  H16X 2443   5.739   4.643  14.780  1.4210  2.2844  1.0113
   19DOPE  H16Y 2444   5.793   4.791  14.691 -0.4048  0.9316  0.0255
   19DOPE  C317 2445   5.637   4.684  14.590 -0.0755  0.4168  0.5684
   19DOPE  H17X 2446   5.559   4.613  14.626  0.7377  0.9180  3.5756
   19DOPE  H17Y 2447   5.589   4.765  14.532  0.5283  0.5696  0.2684
   19DOPE  C318 2448   5.730   4.602  14.504  0.2014  0.2604 -0.4202
   19DOPE  H18X 2449   5.744   4.506  14.557 -1.5389  0.4317  0.4281
   19DOPE  H18Y 2450   5.692   4.589  14.400 -0.5550 -1.7847  0.0735
   19DOPE  H18Z 2451   5.829   4.651  14.501  0.9247 -1.1214  0.0112
   20DOPE     N 2452   3.106   0.506  17.096 -0.5021  0.0118 -0.5918
   20DOPE   HN1 2453   3.023   0.559  17.063 -0.5966  0.7124  0.7396
   20DOPE   HN2 2454   3.161   0.478  17.012  0.5428 -1.4518  0.5336
   20DOPE   HN3 2455   3.080   0.422  17.151  1.1039 -0.1416 -0.0180
   20DOPE   C12 2456   3.194   0.577  17.198 -0.0686  0.0058  0.0824
   20DOPE  H12A 2457   3.276   0.504  17.214 -1.8808 -2.0160  0.4811
   20DOPE  H12B 2458   3.132   0.592  17.289  1.5365  1.6540  0.9644
   20DOPE   C11 2459   3.238   0.706  17.134 -0.6617 -0.0526 -0.4973
   20DOPE  H11A 2460   3.294   0.762  17.212 -2.8014  0.3079  0.8781
   20DOPE  H11B 2461   3.151   0.771  17.111 -0.5292 -0.1939 -1.4290
   20DOPE     P 2462   3.399   0.783  16.945 -0.0563 -0.0086 -0.1038
   20DOPE   O13 2463   3.534   0.729  16.944  0.9797 -0.3914  0.5397
   20DOPE   O14 2464   3.376   0.917  17.009 -0.4369 -0.2627  0.0937
   20DOPE   O11 2465   3.339   0.794  16.799 -0.3892 -0.6317 -0.5507
   20DOPE   O12 2466   3.313   0.677  17.018 -0.2432  0.1032 -0.5864
   20DOPE    C1 2467   3.314   0.677  16.717  0.2287 -0.1186  0.5619
   20DOPE    HA 2468   3.209   0.670  16.682  0.1705 -0.2246  0.7559
   20DOPE    HB 2469   3.333   0.582  16.772  1.2316 -0.0813  0.2978
   20DOPE    C2 2470   3.412   0.684  16.592  0.0872  0.1786  0.7049
   20DOPE    HS 2471   3.516   0.686  16.632  0.7164 -0.9310 -0.7676
   20DOPE   O21 2472   3.394   0.797  16.511  0.2970  0.0184 -0.5138
   20DOPE   C21 2473   3.281   0.812  16.438  0.2716  0.0527 -0.7058
   20DOPE   O22 2474   3.181   0.744  16.450  0.1084 -0.3881  0.2591
   20DOPE   C22 2475   3.296   0.934  16.341  0.5983 -0.0267 -0.4972
   20DOPE   H2R 2476   3.405   0.932  16.323  0.4454  0.5357 -1.5354
   20DOPE   H2S 2477   3.269   1.025  16.399  2.3711 -0.1444  0.5669
   20DOPE    C3 2478   3.421   0.552  16.500 -0.1122  0.1701 -0.7297
   20DOPE    HX 2479   3.316   0.539  16.466 -0.9769  1.6514  1.1747
   20DOPE    HY 2480   3.448   0.467  16.567  0.1182  2.2906  2.0250
   20DOPE   O31 2481   3.498   0.558  16.383 -0.2878  0.3853 -0.1829
   20DOPE   C31 2482   3.629   0.562  16.391 -0.1737 -0.8416  0.7547
   20DOPE   O32 2483   3.691   0.560  16.493 -0.6190 -0.2678 -0.4000
   20DOPE   C32 2484   3.683   0.567  16.248 -0.0176  0.9304  0.6420
   20DOPE   H2X 2485   3.784   0.613  16.253  1.6211 -2.2315 -0.5701
   20DOPE   H2Y 2486   3.697   0.463  16.213  0.5717  0.7220  1.4701
   20DOPE   C23 2487   3.210   0.919  16.212  0.1566  0.1879 -0.4421
   20DOPE   H3R 2488   3.223   1.010  16.150 -0.1611 -0.1612 -1.0382
   20DOPE   H3S 2489   3.102   0.918  16.239  0.8068 -1.4230  2.4842
   20DOPE   C24 2490   3.258   0.795  16.129  1.0275 -0.1758 -0.0421
   20DOPE   H4R 2491   3.250   0.704  16.193  0.5598  1.0892  1.7930
   20DOPE   H4S 2492   3.364   0.816  16.105  1.2774 -3.0904 -2.0050
   20DOPE   C25 2493   3.151   0.779  16.010  0.0394 -0.4575  0.1504
   20DOPE   H5R 2494   3.047   0.806  16.038 -0.5133 -1.6491 -0.6865
   20DOPE   H5S 2495   3.153   0.673  15.976  0.1597 -0.1212 -0.9190
   20DOPE   C26 2496   3.185   0.857  15.882 -0.3707 -1.0788 -0.3102
   20DOPE   H6R 2497   3.292   0.841  15.858 -0.2132  0.8327 -1.0408
   20DOPE   H6S 2498   3.176   0.962  15.915 -0.2524 -0.9298 -0.7524
   20DOPE   C27 2499   3.091   0.831  15.764 -0.2727  0.1859  0.4118
   20DOPE   H7R 2500   2.991   0.879  15.767 -0.0714  0.6118  0.4508
   20DOPE   H7S 2501   3.083   0.721  15.754 -1.4051  0.2740  0.2572
   20DOPE   C28 2502   3.140   0.893  15.626  0.1300  0.6456  0.0702
   20DOPE   H8R 2503   3.170   0.999  15.639 -0.5002  0.6938  1.1672
   20DOPE   H8S 2504   3.053   0.898  15.556 -1.0346 -0.1496  1.4205
   20DOPE   C29 2505   3.257   0.818  15.572 -0.0585 -0.9310 -0.9934
   20DOPE   H9R 2506   3.347   0.832  15.633 -2.0557 -0.5054  2.0390
   20DOPE  C210 2507   3.264   0.751  15.455 -0.3898 -0.1373  0.7369
   20DOPE  H10R 2508   3.364   0.717  15.423 -0.8089 -1.4456  0.7434
   20DOPE  C211 2509   3.154   0.745  15.351  0.2368  0.4060 -0.0890
   20DOPE  H11R 2510   3.051   0.749  15.391 -0.6522  0.4591 -2.2529
   20DOPE  H11S 2511   3.162   0.653  15.289  0.0288  0.1929  0.2049
   20DOPE  C212 2512   3.155   0.865  15.255 -0.6311 -0.2542  0.4653
   20DOPE  H12R 2513   3.138   0.964  15.302 -1.1972  0.0990 -0.4583
   20DOPE  H12S 2514   3.072   0.864  15.181 -0.5200  0.3256  0.3227
   20DOPE  C213 2515   3.275   0.862  15.153 -0.1072 -0.1842 -0.3286
   20DOPE  H13R 2516   3.290   0.765  15.101 -0.8104 -1.5463  1.8459
   20DOPE  H13S 2517   3.369   0.892  15.205 -0.5989 -0.6284  0.8617
   20DOPE  C214 2518   3.250   0.969  15.042 -0.4267  0.0071 -0.0127
   20DOPE  H14R 2519   3.315   1.054  15.071  0.0695 -0.5743  0.6299
   20DOPE  H14S 2520   3.146   1.007  15.040 -1.0253 -1.6026 -1.1657
   20DOPE  C215 2521   3.279   0.925  14.901 -0.6361  0.9350  0.1380
   20DOPE  H15R 2522   3.386   0.897  14.891 -0.8687  0.4651 -1.1368
   20DOPE  H15S 2523   3.267   1.012  14.834  0.8534 -1.1443 -3.0528
   20DOPE  C216 2524   3.187   0.814  14.851  0.5860 -0.5856 -0.3045
   20DOPE  H16R 2525   3.084   0.852  14.835  0.4220 -1.1902 -0.7360
   20DOPE  H16S 2526   3.151   0.740  14.925 -1.6792  0.0212 -0.7424
   20DOPE  C217 2527   3.239   0.743  14.722 -0.1787  0.0598 -0.3296
   20DOPE  H17R 2528   3.335   0.714  14.770 -1.3235  1.1065  2.8477
   20DOPE  H17S 2529   3.243   0.821  14.643 -0.8025  0.1760 -0.2486
   20DOPE  C218 2530   3.139   0.639  14.680  0.4543  0.2908  0.0905
   20DOPE  H18R 2531   3.048   0.693  14.646 -1.1063 -1.7242  0.8404
   20DOPE  H18S 2532   3.112   0.580  14.771 -0.4530  1.2293  0.4480
   20DOPE  H18T 2533   3.170   0.568  14.601  0.5725 -0.3584  0.7045
   20DOPE   C33 2534   3.599   0.649  16.153 -0.1746  0.6571  0.9436
   20DOPE   H3X 2535   3.614   0.759  16.162  0.3978  0.7174 -0.5707
   20DOPE   H3Y 2536   3.490   0.627  16.158 -0.3164  0.8316 -0.8133
   20DOPE   C34 2537   3.644   0.634  16.004 -0.5059  0.5363  0.2572
   20DOPE   H4X 2538   3.741   0.681  15.980  0.0506  0.0483  1.4869
   20DOPE   H4Y 2539   3.658   0.525  15.984  0.3156  0.8659 -1.0814
   20DOPE   C35 2540   3.532   0.673  15.905 -0.7096 -0.3146 -0.3486
   20DOPE   H5X 2541   3.530   0.783  15.899  0.0348 -0.1320  1.8871
   20DOPE   H5Y 2542   3.433   0.638  15.944 -1.5961 -0.3652 -2.5397
   20DOPE   C36 2543   3.554   0.612  15.767  1.0033 -0.0098  0.5122
   20DOPE   H6X 2544   3.463   0.649  15.715 -0.7434 -2.4472  1.6335
   20DOPE   H6Y 2545   3.545   0.502  15.771 -0.6995  0.0477 -0.6769
   20DOPE   C37 2546   3.673   0.666  15.683 -0.6416 -0.5057  0.7810
   20DOPE   H7X 2547   3.761   0.660  15.751  2.0481 -0.6103 -2.4661
   20DOPE   H7Y 2548   3.677   0.595  15.598  0.2946 -0.4938  0.8037
   20DOPE   C38 2549   3.661   0.815  15.650 -0.5848 -0.3007 -0.2201
   20DOPE   H8X 2550   3.672   0.879  15.740  1.7549  2.0556 -2.0403
   20DOPE   H8Y 2551   3.560   0.828  15.605 -0.9199 -0.1185  0.5636
   20DOPE   C39 2552   3.772   0.861  15.561 -0.0158  0.8224 -0.2682
   20DOPE   H9X 2553   3.872   0.858  15.605  0.6026 -0.5468 -1.7030
   20DOPE  C310 2554   3.762   0.868  15.429 -0.1736  0.9813  1.5616
   20DOPE  H10X 2555   3.852   0.887  15.368 -0.4356  2.0926  1.4972
   20DOPE  C311 2556   3.637   0.836  15.349 -0.0972 -0.6943  1.0751
   20DOPE  H11X 2557   3.602   0.730  15.353 -2.3319 -0.0625 -0.1872
   20DOPE  H11Y 2558   3.553   0.895  15.393 -2.1638  0.5623 -3.9162
   20DOPE  C312 2559   3.662   0.876  15.202 -0.1239  0.9317  0.8075
   20DOPE  H12X 2560   3.698   0.982  15.206  0.5109  0.6988  3.6685
   20DOPE  H12Y 2561   3.571   0.867  15.140  0.3701 -0.9914  0.3018
   20DOPE  C313 2562   3.775   0.798  15.130  0.3519  0.5583  0.5323
   20DOPE  H13X 2563   3.864   0.783  15.194  1.1251 -4.3731 -1.2936
   20DOPE  H13Y 2564   3.736   0.699  15.098  0.2734  1.2928 -1.9348
   20DOPE  C314 2565   3.823   0.870  15.003  0.1032 -0.2676  0.4232
   20DOPE  H14X 2566   3.922   0.827  14.978  0.1671 -2.4719  3.8348
   20DOPE  H14Y 2567   3.836   0.977  15.029 -4.1632  1.2128 -2.5084
   20DOPE  C315 2568   3.715   0.867  14.891  0.3467 -0.0817  0.3775
   20DOPE  H15X 2569   3.753   0.924  14.804 -0.8734 -0.4684 -0.4374
   20DOPE  H15Y 2570   3.628   0.923  14.932  1.2216 -1.1700  4.0806
   20DOPE  C316 2571   3.676   0.727  14.847 -0.0801  0.3186 -0.0619
   20DOPE  H16X 2572   3.600   0.672  14.907 -0.6957 -1.0778 -1.9897
   20DOPE  H16Y 2573   3.756   0.650  14.841 -1.5537 -1.1966 -1.4233
   20DOPE  C317 2574   3.622   0.745  14.705 -0.7236 -0.7263  0.4330
   20DOPE  H17X 2575   3.551   0.662  14.684 -0.7416 -0.8785  1.0946
   20DOPE  H17Y 2576   3.567   0.841  14.705  1.0343  0.3514 -1.5092
   20DOPE  C318 2577   3.728   0.750  14.597  0.5593 -0.0952 -0.2570
   20DOPE  H18X 2578   3.681   0.784  14.502 -0.9500  0.2021  0.5623
   20DOPE  H18Y 2579   3.805   0.824  14.629 -1.1997  1.0051  1.7380
   20DOPE  H18Z 2580   3.771   0.648  14.585 -1.5646 -1.0683 -0.0713
   21DOPE     N 2581   1.129   0.905  16.891 -0.6724 -0.1992  0.3049
   21DOPE   HN1 2582   1.049   0.966  16.863  0.2897  1.8577  1.7585
   21DOPE   HN2 2583   1.181   0.873  16.807  0.1452  0.3643  0.5804
   21DOPE   HN3 2584   1.094   0.814  16.927  0.1051 -0.0707  1.4399
   21DOPE   C12 2585   1.224   0.973  16.990  0.0506 -0.3664 -0.5181
   21DOPE  H12A 2586   1.151   1.010  17.065  0.8347  1.5068 -0.6177
   21DOPE  H12B 2587   1.270   1.054  16.929 -1.7494  0.8665 -0.3027
   21DOPE   C11 2588   1.334   0.865  17.025 -0.0366  0.9896 -0.7145
   21DOPE  H11A 2589   1.278   0.779  17.069  0.1061 -0.1187 -2.6180
   21DOPE  H11B 2590   1.387   0.911  17.111 -0.2392  2.5957 -1.4151
   21DOPE     P 2591   1.559   0.864  16.890  0.0970 -0.1452 -0.2533
   21DOPE   O13 2592   1.639   0.742  16.894  0.3782 -0.1659  0.7261
   21DOPE   O14 2593   1.601   0.979  16.976  0.4874 -0.0092 -0.3084
   21DOPE   O11 2594   1.547   0.906  16.738 -0.2471  0.6527 -0.0668
   21DOPE   O12 2595   1.410   0.821  16.917 -0.1816 -0.5671  0.3709
   21DOPE    C1 2596   1.461   1.015  16.697  0.5116  0.3853  0.5724
   21DOPE    HA 2597   1.464   1.105  16.763 -0.1732  0.2607  0.7890
   21DOPE    HB 2598   1.360   0.969  16.694  0.9034 -0.4437 -1.2339
   21DOPE    C2 2599   1.487   1.054  16.554  0.1343 -0.0311  0.3088
   21DOPE    HS 2600   1.483   0.973  16.478 -0.5086  1.7174 -1.6066
   21DOPE   O21 2601   1.619   1.109  16.548 -0.0099 -0.3961  0.2076
   21DOPE   C21 2602   1.716   1.022  16.536 -0.0620 -0.8097 -0.5377
   21DOPE   O22 2603   1.711   0.914  16.485 -0.5794 -0.2323  0.2749
   21DOPE   C22 2604   1.846   1.077  16.598 -0.3016 -0.3005  0.3133
   21DOPE   H2R 2605   1.921   0.995  16.598 -0.6580 -0.6251  0.5111
   21DOPE   H2S 2606   1.828   1.110  16.702  1.5143  0.7774  0.3430
   21DOPE    C3 2607   1.396   1.167  16.495 -0.1739  0.4915  0.0845
   21DOPE    HX 2608   1.440   1.262  16.533  0.0262  0.3206  0.2861
   21DOPE    HY 2609   1.293   1.156  16.536  0.0937  1.4646  1.0777
   21DOPE   O31 2610   1.386   1.153  16.354 -0.2104  0.1681 -0.0151
   21DOPE   C31 2611   1.478   1.197  16.281 -0.1202 -0.3061  0.9243
   21DOPE   O32 2612   1.575   1.262  16.318 -0.0094 -0.7215  0.2556
   21DOPE   C32 2613   1.451   1.146  16.138 -0.2942  0.4164  0.3748
   21DOPE   H2X 2614   1.466   1.036  16.135 -0.5217  0.4053 -0.9588
   21DOPE   H2Y 2615   1.344   1.171  16.121  0.0993  2.5888  0.7123
   21DOPE   C23 2616   1.908   1.203  16.523 -0.1049 -0.3586 -0.6402
   21DOPE   H3R 2617   2.006   1.230  16.568 -1.2722  0.5042  1.5260
   21DOPE   H3S 2618   1.839   1.289  16.540  2.1872  2.0187 -2.4875
   21DOPE   C24 2619   1.915   1.182  16.362  0.2005  0.1426 -0.0905
   21DOPE   H4R 2620   1.808   1.162  16.339  0.4255 -0.3651 -0.7331
   21DOPE   H4S 2621   1.975   1.089  16.350 -1.5530 -1.2363  1.1740
   21DOPE   C25 2622   1.965   1.309  16.294  0.0032  0.7578  0.4590
   21DOPE   H5R 2623   2.069   1.305  16.332 -0.2300 -1.7514  0.9836
   21DOPE   H5S 2624   1.925   1.410  16.321  3.2277  2.3076 -0.0964
   21DOPE   C26 2625   1.963   1.302  16.139 -0.0036  0.9515  0.6647
   21DOPE   H6R 2626   1.857   1.309  16.104  0.5698 -0.5625 -1.5785
   21DOPE   H6S 2627   2.004   1.203  16.108  1.2841  1.4692  0.6653
   21DOPE   C27 2628   2.046   1.417  16.079 -0.1266 -0.8026 -0.3876
   21DOPE   H7R 2629   2.151   1.387  16.102 -0.0291 -0.2434 -0.0812
   21DOPE   H7S 2630   2.026   1.505  16.143  0.0509 -0.2030 -1.1351
   21DOPE   C28 2631   2.008   1.440  15.936 -0.0208 -0.2335  0.3486
   21DOPE   H8R 2632   1.902   1.471  15.921  0.1277  0.3268  0.4152
   21DOPE   H8S 2633   2.025   1.349  15.876 -0.9433 -0.8913  1.0554
   21DOPE   C29 2634   2.091   1.550  15.882 -0.3306 -0.6258  0.5389
   21DOPE   H9R 2635   2.127   1.618  15.961  0.7735 -1.8583  1.1289
   21DOPE  C210 2636   2.149   1.554  15.757  0.5981 -0.5876 -0.5905
   21DOPE  H10R 2637   2.213   1.641  15.739  1.8477 -1.2896  0.3030
   21DOPE  C211 2638   2.120   1.465  15.636  0.6655 -0.3527 -0.2023
   21DOPE  H11R 2639   2.036   1.395  15.656 -0.7485  1.5351  0.8311
   21DOPE  H11S 2640   2.212   1.415  15.601  1.0658 -0.6770  1.2553
   21DOPE  C212 2641   2.065   1.563  15.525 -0.7903  0.0954  0.3923
   21DOPE  H12R 2642   2.138   1.640  15.494  0.7261 -1.1357  0.7961
   21DOPE  H12S 2643   1.979   1.606  15.581  0.0856 -2.1940  3.8379
   21DOPE  C213 2644   2.031   1.484  15.391  0.3549 -0.0286 -0.3131
   21DOPE  H13R 2645   1.924   1.458  15.406  0.7041 -0.5744  1.6037
   21DOPE  H13S 2646   2.096   1.396  15.373  0.4084  0.2495 -1.5573
   21DOPE  C214 2647   2.052   1.575  15.275 -0.2003  0.0822  0.2933
   21DOPE  H14R 2648   2.155   1.616  15.273  0.6083 -1.8033  1.3383
   21DOPE  H14S 2649   1.968   1.648  15.266 -2.0926 -1.9406  0.6921
   21DOPE  C215 2650   2.052   1.482  15.150 -0.3154 -0.3024  0.3809
   21DOPE  H15R 2651   1.978   1.399  15.158 -1.0324  0.2494 -0.4128
   21DOPE  H15S 2652   2.154   1.442  15.136 -0.8577 -0.6598 -3.6360
   21DOPE  C216 2653   2.010   1.555  15.014 -0.0364 -0.3605 -0.3235
   21DOPE  H16R 2654   2.083   1.634  14.985  0.3167 -0.4274  0.3460
   21DOPE  H16S 2655   1.910   1.597  15.036 -0.9993 -1.0395 -2.9713
   21DOPE  C217 2656   1.973   1.455  14.900  1.2532  0.5198 -0.6590
   21DOPE  H17R 2657   1.899   1.499  14.830  2.2348  1.7076 -0.9982
   21DOPE  H17S 2658   1.927   1.362  14.937  0.4981  1.1238 -0.0403
   21DOPE  C218 2659   2.093   1.420  14.818  0.1921 -0.2444  0.6987
   21DOPE  H18R 2660   2.127   1.511  14.764  0.1424 -0.9435 -0.5583
   21DOPE  H18S 2661   2.064   1.345  14.740  2.3414  1.3796 -1.8573
   21DOPE  H18T 2662   2.170   1.362  14.874 -1.0514 -1.5699  1.0964
   21DOPE   C33 2663   1.560   1.183  16.035  0.4134 -0.2466 -0.7338
   21DOPE   H3X 2664   1.660   1.168  16.079 -0.4886 -0.7320  1.2655
   21DOPE   H3Y 2665   1.564   1.293  16.021 -1.4122  0.0099  0.4456
   21DOPE   C34 2666   1.555   1.111  15.891  0.1178  0.7773 -0.3251
   21DOPE   H4X 2667   1.577   1.003  15.902  0.9776  0.9344 -0.4029
   21DOPE   H4Y 2668   1.457   1.118  15.840  1.3026 -0.2985 -2.9072
   21DOPE   C35 2669   1.654   1.167  15.797 -0.4469 -0.0809  0.4583
   21DOPE   H5X 2670   1.758   1.152  15.833 -0.0068  3.5924  1.1540
   21DOPE   H5Y 2671   1.641   1.277  15.790  0.1830  0.0011  0.4526
   21DOPE   C36 2672   1.652   1.114  15.653  0.0529  0.3283 -0.1030
   21DOPE   H6X 2673   1.548   1.132  15.617  0.5699 -0.2259 -1.9877
   21DOPE   H6Y 2674   1.661   1.003  15.659  1.1095  0.4032 -0.0968
   21DOPE   C37 2675   1.754   1.159  15.551 -0.1643 -0.4349 -0.0297
   21DOPE   H7X 2676   1.728   1.262  15.520  1.2224 -0.4596 -1.3992
   21DOPE   H7Y 2677   1.853   1.153  15.600 -0.9521 -0.3628  1.6522
   21DOPE   C38 2678   1.742   1.060  15.438  0.2027 -0.6471  0.4610
   21DOPE   H8X 2679   1.642   1.075  15.393  1.0179 -0.0760 -1.2815
   21DOPE   H8Y 2680   1.756   0.955  15.469 -0.3387 -0.8600  0.0009
   21DOPE   C39 2681   1.853   1.098  15.343 -0.1660  0.0988 -0.3321
   21DOPE   H9X 2682   1.957   1.097  15.378  0.1125 -1.9280 -1.0701
   21DOPE  C310 2683   1.846   1.114  15.209  0.0792  0.4050 -0.2108
   21DOPE  H10X 2684   1.940   1.126  15.154 -0.2974 -1.1217 -1.2436
   21DOPE  C311 2685   1.724   1.132  15.120 -0.1051  0.0023  0.5292
   21DOPE  H11X 2686   1.627   1.118  15.174  0.1365 -1.8506  0.5499
   21DOPE  H11Y 2687   1.728   1.236  15.082 -0.0459 -0.4101 -0.6310
   21DOPE  C312 2688   1.721   1.038  14.995  0.1619  0.4354 -0.1557
   21DOPE  H12X 2689   1.620   1.043  14.948 -1.1382  3.8227  2.6096
   21DOPE  H12Y 2690   1.743   0.934  15.030 -0.6739 -0.5440 -2.3554
   21DOPE  C313 2691   1.818   1.081  14.888  0.0176 -0.1798 -0.3181
   21DOPE  H13X 2692   1.788   1.184  14.859 -2.5002 -1.0308 -0.9966
   21DOPE  H13Y 2693   1.914   1.085  14.944 -1.1420  1.5876  1.7357
   21DOPE  C314 2694   1.820   0.981  14.776  0.4827 -0.2056  0.0542
   21DOPE  H14X 2695   1.727   0.944  14.728  0.1079  1.0589 -0.2237
   21DOPE  H14Y 2696   1.876   0.893  14.813  0.3524 -0.3280 -0.0371
   21DOPE  C315 2697   1.908   1.032  14.657 -0.5084  0.3995 -0.4944
   21DOPE  H15X 2698   1.938   0.949  14.590 -0.9314  1.4598 -2.0443
   21DOPE  H15Y 2699   2.002   1.078  14.693  0.0576  0.7253 -2.2979
   21DOPE  C316 2700   1.825   1.126  14.577 -0.5692  0.2564  0.2348
   21DOPE  H16X 2701   1.788   1.208  14.642 -0.2745  1.5680 -1.1780
   21DOPE  H16Y 2702   1.735   1.069  14.547 -0.2749 -1.5184  2.4482
   21DOPE  C317 2703   1.889   1.191  14.450  0.1142 -0.9964  0.7346
   21DOPE  H17X 2704   1.807   1.231  14.388 -0.4008 -2.0123  0.7338
   21DOPE  H17Y 2705   1.957   1.278  14.459  0.2478 -0.6488 -2.5407
   21DOPE  C318 2706   1.964   1.091  14.359 -0.5579  0.2250  0.0903
   21DOPE  H18X 2707   2.068   1.080  14.398  0.0424  2.4710 -0.7182
   21DOPE  H18Y 2708   1.919   0.990  14.350 -1.6676  0.8364 -1.8178
   21DOPE  H18Z 2709   1.970   1.140  14.260  1.6981 -2.2696 -1.1225
   22DOPE     N 2710   6.435   5.375  16.524 -0.1407  0.0136  0.2165
   22DOPE   HN1 2711   6.416   5.279  16.488  2.3091 -0.5361  0.2025
   22DOPE   HN2 2712   6.536   5.374  16.548 -0.0206  0.8248 -0.2071
   22DOPE   HN3 2713   6.367   5.379  16.602 -1.5191 -1.1466 -0.8623
   22DOPE   C12 2714   6.410   5.482  16.423 -0.0737 -0.3896 -0.8075
   22DOPE  H12A 2715   6.499   5.531  16.376 -0.3566  0.0962 -0.8463
   22DOPE  H12B 2716   6.352   5.558  16.479 -1.1253 -1.0829 -0.9364
   22DOPE   C11 2717   6.323   5.434  16.309 -0.1442  0.1533  0.5948
   22DOPE  H11A 2718   6.382   5.377  16.234 -0.1965  1.6869 -0.6918
   22DOPE  H11B 2719   6.291   5.526  16.254 -0.5858 -0.7225 -0.6535
   22DOPE     P 2720   6.074   5.441  16.404 -0.0141 -0.1367  0.2749
   22DOPE   O13 2721   6.110   5.506  16.534 -0.4889 -0.0782  0.0282
   22DOPE   O14 2722   5.945   5.365  16.391 -0.1863  0.0746 -0.5840
   22DOPE   O11 2723   6.056   5.549  16.294  0.1860 -0.4585  0.3096
   22DOPE   O12 2724   6.203   5.360  16.347  0.4994  0.0877  0.5187
   22DOPE    C1 2725   5.968   5.659  16.313 -0.5370  0.3690 -0.2251
   22DOPE    HA 2726   6.007   5.753  16.268  2.3203 -0.1894  0.8916
   22DOPE    HB 2727   5.939   5.673  16.419  0.6833  1.7290 -0.0386
   22DOPE    C2 2728   5.839   5.638  16.238  0.3642  0.1556  0.3931
   22DOPE    HS 2729   5.788   5.540  16.247  0.4618  0.0689  0.0262
   22DOPE   O21 2730   5.875   5.665  16.101  0.4342 -0.0949 -0.1348
   22DOPE   C21 2731   5.883   5.563  16.025 -0.3426  0.5121 -0.2183
   22DOPE   O22 2732   5.877   5.444  16.057  0.2826 -0.0178 -0.2922
   22DOPE   C22 2733   5.903   5.610  15.877  0.3211  0.1208 -1.0581
   22DOPE   H2R 2734   5.969   5.699  15.886  0.9359 -0.4421  0.1280
   22DOPE   H2S 2735   5.799   5.645  15.854 -1.2405 -0.9368  3.3324
   22DOPE    C3 2736   5.732   5.737  16.283  0.6276  0.1614  0.0190
   22DOPE    HX 2737   5.720   5.748  16.393  0.0264 -1.2651  0.1247
   22DOPE    HY 2738   5.644   5.677  16.250  0.3014  0.1874  0.8119
   22DOPE   O31 2739   5.739   5.859  16.209  0.1285 -0.4727  0.1583
   22DOPE   C31 2740   5.795   5.956  16.270  0.5194 -0.2752  0.0680
   22DOPE   O32 2741   5.834   5.959  16.384  0.4249  0.0170  0.6186
   22DOPE   C32 2742   5.821   6.068  16.172 -0.6974 -0.0986 -0.2834
   22DOPE   H2X 2743   5.727   6.083  16.115 -1.0268 -0.2165  0.2180
   22DOPE   H2Y 2744   5.848   6.161  16.226 -1.2328  0.0746 -0.3083
   22DOPE   C23 2745   5.954   5.507  15.785 -0.5139  0.2203  0.9277
   22DOPE   H3R 2746   5.877   5.431  15.760 -0.8451  0.2868  1.7256
   22DOPE   H3S 2747   6.033   5.445  15.833  0.4792  0.3620 -0.4703
   22DOPE   C24 2748   6.009   5.568  15.653 -0.1290  0.7093  0.9994
   22DOPE   H4R 2749   6.084   5.645  15.681 -0.2921  1.0086  0.6204
   22DOPE   H4S 2750   5.925   5.608  15.593  0.2984 -1.0676 -0.9277
   22DOPE   C25 2751   6.078   5.453  15.571 -0.6807 -1.1719 -0.4519
   22DOPE   H5R 2752   6.009   5.367  15.585  1.1263 -2.5823  0.1879
   22DOPE   H5S 2753   6.174   5.426  15.620 -0.9660 -2.0367 -0.3534
   22DOPE   C26 2754   6.102   5.483  15.425  0.6544 -0.0440 -0.1823
   22DOPE   H6R 2755   6.151   5.583  15.431  3.3034 -1.3069  0.5708
   22DOPE   H6S 2756   6.007   5.499  15.369  2.3891  0.0336 -3.3469
   22DOPE   C27 2757   6.178   5.378  15.344  0.1381  0.2767 -0.8658
   22DOPE   H7R 2758   6.111   5.292  15.326  2.1473 -1.4877 -0.3840
   22DOPE   H7S 2759   6.257   5.332  15.407 -0.6168  0.7129  0.4397
   22DOPE   C28 2760   6.241   5.424  15.212 -0.0851 -0.3743  0.1721
   22DOPE   H8R 2761   6.302   5.334  15.191  0.6308 -0.8145  3.5421
   22DOPE   H8S 2762   6.311   5.506  15.240  0.1285 -1.3747  2.8307
   22DOPE   C29 2763   6.145   5.466  15.105 -0.0472  0.4196 -0.2393
   22DOPE   H9R 2764   6.065   5.532  15.141  1.1323  0.9162  1.5998
   22DOPE  C210 2765   6.149   5.429  14.971 -0.1708 -0.2251 -0.2680
   22DOPE  H10R 2766   6.095   5.500  14.907  0.3534  0.3998 -0.0296
   22DOPE  C211 2767   6.241   5.333  14.909 -0.2168  0.6422 -0.0326
   22DOPE  H11R 2768   6.181   5.253  14.862  0.2650 -1.5842  2.8271
   22DOPE  H11S 2769   6.308   5.282  14.982 -1.3782 -0.6189  0.1967
   22DOPE  C212 2770   6.349   5.382  14.818 -0.3593  0.3286  0.2936
   22DOPE  H12R 2771   6.411   5.297  14.782 -1.1925 -1.1921  2.2738
   22DOPE  H12S 2772   6.408   5.449  14.885  0.8109  0.1318 -0.5049
   22DOPE  C213 2773   6.301   5.474  14.703 -0.2823  0.0092  0.0437
   22DOPE  H13R 2774   6.242   5.561  14.739 -1.1421 -0.8346  0.7380
   22DOPE  H13S 2775   6.238   5.404  14.645  1.1024 -1.2658  0.0080
   22DOPE  C214 2776   6.404   5.523  14.608  0.1761  0.4238  0.2547
   22DOPE  H14R 2777   6.444   5.426  14.570  1.3394  0.4870  1.2530
   22DOPE  H14S 2778   6.493   5.566  14.659 -0.6587  1.1293  1.1635
   22DOPE  C215 2779   6.350   5.614  14.494 -0.5265  0.1235 -0.0902
   22DOPE  H15R 2780   6.322   5.716  14.528 -0.6019 -0.4727  1.7265
   22DOPE  H15S 2781   6.258   5.568  14.453 -1.0780  0.4625  0.7295
   22DOPE  C216 2782   6.455   5.611  14.381  0.2055 -0.0444 -0.7125
   22DOPE  H16R 2783   6.473   5.503  14.366 -1.7054 -0.5927  0.6334
   22DOPE  H16S 2784   6.541   5.671  14.418  0.4544 -0.4521 -0.6276
   22DOPE  C217 2785   6.400   5.671  14.253  0.0259 -0.8102  0.4641
   22DOPE  H17R 2786   6.293   5.645  14.243 -0.0532  0.0231 -1.4805
   22DOPE  H17S 2787   6.454   5.628  14.165  0.7434 -2.6608  1.7478
   22DOPE  C218 2788   6.406   5.820  14.258  0.1220 -0.1714 -0.3718
   22DOPE  H18R 2789   6.353   5.861  14.169 -0.5898  1.8341  0.8939
   22DOPE  H18S 2790   6.502   5.874  14.246  0.1940 -0.3297 -0.4998
   22DOPE  H18T 2791   6.342   5.862  14.339  1.3017  4.2426 -1.4438
   22DOPE   C33 2792   5.948   6.037  16.079 -0.1288 -0.1000  0.2809
   22DOPE   H3X 2793   6.017   5.967  16.131 -1.1528 -1.1886  0.2134
   22DOPE   H3Y 2794   6.006   6.130  16.062  0.4480 -0.6794 -1.1005
   22DOPE   C34 2795   5.903   5.995  15.936 -0.1860 -0.1408 -0.0666
   22DOPE   H4X 2796   5.984   5.930  15.898 -0.5866 -0.3110 -0.6386
   22DOPE   H4Y 2797   5.816   5.930  15.957  0.2772 -0.7444  0.0051
   22DOPE   C35 2798   5.876   6.104  15.837  0.3964 -0.8041 -0.6591
   22DOPE   H5X 2799   5.966   6.168  15.830 -0.0249 -0.2330 -0.8448
   22DOPE   H5Y 2800   5.811   6.184  15.878  2.6856 -0.2588  2.2688
   22DOPE   C36 2801   5.834   6.061  15.698 -1.0911  0.3588 -0.1370
   22DOPE   H6X 2802   5.816   6.155  15.642  0.7913  0.7175 -0.1913
   22DOPE   H6Y 2803   5.749   5.989  15.698  1.3521 -2.7496  1.3206
   22DOPE   C37 2804   5.944   5.996  15.622  0.3802  0.6041 -0.3186
   22DOPE   H7X 2805   6.037   6.047  15.655  1.3416 -1.3208  0.1150
   22DOPE   H7Y 2806   5.965   5.892  15.655  1.2115  1.3319  1.5521
   22DOPE   C38 2807   5.935   6.027  15.473  0.4030 -0.4288 -0.1895
   22DOPE   H8X 2808   6.037   6.016  15.430  1.9854  1.4324  2.8220
   22DOPE   H8Y 2809   5.908   6.134  15.464 -0.6682 -0.7361 -0.8135
   22DOPE   C39 2810   5.827   5.941  15.417  0.8059  0.3561 -0.4823
   22DOPE   H9X 2811   5.743   5.921  15.486  0.4644  1.3332 -0.6039
   22DOPE  C310 2812   5.836   5.865  15.305  0.2958 -0.5624  0.0883
   22DOPE  H10X 2813   5.762   5.788  15.281 -0.1523  0.5459 -2.4016
   22DOPE  C311 2814   5.940   5.872  15.200  0.1010 -0.5749 -0.2197
   22DOPE  H11X 2815   5.998   5.967  15.209  2.6013 -1.9024 -1.2925
   22DOPE  H11Y 2816   6.010   5.786  15.207 -0.4526 -0.9597  0.6782
   22DOPE  C312 2817   5.878   5.885  15.052 -0.1061  0.1026  0.0785
   22DOPE  H12X 2818   5.828   5.984  15.055  1.4990  0.9553 -0.3629
   22DOPE  H12Y 2819   5.812   5.801  15.020 -0.5991  1.5058 -2.9286
   22DOPE  C313 2820   5.988   5.896  14.944 -0.0088  0.1841  0.2890
   22DOPE  H13X 2821   6.048   5.988  14.960  0.6054 -0.0970 -0.3454
   22DOPE  H13Y 2822   6.055   5.807  14.944  0.2188  0.3429 -1.0074
   22DOPE  C314 2823   5.926   5.913  14.804 -0.2817  0.0484  0.0454
   22DOPE  H14X 2824   5.847   5.991  14.803 -1.1378 -0.7643  1.5538
   22DOPE  H14Y 2825   5.873   5.817  14.787 -1.5685  0.7565 -0.0760
   22DOPE  C315 2826   6.031   5.938  14.689  0.1992  0.2243 -0.1789
   22DOPE  H15X 2827   6.109   5.860  14.695  0.0799  0.1113 -0.1021
   22DOPE  H15Y 2828   6.068   6.040  14.715  0.8088  0.5007 -1.9886
   22DOPE  C316 2829   5.974   5.939  14.551  0.0431 -0.7191  0.4229
   22DOPE  H16X 2830   5.910   6.027  14.531  1.8171  0.7455  0.8698
   22DOPE  H16Y 2831   5.932   5.839  14.529  0.1725 -1.0169  1.4551
   22DOPE  C317 2832   6.079   5.961  14.452 -0.6654 -0.0593 -0.6823
   22DOPE  H17X 2833   6.138   6.055  14.458 -0.7276 -0.0797  0.4649
   22DOPE  H17Y 2834   6.157   5.883  14.461 -1.1200 -0.6045 -1.3563
   22DOPE  C318 2835   6.026   5.951  14.302 -0.4608  0.3544 -1.1364
   22DOPE  H18X 2836   6.108   5.963  14.228 -0.0803  0.0933 -0.7693
   22DOPE  H18Y 2837   5.975   5.853  14.295 -0.2344  0.1312  0.0904
   22DOPE  H18Z 2838   5.952   6.028  14.271 -1.0088  1.0924  1.6797
   23DOPE     N 2839   2.096   1.032  17.120 -0.1965 -0.4514  0.6231
   23DOPE   HN1 2840   2.001   0.997  17.144 -0.1431  0.4322  2.2389
   23DOPE   HN2 2841   2.166   0.976  17.173  2.0437 -1.5726 -3.0763
   23DOPE   HN3 2842   2.104   1.131  17.148  2.0937 -0.4096 -0.0027
   23DOPE   C12 2843   2.136   1.021  16.967 -0.0569 -0.3714 -0.5544
   23DOPE  H12A 2844   2.113   0.920  16.927 -0.7677  0.3968 -2.1587
   23DOPE  H12B 2845   2.245   1.040  16.958 -0.2248  0.2126 -1.4957
   23DOPE   C11 2846   2.048   1.106  16.878  0.2925  0.4515 -0.2471
   23DOPE  H11A 2847   1.946   1.063  16.886  0.5838 -0.1070  0.5577
   23DOPE  H11B 2848   2.055   1.097  16.768  1.8440  2.4661 -0.3769
   23DOPE     P 2849   2.144   1.357  16.883 -0.3535  0.0586  0.0393
   23DOPE   O13 2850   2.255   1.351  16.981 -0.2981 -0.6453 -0.1235
   23DOPE   O14 2851   2.068   1.485  16.873  0.1803 -0.4903  0.8094
   23DOPE   O11 2852   2.211   1.321  16.739  0.1193  0.4850 -0.2633
   23DOPE   O12 2853   2.039   1.246  16.910 -0.1040  0.2402 -0.8950
   23DOPE    C1 2854   2.245   1.414  16.634  0.0088  0.2278  0.0228
   23DOPE    HA 2855   2.204   1.514  16.657 -0.6538  0.2206 -1.0472
   23DOPE    HB 2856   2.213   1.387  16.531  4.0880  0.2157 -1.4337
   23DOPE    C2 2857   2.396   1.432  16.617 -0.6386  0.5904  0.7176
   23DOPE    HS 2858   2.445   1.442  16.717 -1.9638  0.8612  1.3645
   23DOPE   O21 2859   2.422   1.551  16.540  0.4164  0.0221  0.0841
   23DOPE   C21 2860   2.411   1.662  16.603 -0.0299 -0.0808  0.0176
   23DOPE   O22 2861   2.388   1.675  16.725 -0.2207 -0.0482  0.0067
   23DOPE   C22 2862   2.463   1.781  16.510  0.1248  0.0486 -0.7771
   23DOPE   H2R 2863   2.485   1.731  16.414  0.5936 -1.4696  0.0847
   23DOPE   H2S 2864   2.554   1.816  16.563 -1.4411  1.1701  1.3708
   23DOPE    C3 2865   2.469   1.316  16.552  0.1917  0.3065 -1.0182
   23DOPE    HX 2866   2.443   1.222  16.605 -0.6754  0.9659 -0.2223
   23DOPE    HY 2867   2.578   1.320  16.572  0.2037  1.4461 -1.2576
   23DOPE   O31 2868   2.433   1.305  16.417  0.1830  0.5145  0.1005
   23DOPE   C31 2869   2.518   1.366  16.336 -0.1707  0.1806  0.5064
   23DOPE   O32 2870   2.630   1.410  16.365  0.0377  1.0430  0.3207
   23DOPE   C32 2871   2.454   1.371  16.198  0.7707  0.1354 -0.3489
   23DOPE   H2X 2872   2.369   1.299  16.195  2.8573 -2.6322  1.8375
   23DOPE   H2Y 2873   2.407   1.471  16.199  0.7912  0.2038  2.4780
   23DOPE   C23 2874   2.362   1.895  16.502  0.2577  0.4475  0.1513
   23DOPE   H3R 2875   2.405   1.985  16.453  0.8812  1.0767  1.7748
   23DOPE   H3S 2876   2.327   1.924  16.603 -1.6041  1.2435 -0.6921
   23DOPE   C24 2877   2.234   1.845  16.431 -0.0006 -0.1773 -0.4894
   23DOPE   H4R 2878   2.170   1.936  16.418 -3.4341 -1.7897  3.1720
   23DOPE   H4S 2879   2.184   1.775  16.501  2.5380 -1.5800  0.0568
   23DOPE   C25 2880   2.263   1.773  16.301 -0.0323  0.0402 -0.4449
   23DOPE   H5R 2881   2.166   1.741  16.257 -1.2440  2.2056  0.5055
   23DOPE   H5S 2882   2.320   1.679  16.318  0.1222  0.2185  0.0300
   23DOPE   C26 2883   2.334   1.861  16.201 -0.0801  0.5392  0.1385
   23DOPE   H6R 2884   2.433   1.888  16.242  0.5994  0.0829 -1.1278
   23DOPE   H6S 2885   2.278   1.954  16.176 -0.9614 -0.0139 -0.0166
   23DOPE   C27 2886   2.361   1.794  16.067  0.3702 -0.6476  0.6361
   23DOPE   H7R 2887   2.271   1.742  16.029  0.8723 -2.0606  1.3093
   23DOPE   H7S 2888   2.439   1.718  16.089 -0.2893 -1.7385 -0.6746
   23DOPE   C28 2889   2.429   1.894  15.968 -0.1299  0.0972  0.3706
   23DOPE   H8R 2890   2.503   1.955  16.023 -1.4848  0.6086  1.6780
   23DOPE   H8S 2891   2.353   1.966  15.929  0.8185  1.7489  1.4893
   23DOPE   C29 2892   2.494   1.809  15.867  0.2515  1.2300 -0.4742
   23DOPE   H9R 2893   2.552   1.727  15.911 -0.0716  1.3614  0.2127
   23DOPE  C210 2894   2.501   1.819  15.734 -0.3475  0.0504 -0.1548
   23DOPE  H10R 2895   2.560   1.744  15.680 -1.2779  0.7431 -2.2506
   23DOPE  C211 2896   2.441   1.931  15.658 -0.3366  0.2131 -0.1532
   23DOPE  H11R 2897   2.511   2.005  15.614  0.9353 -1.9654 -1.9971
   23DOPE  H11S 2898   2.361   1.989  15.709 -0.0214  1.3820 -0.9346
   23DOPE  C212 2899   2.365   1.872  15.535 -1.0380  0.0636  0.2356
   23DOPE  H12R 2900   2.282   1.943  15.514 -0.3194  0.3330 -1.8353
   23DOPE  H12S 2901   2.331   1.766  15.544  1.1655 -0.8079 -0.8801
   23DOPE  C213 2902   2.457   1.886  15.409 -0.5311  0.0862  0.3954
   23DOPE  H13R 2903   2.555   1.833  15.415 -1.1581 -1.2307 -0.5763
   23DOPE  H13S 2904   2.493   1.989  15.389 -0.0949 -0.6861 -3.6291
   23DOPE  C214 2905   2.386   1.829  15.290  0.3222  0.5119  0.0137
   23DOPE  H14R 2906   2.296   1.893  15.282  0.2019  0.3541  0.0921
   23DOPE  H14S 2907   2.355   1.722  15.292 -0.4910  0.7117 -0.8622
   23DOPE  C215 2908   2.462   1.834  15.155 -0.0908  0.5461  0.1495
   23DOPE  H15R 2909   2.553   1.774  15.178  0.6427  0.4276 -2.7643
   23DOPE  H15S 2910   2.499   1.936  15.131  2.6196 -0.5473 -0.6617
   23DOPE  C216 2911   2.380   1.768  15.039 -0.0287 -0.5224 -0.4039
   23DOPE  H16R 2912   2.299   1.842  15.021  0.1138 -0.3060 -0.1676
   23DOPE  H16S 2913   2.331   1.673  15.070 -1.5931  0.4577  0.2395
   23DOPE  C217 2914   2.451   1.758  14.907  0.0467 -0.0373  0.0179
   23DOPE  H17R 2915   2.379   1.718  14.832  2.5927 -1.9946 -1.5390
   23DOPE  H17S 2916   2.535   1.685  14.912 -0.7552 -0.9861  0.1235
   23DOPE  C218 2917   2.518   1.889  14.858 -0.0182 -0.7316  0.4714
   23DOPE  H18R 2918   2.592   1.922  14.934  0.8662  0.0861 -0.7153
   23DOPE  H18S 2919   2.442   1.969  14.855  0.4519 -0.3016 -0.8425
   23DOPE  H18T 2920   2.563   1.887  14.757 -1.1053  0.4526 -0.0584
   23DOPE   C33 2921   2.540   1.353  16.079 -0.5497 -0.1749 -0.5649
   23DOPE   H3X 2922   2.586   1.252  16.066 -1.3110 -0.5642 -0.3008
   23DOPE   H3Y 2923   2.623   1.426  16.089 -1.1954  0.6449 -1.0295
   23DOPE   C34 2924   2.465   1.395  15.952 -0.3808  0.0021  0.0533
   23DOPE   H4X 2925   2.366   1.345  15.958  0.3445 -1.3577  1.3580
   23DOPE   H4Y 2926   2.450   1.505  15.962  0.9715  0.2781 -0.7172
   23DOPE   C35 2927   2.543   1.361  15.820 -0.4109  0.4195 -0.9010
   23DOPE   H5X 2928   2.536   1.252  15.805 -0.6915 -0.0600  2.0519
   23DOPE   H5Y 2929   2.651   1.381  15.836 -0.3998 -1.3031  1.6513
   23DOPE   C36 2930   2.487   1.431  15.694  0.2628 -0.0970 -0.4535
   23DOPE   H6X 2931   2.458   1.537  15.706 -0.7221 -0.5170  1.4250
   23DOPE   H6Y 2932   2.395   1.377  15.664 -1.2112  2.2891 -0.4260
   23DOPE   C37 2933   2.594   1.421  15.583 -0.3194  0.7460  0.6195
   23DOPE   H7X 2934   2.686   1.473  15.617 -0.5735  1.7001 -0.0796
   23DOPE   H7Y 2935   2.616   1.315  15.560 -2.3589  0.3974  0.0867
   23DOPE   C38 2936   2.549   1.496  15.454  0.7723  0.1924 -0.4418
   23DOPE   H8X 2937   2.636   1.507  15.386 -1.4651 -0.3401 -3.6006
   23DOPE   H8Y 2938   2.525   1.602  15.478 -2.6363 -0.4957 -0.2960
   23DOPE   C39 2939   2.424   1.433  15.389 -0.8352  0.2074 -0.6525
   23DOPE   H9X 2940   2.332   1.486  15.418 -0.2269  0.1697  1.5646
   23DOPE  C310 2941   2.419   1.328  15.309  0.7383  0.0752 -0.6110
   23DOPE  H10X 2942   2.323   1.296  15.267  0.3002 -1.0804  1.1456
   23DOPE  C311 2943   2.534   1.241  15.264  0.2286  0.6960  0.4630
   23DOPE  H11X 2944   2.632   1.269  15.309  0.2531 -0.4242  1.1351
   23DOPE  H11Y 2945   2.513   1.133  15.282  2.0503 -0.0844 -1.5953
   23DOPE  C312 2946   2.552   1.243  15.111 -0.0517  0.6217  0.8772
   23DOPE  H12X 2947   2.454   1.215  15.066  0.1999  2.2711 -0.8456
   23DOPE  H12Y 2948   2.629   1.171  15.077 -0.6674  0.3579  0.0224
   23DOPE  C313 2949   2.588   1.384  15.061  0.0820 -0.5409 -0.3008
   23DOPE  H13X 2950   2.517   1.457  15.106  0.5806 -0.5013  0.4511
   23DOPE  H13Y 2951   2.694   1.405  15.089  0.0687 -0.1972 -0.5046
   23DOPE  C314 2952   2.589   1.387  14.906  0.3137  0.4004 -0.4018
   23DOPE  H14X 2953   2.661   1.308  14.875 -0.4781 -0.6817  0.4057
   23DOPE  H14Y 2954   2.645   1.480  14.887  0.7013  0.3774  0.5350
   23DOPE  C315 2955   2.455   1.364  14.833  0.3661 -0.3927  0.1898
   23DOPE  H15X 2956   2.379   1.441  14.858 -1.1904 -1.3270 -1.3715
   23DOPE  H15Y 2957   2.417   1.262  14.855 -0.6602 -0.0081  0.2356
   23DOPE  C316 2958   2.480   1.366  14.685 -0.1588  0.4224 -0.4172
   23DOPE  H16X 2959   2.529   1.271  14.656 -0.0076  0.0704  0.9565
   23DOPE  H16Y 2960   2.547   1.451  14.657 -0.2123  0.5196 -0.2536
   23DOPE  C317 2961   2.352   1.381  14.605 -0.2385 -0.0376 -0.3769
   23DOPE  H17X 2962   2.359   1.310  14.520  0.6272 -0.0488 -0.3018
   23DOPE  H17Y 2963   2.272   1.339  14.669 -1.0606  0.3975 -1.0910
   23DOPE  C318 2964   2.326   1.526  14.555  0.6518 -0.2106  0.4660
   23DOPE  H18X 2965   2.409   1.554  14.487  2.3308 -1.0572  2.0905
   23DOPE  H18Y 2966   2.225   1.521  14.509  0.3901 -3.8021  1.1534
   23DOPE  H18Z 2967   2.322   1.604  14.634  1.9685  1.6984 -1.2231
   24DOPE     N 2968   5.474   6.366  16.906  0.2245  0.7980  0.8312
   24DOPE   HN1 2969   5.435   6.411  16.991 -0.8403  0.7087  0.3977
   24DOPE   HN2 2970   5.442   6.271  16.932 -1.4612  1.4202  1.1856
   24DOPE   HN3 2971   5.578   6.370  16.907  0.2337  1.6666 -0.4282
   24DOPE   C12 2972   5.404   6.409  16.776 -0.0301  0.5277 -0.0210
   24DOPE  H12A 2973   5.455   6.499  16.734 -0.2585  1.4417  1.6094
   24DOPE  H12B 2974   5.302   6.435  16.810 -0.1693 -0.3013  0.2025
   24DOPE   C11 2975   5.389   6.289  16.671 -0.0758 -0.4043 -0.3455
   24DOPE  H11A 2976   5.492   6.251  16.653  0.0784  0.7844 -2.2192
   24DOPE  H11B 2977   5.344   6.316  16.574 -0.4934 -2.9957 -0.9551
   24DOPE     P 2978   5.304   6.030  16.683 -0.1757  0.6401  0.4336
   24DOPE   O13 2979   5.245   5.948  16.789 -0.5841  0.2608  0.4115
   24DOPE   O14 2980   5.435   5.993  16.641 -0.0267  0.3187 -0.1013
   24DOPE   O11 2981   5.221   5.993  16.553  0.5007  0.0342  0.1636
   24DOPE   O12 2982   5.305   6.182  16.726  0.1959  0.5840  0.0930
   24DOPE    C1 2983   5.140   6.089  16.484  0.0275 -0.8810  0.0768
   24DOPE    HA 2984   5.169   6.191  16.519  2.6433 -1.5411  0.0290
   24DOPE    HB 2985   5.032   6.082  16.506  0.2093 -1.4677  0.8223
   24DOPE    C2 2986   5.157   6.088  16.328  0.5667  0.6353 -0.4946
   24DOPE    HS 2987   5.092   6.003  16.295  0.4189  0.1464  0.9446
   24DOPE   O21 2988   5.297   6.066  16.297  0.1971  0.0901  0.1961
   24DOPE   C21 2989   5.321   5.983  16.195 -0.7892  0.2688  0.2989
   24DOPE   O22 2990   5.237   5.923  16.128  0.1442 -0.2919  0.3827
   24DOPE   C22 2991   5.467   5.976  16.159 -0.1132 -0.7652  0.0150
   24DOPE   H2R 2992   5.520   5.934  16.248  1.6766  1.8190  0.2652
   24DOPE   H2S 2993   5.496   6.083  16.156 -0.1513 -0.7673 -0.6293
   24DOPE    C3 2994   5.095   6.213  16.259  0.3277 -0.5448 -0.4033
   24DOPE    HX 2995   5.145   6.308  16.288  0.6023 -1.0274  0.7680
   24DOPE    HY 2996   4.990   6.227  16.293  0.9165 -1.5305  2.0538
   24DOPE   O31 2997   5.109   6.194  16.113  0.2956  0.0237 -0.0705
   24DOPE   C31 2998   5.039   6.276  16.037  0.1611 -0.5679 -0.2891
   24DOPE   O32 2999   4.985   6.378  16.079  0.0538  0.3546 -0.0668
   24DOPE   C32 3000   5.048   6.226  15.891  0.2752  0.0076 -0.5275
   24DOPE   H2X 3001   5.150   6.258  15.859  0.9660 -0.4456  1.0947
   24DOPE   H2Y 3002   5.050   6.115  15.885  1.0486  0.0388 -0.9758
   24DOPE   C23 3003   5.500   5.906  16.031  0.2887 -0.0267 -0.3502
   24DOPE   H3R 3004   5.443   5.811  16.039  0.3034  0.1213  2.6466
   24DOPE   H3S 3005   5.610   5.895  16.020  0.3371  0.8694 -0.8234
   24DOPE   C24 3006   5.457   5.980  15.904 -0.8638 -0.2280 -0.2526
   24DOPE   H4R 3007   5.539   6.053  15.885 -0.4725 -0.7267 -0.5052
   24DOPE   H4S 3008   5.370   6.047  15.919  0.3843  1.2617  0.6421
   24DOPE   C25 3009   5.430   5.883  15.787  0.0014  0.1232 -0.7007
   24DOPE   H5R 3010   5.379   5.792  15.827 -0.8148  0.7815 -0.2053
   24DOPE   H5S 3011   5.531   5.855  15.749 -0.5164  0.2285 -2.2015
   24DOPE   C26 3012   5.341   5.940  15.678 -0.0407 -0.4168 -0.5304
   24DOPE   H6R 3013   5.371   6.045  15.658  2.1745 -0.8875 -0.0156
   24DOPE   H6S 3014   5.246   5.942  15.734  1.8641  0.3158  2.9688
   24DOPE   C27 3015   5.325   5.852  15.548  0.0235  0.0275  0.6908
   24DOPE   H7R 3016   5.251   5.911  15.489 -0.5334 -0.9105  0.4341
   24DOPE   H7S 3017   5.268   5.759  15.570 -0.6719  0.3986  0.5002
   24DOPE   C28 3018   5.452   5.836  15.462 -0.4431 -0.8885 -0.5178
   24DOPE   H8R 3019   5.536   5.813  15.530 -0.0878  1.7913  0.0381
   24DOPE   H8S 3020   5.479   5.930  15.409 -1.0650 -0.1732  0.4025
   24DOPE   C29 3021   5.442   5.725  15.362 -0.4145 -0.2021  0.0342
   24DOPE   H9R 3022   5.422   5.632  15.415  1.2776  0.5781  2.1905
   24DOPE  C210 3023   5.419   5.739  15.228  0.0595  0.3980 -0.1574
   24DOPE  H10R 3024   5.425   5.654  15.158 -2.7711  1.3880 -1.7434
   24DOPE  C211 3025   5.424   5.873  15.151 -0.0893  0.3374 -0.0999
   24DOPE  H11R 3026   5.453   5.962  15.211 -3.4176  2.7490 -1.7637
   24DOPE  H11S 3027   5.320   5.886  15.114  0.4246  0.2264 -1.6505
   24DOPE  C212 3028   5.511   5.865  15.026 -0.1353 -0.1527 -0.3452
   24DOPE  H12R 3029   5.609   5.822  15.056 -0.0305  0.6913  0.5783
   24DOPE  H12S 3030   5.531   5.970  14.995  0.4043 -0.2666 -0.3961
   24DOPE  C213 3031   5.449   5.783  14.914 -0.1429 -0.1579  1.1778
   24DOPE  H13R 3032   5.349   5.830  14.899  0.2516  0.4143  0.2268
   24DOPE  H13S 3033   5.441   5.674  14.937  0.7607 -0.4482  0.1770
   24DOPE  C214 3034   5.523   5.805  14.775 -0.5747 -0.1908 -0.4680
   24DOPE  H14R 3035   5.459   5.764  14.693 -0.8238  0.2031 -0.4739
   24DOPE  H14S 3036   5.615   5.743  14.769 -0.6550 -0.5000  1.0237
   24DOPE  C215 3037   5.546   5.949  14.734 -0.3081 -0.2034  0.4721
   24DOPE  H15R 3038   5.608   6.005  14.808 -1.4162  0.0446  1.2417
   24DOPE  H15S 3039   5.446   5.996  14.726  0.4430  1.5363  0.6630
   24DOPE  C216 3040   5.592   5.959  14.586  0.2600 -0.0602 -0.3036
   24DOPE  H16R 3041   5.524   5.900  14.521 -1.2832  0.9633  0.3429
   24DOPE  H16S 3042   5.691   5.910  14.572 -0.2938 -0.9307 -1.3427
   24DOPE  C217 3043   5.605   6.103  14.534 -0.1780  0.1523  0.2652
   24DOPE  H17R 3044   5.679   6.163  14.592  1.4509  0.5989 -2.1291
   24DOPE  H17S 3045   5.508   6.156  14.546  0.4245  1.0528  1.4030
   24DOPE  C218 3046   5.656   6.104  14.387  0.0290 -0.0473  0.0461
   24DOPE  H18R 3047   5.761   6.068  14.381  0.0355  0.0954 -0.7489
   24DOPE  H18S 3048   5.646   6.206  14.345  0.5067 -0.4962 -1.2172
   24DOPE  H18T 3049   5.595   6.036  14.324 -0.7112 -1.1684  1.8768
   24DOPE   C33 3050   4.933   6.266  15.791 -0.4162 -0.5474 -0.2201
   24DOPE   H3X 3051   4.938   6.374  15.767  0.0497 -0.6617 -0.6798
   24DOPE   H3Y 3052   4.836   6.241  15.838 -0.3646  2.0764  1.4799
   24DOPE   C34 3053   4.938   6.198  15.657 -0.4106 -0.4098  0.3475
   24DOPE   H4X 3054   4.940   6.088  15.669  0.4517 -0.3568  0.7465
   24DOPE   H4Y 3055   4.850   6.225  15.596 -0.6238  1.1284  1.2789
   24DOPE   C35 3056   5.065   6.242  15.570 -0.2111  0.0448  0.0721
   24DOPE   H5X 3057   5.154   6.212  15.630  0.1316 -1.0290 -0.9170
   24DOPE   H5Y 3058   5.060   6.353  15.563 -0.4910  0.0713  0.6591
   24DOPE   C36 3059   5.063   6.175  15.432 -0.1344  0.4364 -0.1372
   24DOPE   H6X 3060   4.968   6.190  15.376  0.4307  1.2741 -0.9061
   24DOPE   H6Y 3061   5.085   6.068  15.452  0.7488  0.5214 -0.5772
   24DOPE   C37 3062   5.172   6.214  15.333 -0.3226  0.0724 -0.1157
   24DOPE   H7X 3063   5.167   6.324  15.321  3.4369  0.3269 -0.6602
   24DOPE   H7Y 3064   5.265   6.196  15.392  0.4612  0.7277 -1.1173
   24DOPE   C38 3065   5.179   6.144  15.199 -0.4560 -0.1390  0.3735
   24DOPE   H8X 3066   5.176   6.036  15.227  1.0951  0.0097  1.2053
   24DOPE   H8Y 3067   5.276   6.159  15.148 -0.0457  0.4067  1.3059
   24DOPE   C39 3068   5.055   6.169  15.110 -0.0853 -1.0068 -0.3243
   24DOPE   H9X 3069   4.973   6.096  15.112 -0.2435 -0.9467 -2.2805
   24DOPE  C310 3070   5.046   6.256  15.002 -0.3115 -0.7052 -0.4804
   24DOPE  H10X 3071   4.958   6.246  14.938 -0.6698  0.4479 -0.1993
   24DOPE  C311 3072   5.148   6.354  14.949 -0.2065 -0.0793 -0.0557
   24DOPE  H11X 3073   5.109   6.457  14.955 -0.5566 -0.0469 -2.0612
   24DOPE  H11Y 3074   5.235   6.354  15.018 -1.3859  0.1942  1.4778
   24DOPE  C312 3075   5.208   6.335  14.810  0.5151 -0.2135  0.9001
   24DOPE  H12X 3076   5.246   6.230  14.801 -0.3935 -0.5248  0.5928
   24DOPE  H12Y 3077   5.289   6.410  14.810  0.8452 -0.5523  1.6257
   24DOPE  C313 3078   5.111   6.353  14.693  0.1272  0.3297 -0.7820
   24DOPE  H13X 3079   5.030   6.277  14.702  0.8387 -0.1839  2.9903
   24DOPE  H13Y 3080   5.059   6.449  14.711  0.3409  0.0522  1.7492
   24DOPE  C314 3081   5.170   6.337  14.557  0.8258  0.7411 -0.3746
   24DOPE  H14X 3082   5.272   6.381  14.551  1.9713 -1.2826  2.0842
   24DOPE  H14Y 3083   5.107   6.393  14.484  0.9471 -0.0754 -1.1261
   24DOPE  C315 3084   5.169   6.193  14.504  0.0515 -0.2124 -0.0413
   24DOPE  H15X 3085   5.069   6.151  14.528 -0.6214  2.8821  3.4383
   24DOPE  H15Y 3086   5.244   6.136  14.562 -1.3884 -1.7895  0.3573
   24DOPE  C316 3087   5.211   6.190  14.356 -0.3695  0.1071  0.0850
   24DOPE  H16X 3088   5.305   6.248  14.347 -0.2740 -0.3746 -2.9321
   24DOPE  H16Y 3089   5.131   6.233  14.292 -2.2028  1.3766  3.0320
   24DOPE  C317 3090   5.236   6.047  14.311 -0.5580  0.1558 -0.8570
   24DOPE  H17X 3091   5.287   6.051  14.213 -0.0482  0.9187 -0.5651
   24DOPE  H17Y 3092   5.318   6.001  14.370 -1.5898 -0.5030  0.1193
   24DOPE  C318 3093   5.114   5.957  14.320 -0.1467 -0.3955  0.1623
   24DOPE  H18X 3094   5.122   5.877  14.243  0.1003  0.7218 -1.0106
   24DOPE  H18Y 3095   5.098   5.918  14.422 -1.0185  1.8002  0.9217
   24DOPE  H18Z 3096   5.024   6.018  14.297 -0.7373 -1.6467 -0.9684
   25DOPE     N 3097   5.659   5.924  16.765 -0.0839  0.1429 -0.4322
   25DOPE   HN1 3098   5.668   5.965  16.861 -1.2653 -1.8565  0.6088
   25DOPE   HN2 3099   5.566   5.944  16.723 -0.4542 -1.5496 -0.4711
   25DOPE   HN3 3100   5.665   5.823  16.788 -0.6102  0.6028  2.0453
   25DOPE   C12 3101   5.779   5.959  16.690  0.3941  0.2677 -0.1487
   25DOPE  H12A 3102   5.749   6.038  16.617  0.0594 -1.4806 -1.9937
   25DOPE  H12B 3103   5.800   5.867  16.632 -1.7514 -2.0754  2.4686
   25DOPE   C11 3104   5.893   6.016  16.771  0.3309  0.5426 -0.0806
   25DOPE  H11A 3105   5.962   6.076  16.707 -0.8213  0.8834 -1.0424
   25DOPE  H11B 3106   5.947   5.926  16.808 -0.0659 -0.4648 -1.8589
   25DOPE     P 3107   5.863   6.253  16.894  0.3706 -0.6956  0.3805
   25DOPE   O13 3108   5.989   6.288  16.959  0.2323  0.0230  0.2925
   25DOPE   O14 3109   5.735   6.309  16.946  0.0169  0.2060 -0.1280
   25DOPE   O11 3110   5.862   6.293  16.746  0.0342  0.2841 -1.0683
   25DOPE   O12 3111   5.846   6.095  16.886 -0.6209 -0.0533  0.4760
   25DOPE    C1 3112   5.967   6.376  16.698  0.2965  0.0947  0.0872
   25DOPE    HA 3113   6.066   6.324  16.702 -0.2502 -1.0118 -0.1825
   25DOPE    HB 3114   5.990   6.469  16.754  0.3572  0.8385 -1.1382
   25DOPE    C2 3115   5.950   6.420  16.549 -1.4251  0.9601  0.3242
   25DOPE    HS 3116   6.032   6.482  16.506 -1.1191  0.6654  0.4806
   25DOPE   O21 3117   5.817   6.490  16.548  0.0714 -0.2138  0.0579
   25DOPE   C21 3118   5.824   6.613  16.571 -0.4190  0.1966  0.0306
   25DOPE   O22 3119   5.924   6.687  16.567 -0.2661  0.6069 -0.4274
   25DOPE   C22 3120   5.682   6.662  16.560  0.7630 -0.2421  0.1321
   25DOPE   H2R 3121   5.619   6.592  16.620  1.6415 -1.3031 -0.1361
   25DOPE   H2S 3122   5.649   6.638  16.457  2.5888 -1.5539 -0.2055
   25DOPE    C3 3123   5.944   6.297  16.450 -0.6294  0.0314 -0.1988
   25DOPE    HX 3124   5.929   6.327  16.344 -1.7890 -0.5906 -0.2285
   25DOPE    HY 3125   5.853   6.248  16.490  0.4553 -0.8761  1.2366
   25DOPE   O31 3126   6.055   6.206  16.458  0.0673 -0.0460 -0.0942
   25DOPE   C31 3127   6.168   6.234  16.383  0.4231 -0.0609 -0.3560
   25DOPE   O32 3128   6.174   6.317  16.293 -0.8609  0.4720  0.1938
   25DOPE   C32 3129   6.282   6.159  16.452 -0.1418  0.3821 -0.5841
   25DOPE   H2X 3130   6.355   6.232  16.494  0.0491  0.6638 -1.3890
   25DOPE   H2Y 3131   6.246   6.097  16.537  1.6589  0.5546  0.3553
   25DOPE   C23 3132   5.656   6.813  16.585  0.1374 -0.6848  0.0296
   25DOPE   H3R 3133   5.699   6.850  16.681 -1.1553  2.2069 -0.4190
   25DOPE   H3S 3134   5.548   6.831  16.604  0.3515  1.5885 -0.5518
   25DOPE   C24 3135   5.704   6.913  16.480 -0.1849  0.0964  0.2334
   25DOPE   H4R 3136   5.812   6.898  16.461 -0.0731 -0.8299  1.5044
   25DOPE   H4S 3137   5.696   7.019  16.511 -2.1071 -0.0100  0.2637
   25DOPE   C25 3138   5.637   6.899  16.346  0.3999  0.4451 -0.0519
   25DOPE   H5R 3139   5.596   6.997  16.313 -0.6110 -0.0639 -0.3223
   25DOPE   H5S 3140   5.560   6.820  16.356  1.1134 -0.3658 -0.8405
   25DOPE   C26 3141   5.730   6.864  16.230 -0.6813 -0.1952  0.4148
   25DOPE   H6R 3142   5.782   6.771  16.260  1.0236 -0.1959 -2.1930
   25DOPE   H6S 3143   5.818   6.932  16.221 -1.4789  0.8827  0.6109
   25DOPE   C27 3144   5.664   6.835  16.098 -0.0153  0.0055 -0.2715
   25DOPE   H7R 3145   5.619   6.929  16.057  1.0522  1.3504  1.4751
   25DOPE   H7S 3146   5.582   6.764  16.123 -0.1948 -0.2815 -1.6048
   25DOPE   C28 3147   5.761   6.766  15.997  0.6548  0.7824  0.6576
   25DOPE   H8R 3148   5.815   6.677  16.036  0.9386  0.6389 -0.0409
   25DOPE   H8S 3149   5.849   6.828  15.969 -0.0327  0.7413 -1.8384
   25DOPE   C29 3150   5.691   6.719  15.870  0.1065 -0.2402 -0.9268
   25DOPE   H9R 3151   5.621   6.635  15.882  0.0197  0.1066  1.4670
   25DOPE  C210 3152   5.701   6.786  15.755  0.2334  0.0789  0.1427
   25DOPE  H10R 3153   5.642   6.752  15.669  1.2254 -0.2886 -0.4026
   25DOPE  C211 3154   5.783   6.911  15.726 -0.3173 -0.1963 -0.0177
   25DOPE  H11R 3155   5.841   6.942  15.815 -0.7430  0.8775 -0.0962
   25DOPE  H11S 3156   5.719   7.001  15.708  0.6638  0.3436 -0.9638
   25DOPE  C212 3157   5.881   6.879  15.612  0.0848 -0.5067  0.6212
   25DOPE  H12R 3158   5.960   6.807  15.641  0.7000 -0.5190 -1.0128
   25DOPE  H12S 3159   5.938   6.968  15.577  1.2250 -1.1135  0.9074
   25DOPE  C213 3160   5.812   6.823  15.489  0.0486  0.0872 -0.4331
   25DOPE  H13R 3161   5.715   6.876  15.473  0.8722  1.1869 -2.1455
   25DOPE  H13S 3162   5.783   6.716  15.489 -0.8647  0.2892 -2.4459
   25DOPE  C214 3163   5.900   6.841  15.365 -0.1435 -0.4965  0.1360
   25DOPE  H14R 3164   5.996   6.786  15.374  0.7764  0.9284 -0.6357
   25DOPE  H14S 3165   5.930   6.947  15.350 -0.7135 -0.4201 -0.4658
   25DOPE  C215 3166   5.826   6.800  15.238  0.0593 -0.4581  0.1607
   25DOPE  H15R 3167   5.736   6.863  15.228  0.6566  0.6028  1.2220
   25DOPE  H15S 3168   5.803   6.691  15.245  1.3290 -1.1063 -3.3355
   25DOPE  C216 3169   5.908   6.830  15.109 -0.1017  0.1671 -0.0212
   25DOPE  H16R 3170   6.009   6.787  15.127 -0.1602 -0.2745 -0.7210
   25DOPE  H16S 3171   5.921   6.940  15.117  0.3078  0.1865 -0.8612
   25DOPE  C217 3172   5.852   6.772  14.986  0.1696 -0.1740  0.7441
   25DOPE  H17R 3173   5.744   6.795  14.968 -0.1431 -1.0091  1.4882
   25DOPE  H17S 3174   5.857   6.661  14.991  0.1897 -0.3770 -2.0787
   25DOPE  C218 3175   5.928   6.804  14.859  0.1991  0.1160  0.4708
   25DOPE  H18R 3176   5.862   6.776  14.773 -1.9559 -2.2752  2.7240
   25DOPE  H18S 3177   6.019   6.741  14.857 -0.0666 -0.2605  0.0237
   25DOPE  H18T 3178   5.951   6.913  14.848 -1.2422  0.5218  1.2844
   25DOPE   C33 3179   6.353   6.063  16.352  0.3104 -0.3263  0.1632
   25DOPE   H3X 3180   6.451   6.049  16.403  0.0468  1.7837  1.3557
   25DOPE   H3Y 3181   6.379   6.100  16.250  1.4721 -1.1451  0.1341
   25DOPE   C34 3182   6.279   5.928  16.351 -0.0938 -0.1990  0.0876
   25DOPE   H4X 3183   6.232   5.903  16.449  1.7686 -1.2868  0.7541
   25DOPE   H4Y 3184   6.196   5.932  16.278  0.2160 -0.9131 -0.3159
   25DOPE   C35 3185   6.352   5.802  16.301 -0.6075 -0.1904 -0.9311
   25DOPE   H5X 3186   6.286   5.714  16.321 -1.2545  0.3841 -0.4711
   25DOPE   H5Y 3187   6.442   5.803  16.366 -1.4087 -2.6932  0.3681
   25DOPE   C36 3188   6.400   5.801  16.157 -0.5475  0.5790  0.0156
   25DOPE   H6X 3189   6.477   5.723  16.137  0.2785  1.0972  1.0892
   25DOPE   H6Y 3190   6.440   5.902  16.131 -1.0072  0.0153 -3.4958
   25DOPE   C37 3191   6.284   5.782  16.043  0.4212  0.0381 -0.4403
   25DOPE   H7X 3192   6.225   5.690  16.065  0.6285 -0.0773 -0.3696
   25DOPE   H7Y 3193   6.220   5.872  16.056 -0.1287 -0.3538 -0.4050
   25DOPE   C38 3194   6.352   5.759  15.907 -0.1402  0.1096  0.3545
   25DOPE   H8X 3195   6.276   5.708  15.844 -2.6729  2.9561  0.8847
   25DOPE   H8Y 3196   6.428   5.678  15.911  0.6743  0.8931  1.5046
   25DOPE   C39 3197   6.394   5.889  15.842 -0.1085 -0.3317  0.0173
   25DOPE   H9X 3198   6.411   5.976  15.907 -0.9524 -1.4646  1.8227
   25DOPE  C310 3199   6.381   5.922  15.709 -0.1977 -0.4003 -0.4966
   25DOPE  H10X 3200   6.432   6.013  15.674  1.1596 -0.9653 -0.0599
   25DOPE  C311 3201   6.346   5.826  15.594  0.3289  0.6345  0.0694
   25DOPE  H11X 3202   6.374   5.721  15.616  1.1273  1.1478  1.7194
   25DOPE  H11Y 3203   6.239   5.829  15.564  0.6884 -0.9989 -1.5567
   25DOPE  C312 3204   6.432   5.863  15.473 -0.0948 -0.1372 -0.2794
   25DOPE  H12X 3205   6.535   5.822  15.476  0.1425  0.2146 -2.1170
   25DOPE  H12Y 3206   6.444   5.974  15.471 -0.5920 -0.0762  0.0157
   25DOPE  C313 3207   6.372   5.826  15.336  0.2628  0.0560 -0.8025
   25DOPE  H13X 3208   6.380   5.716  15.323 -3.2603 -0.9347  3.0263
   25DOPE  H13Y 3209   6.264   5.852  15.338  0.2135 -0.1802  0.5813
   25DOPE  C314 3210   6.431   5.904  15.210 -0.3766 -0.0178 -0.3757
   25DOPE  H14X 3211   6.541   5.887  15.205 -0.4522 -0.8383  0.5017
   25DOPE  H14Y 3212   6.409   6.011  15.232  0.8217 -0.0961  1.3861
   25DOPE  C315 3213   6.360   5.867  15.080  0.0695  0.2299 -0.7308
   25DOPE  H15X 3214   6.259   5.913  15.092  0.0524  0.3782 -1.4002
   25DOPE  H15Y 3215   6.348   5.757  15.070  2.9444 -0.1984 -0.3009
   25DOPE  C316 3216   6.426   5.937  14.961  0.4332  0.3873  0.5608
   25DOPE  H16X 3217   6.522   5.884  14.941  0.6506  0.0863  2.2414
   25DOPE  H16Y 3218   6.438   6.047  14.970 -2.0876  0.7228  0.4545
   25DOPE  C317 3219   6.355   5.906  14.827 -0.5126 -0.5671  0.6945
   25DOPE  H17X 3220   6.339   5.796  14.815  0.1627 -0.4821 -1.3465
   25DOPE  H17Y 3221   6.254   5.952  14.825  0.6543  2.1787 -1.1404
   25DOPE  C318 3222   6.423   5.946  14.691  0.5696 -0.5111 -0.9271
   25DOPE  H18X 3223   6.517   5.888  14.695  0.2620 -1.0170 -0.9161
   25DOPE  H18Y 3224   6.366   5.907  14.604  0.3923 -1.3029 -0.4681
   25DOPE  H18Z 3225   6.455   6.052  14.678  1.7645 -1.0936 -3.1179
   26DOPE     N 3226   0.051   1.066  16.676 -0.7852 -0.0331 -0.2297
   26DOPE   HN1 3227   0.018   1.157  16.638 -0.3208  0.2933  0.1402
   26DOPE   HN2 3228   0.124   1.079  16.749 -0.5035 -1.6304 -0.1936
   26DOPE   HN3 3229   0.105   1.014  16.603  0.7633  0.4921  0.4866
   26DOPE   C12 3230  -0.048   0.981  16.740 -0.7782  0.0494  0.2835
   26DOPE  H12A 3231  -0.126   1.043  16.789 -1.4275 -0.9650  0.5652
   26DOPE  H12B 3232  -0.002   0.918  16.820 -2.0444  1.0524  1.8602
   26DOPE   C11 3233  -0.113   0.895  16.638  0.7613  0.3864 -0.1912
   26DOPE  H11A 3234  -0.167   0.956  16.563  1.6522  3.1904  1.3235
   26DOPE  H11B 3235  -0.191   0.832  16.687  1.7881 -1.7773 -1.1845
   26DOPE     P 3236   0.015   0.669  16.635  0.2361 -0.0546 -0.4791
   26DOPE   O13 3237   0.000   0.664  16.782  0.2035 -0.0485 -0.1579
   26DOPE   O14 3238   0.147   0.622  16.587 -0.1153 -0.7605 -0.4874
   26DOPE   O11 3239  -0.103   0.578  16.577  0.0641 -0.0251 -0.5352
   26DOPE   O12 3240  -0.010   0.816  16.574  0.5008 -0.2168  0.0903
   26DOPE    C1 3241  -0.100   0.530  16.442 -0.2841 -0.0567 -0.2975
   26DOPE    HA 3242  -0.044   0.597  16.374  1.8999 -0.7534  0.7245
   26DOPE    HB 3243  -0.205   0.512  16.411 -0.2326  1.3931 -1.4257
   26DOPE    C2 3244  -0.040   0.382  16.428 -0.3363  0.4847 -0.6520
   26DOPE    HS 3245  -0.102   0.323  16.499  0.9796 -1.4374 -1.0282
   26DOPE   O21 3246   0.097   0.383  16.474 -0.0298 -0.7779  0.1895
   26DOPE   C21 3247   0.151   0.268  16.496  0.0038 -0.0879 -0.2320
   26DOPE   O22 3248   0.088   0.161  16.495 -0.5682  0.0557  0.8179
   26DOPE   C22 3249   0.301   0.283  16.526 -0.4318 -0.3933  0.5936
   26DOPE   H2R 3250   0.316   0.247  16.630 -0.7092 -2.8236 -0.1605
   26DOPE   H2S 3251   0.323   0.392  16.520 -1.7245 -0.1609 -0.4301
   26DOPE    C3 3252  -0.052   0.334  16.281  0.6749 -0.5545  0.7867
   26DOPE    HX 3253  -0.161   0.313  16.268  1.0667 -2.3577  0.1889
   26DOPE    HY 3254   0.002   0.238  16.269  0.5490 -0.4843 -0.4653
   26DOPE   O31 3255  -0.003   0.433  16.182 -0.3130  0.1240  0.2709
   26DOPE   C31 3256  -0.011   0.389  16.057  0.3754 -1.1017  0.0539
   26DOPE   O32 3257  -0.066   0.282  16.028 -0.3390 -0.4264  0.1406
   26DOPE   C32 3258   0.055   0.495  15.958 -0.9278  0.1120  0.2712
   26DOPE   H2X 3259   0.001   0.592  15.955  1.2612  1.3576 -0.9566
   26DOPE   H2Y 3260   0.158   0.509  15.996 -1.0257 -0.6925  0.8639
   26DOPE   C23 3261   0.385   0.200  16.432 -0.5792 -0.3826  0.1051
   26DOPE   H3R 3262   0.371   0.092  16.454 -2.4287  0.2803  2.6589
   26DOPE   H3S 3263   0.488   0.236  16.452 -0.5525  0.6815 -1.7800
   26DOPE   C24 3264   0.349   0.225  16.287  0.5558 -0.3894 -1.0437
   26DOPE   H4R 3265   0.352   0.335  16.272  1.1992 -0.3225 -0.4486
   26DOPE   H4S 3266   0.248   0.186  16.261  0.7004 -0.4048 -1.5926
   26DOPE   C25 3267   0.445   0.178  16.180  0.9239  0.5231 -0.1386
   26DOPE   H5R 3268   0.485   0.075  16.192 -1.5696 -0.4823  0.1502
   26DOPE   H5S 3269   0.527   0.251  16.197  0.0681  1.8301 -1.4456
   26DOPE   C26 3270   0.375   0.203  16.041 -0.4940 -0.2832 -0.3526
   26DOPE   H6R 3271   0.350   0.311  16.043 -0.3032 -0.2416 -0.2071
   26DOPE   H6S 3272   0.283   0.141  16.041 -1.6453  1.3590 -1.2171
   26DOPE   C27 3273   0.478   0.153  15.929 -0.6755 -0.2195 -0.3994
   26DOPE   H7R 3274   0.506   0.048  15.953  3.1659  0.7348 -0.0068
   26DOPE   H7S 3275   0.570   0.215  15.930  0.0836 -1.2417 -2.4823
   26DOPE   C28 3276   0.413   0.175  15.791 -0.0595 -0.5450 -1.2728
   26DOPE   H8R 3277   0.397   0.284  15.776  0.6741  0.0040  1.3466
   26DOPE   H8S 3278   0.316   0.121  15.793 -0.4770  0.2124 -0.6076
   26DOPE   C29 3279   0.507   0.111  15.693 -0.2254 -0.6221 -0.0724
   26DOPE   H9R 3280   0.551   0.013  15.715  0.4362 -0.5174 -0.8635
   26DOPE  C210 3281   0.554   0.168  15.579 -0.5855  0.2495  0.0079
   26DOPE  H10R 3282   0.630   0.110  15.525  1.2959 -1.0929  3.7345
   26DOPE  C211 3283   0.518   0.309  15.527 -0.1174 -0.4956 -0.2551
   26DOPE  H11R 3284   0.608   0.367  15.496 -0.3402  0.6550  1.1143
   26DOPE  H11S 3285   0.455   0.368  15.597 -0.4903 -0.6362 -0.4704
   26DOPE  C212 3286   0.443   0.283  15.398  0.1692 -0.3721 -0.2420
   26DOPE  H12R 3287   0.425   0.388  15.367  0.1441 -0.3069 -0.0146
   26DOPE  H12S 3288   0.354   0.219  15.413  1.3699 -1.8868  0.7520
   26DOPE  C213 3289   0.534   0.211  15.296  0.1447  0.7582 -0.0981
   26DOPE  H13R 3290   0.534   0.102  15.320  1.4624  0.8497  0.4082
   26DOPE  H13S 3291   0.635   0.257  15.299 -0.5393  2.2496  1.5463
   26DOPE  C214 3292   0.473   0.231  15.151 -0.7892 -0.5278 -0.1339
   26DOPE  H14R 3293   0.454   0.340  15.147 -0.9021 -0.5592 -0.4752
   26DOPE  H14S 3294   0.372   0.188  15.137 -1.8569  1.2054  1.7647
   26DOPE  C215 3295   0.564   0.172  15.042 -0.5332  0.0100 -0.3938
   26DOPE  H15R 3296   0.550   0.063  15.055 -2.7651  0.0881 -1.6752
   26DOPE  H15S 3297   0.671   0.206  15.045 -0.8936  1.1402  0.8095
   26DOPE  C216 3298   0.515   0.222  14.904 -0.2585 -0.1676  0.6304
   26DOPE  H16R 3299   0.563   0.320  14.888  1.3312 -1.1870 -1.3119
   26DOPE  H16S 3300   0.405   0.217  14.895 -0.2292  1.5683 -1.2665
   26DOPE  C217 3301   0.580   0.133  14.797  0.2316 -0.5358  0.1359
   26DOPE  H17R 3302   0.566   0.027  14.827 -1.9982 -0.1596  0.5538
   26DOPE  H17S 3303   0.690   0.149  14.797  0.0064  1.6396  2.1144
   26DOPE  C218 3304   0.530   0.162  14.656 -0.4527  0.0101 -0.3832
   26DOPE  H18R 3305   0.545   0.269  14.633 -1.0043  0.6186  1.8766
   26DOPE  H18S 3306   0.422   0.135  14.651 -0.3129 -0.9696  1.0710
   26DOPE  H18T 3307   0.594   0.116  14.578 -0.1253  0.4511 -0.3767
   26DOPE   C33 3308   0.059   0.432  15.812 -0.1707 -0.0812 -0.0229
   26DOPE   H3X 3309  -0.040   0.398  15.774  1.8518 -4.8015 -1.9295
   26DOPE   H3Y 3310   0.118   0.339  15.826 -0.1758 -0.3499 -1.6040
   26DOPE   C34 3311   0.109   0.526  15.700  0.4965  0.2738  0.5980
   26DOPE   H4X 3312   0.049   0.618  15.680  1.1229  0.2440 -1.7353
   26DOPE   H4Y 3313   0.220   0.533  15.693  0.5623 -1.0967 -0.0541
   26DOPE   C35 3314   0.072   0.440  15.573  0.2015 -0.0262 -0.2629
   26DOPE   H5X 3315  -0.039   0.443  15.561  0.1280  0.1595  0.4050
   26DOPE   H5Y 3316   0.085   0.331  15.583 -2.9334 -0.6079 -1.3434
   26DOPE   C36 3317   0.133   0.492  15.444 -0.2592 -0.4112 -0.5250
   26DOPE   H6X 3318   0.241   0.476  15.423 -0.4057 -0.4813 -1.2528
   26DOPE   H6Y 3319   0.125   0.603  15.446  1.4814 -0.2675  0.9019
   26DOPE   C37 3320   0.060   0.450  15.319  0.2375 -0.2813  0.0590
   26DOPE   H7X 3321   0.073   0.340  15.315  0.1492 -0.2740 -0.4894
   26DOPE   H7Y 3322  -0.049   0.472  15.311  0.3138 -0.1873 -0.9028
   26DOPE   C38 3323   0.120   0.494  15.186 -0.2344 -0.4061 -0.1468
   26DOPE   H8X 3324   0.213   0.436  15.169 -0.4190 -1.1710  1.2771
   26DOPE   H8Y 3325   0.141   0.603  15.194 -0.4104 -0.4779  1.7236
   26DOPE   C39 3326   0.011   0.483  15.079 -0.2138 -0.0292 -0.4709
   26DOPE   H9X 3327  -0.093   0.497  15.113 -0.1028 -0.4450  0.0501
   26DOPE  C310 3328   0.041   0.459  14.952 -0.5981  0.1959  0.2583
   26DOPE  H10X 3329  -0.040   0.426  14.885 -0.0941 -0.9614  0.1996
   26DOPE  C311 3330   0.181   0.444  14.891  0.9334  0.3532  0.4036
   26DOPE  H11X 3331   0.210   0.547  14.863  0.4479  0.5767  0.7007
   26DOPE  H11Y 3332   0.250   0.394  14.963  0.8835  2.0624  1.7030
   26DOPE  C312 3333   0.205   0.364  14.753  1.2186 -0.6127  0.3324
   26DOPE  H12X 3334   0.205   0.253  14.763  0.0959 -0.5996  0.7683
   26DOPE  H12Y 3335   0.300   0.397  14.708  0.1366  0.3554 -1.3553
   26DOPE  C313 3336   0.104   0.399  14.645 -0.0592 -0.5670 -0.6547
   26DOPE  H13X 3337  -0.002   0.384  14.672  0.4534  0.0985  1.9611
   26DOPE  H13Y 3338   0.124   0.508  14.636 -0.0998 -0.4771  0.2483
   26DOPE  C314 3339   0.129   0.323  14.514  0.1280  0.2198  0.5989
   26DOPE  H14X 3340   0.100   0.217  14.528  1.2730  0.1065  2.5393
   26DOPE  H14Y 3341   0.233   0.317  14.477 -0.3335 -1.0883 -0.5496
   26DOPE  C315 3342   0.043   0.370  14.403 -0.1039 -0.4795 -0.0326
   26DOPE  H15X 3343  -0.065   0.373  14.428 -0.8058 -0.2139 -2.7928
   26DOPE  H15Y 3344   0.054   0.294  14.322  1.7155 -1.7316  1.2976
   26DOPE  C316 3345   0.079   0.505  14.341 -0.1391  0.0584  1.1361
   26DOPE  H16X 3346   0.186   0.510  14.310 -0.6105  0.9354 -0.4545
   26DOPE  H16Y 3347   0.065   0.588  14.414 -1.9787  0.5837  0.2408
   26DOPE  C317 3348   0.002   0.546  14.208 -0.2612 -0.9743 -0.1794
   26DOPE  H17X 3349   0.029   0.480  14.122  1.3187  1.4077 -1.6507
   26DOPE  H17Y 3350  -0.107   0.529  14.215 -0.3876 -2.2075 -3.2400
   26DOPE  C318 3351   0.028   0.694  14.162 -0.3809 -0.6642  0.1478
   26DOPE  H18X 3352  -0.039   0.715  14.077 -0.8729 -3.2155 -0.1641
   26DOPE  H18Y 3353  -0.007   0.761  14.244 -0.7541  0.0517 -0.5777
   26DOPE  H18Z 3354   0.137   0.708  14.146  0.0474 -0.6017  2.6673
   27DOPE     N 3355   4.357   5.812  16.406 -0.4787  0.1817  0.1422
   27DOPE   HN1 3356   4.368   5.765  16.314 -0.7147 -0.3981  0.4067
   27DOPE   HN2 3357   4.449   5.852  16.434 -0.6281  2.8082 -2.5897
   27DOPE   HN3 3358   4.328   5.742  16.477  1.6534  1.4015  2.3736
   27DOPE   C12 3359   4.249   5.919  16.398  0.1599  0.5244 -0.0612
   27DOPE  H12A 3360   4.221   5.948  16.502  1.7648  0.4553  0.4276
   27DOPE  H12B 3361   4.170   5.869  16.339  0.3717  1.6197 -1.3171
   27DOPE   C11 3362   4.292   6.038  16.306  0.2850 -0.3932 -0.6000
   27DOPE  H11A 3363   4.209   6.093  16.257  0.6197  2.8442  2.1413
   27DOPE  H11B 3364   4.344   5.987  16.222  1.1448 -0.5489  0.0139
   27DOPE     P 3365   4.340   6.261  16.442  0.4005 -0.0098  0.4379
   27DOPE   O13 3366   4.453   6.314  16.521 -0.8759 -0.4811  0.7531
   27DOPE   O14 3367   4.226   6.226  16.522  0.4586  0.6012 -0.2646
   27DOPE   O11 3368   4.293   6.364  16.336 -0.0783  0.2892  0.3629
   27DOPE   O12 3369   4.381   6.128  16.372 -0.8987  0.0294 -0.6010
   27DOPE    C1 3370   4.382   6.432  16.253  0.8002 -0.0800 -0.1373
   27DOPE    HA 3371   4.489   6.416  16.277  0.4382 -1.6682  0.5739
   27DOPE    HB 3372   4.357   6.540  16.252  0.2228 -0.0476 -4.5378
   27DOPE    C2 3373   4.352   6.388  16.103  0.0445  0.2799  0.0734
   27DOPE    HS 3374   4.398   6.287  16.094  4.2132  2.0719 -1.0642
   27DOPE   O21 3375   4.416   6.484  16.015 -0.0336 -0.7620 -0.4249
   27DOPE   C21 3376   4.548   6.498  16.018 -0.5151  0.1311  0.3381
   27DOPE   O22 3377   4.628   6.433  16.087 -0.0121 -0.5458 -0.1716
   27DOPE   C22 3378   4.583   6.599  15.914 -0.2703 -0.3493  0.5860
   27DOPE   H2R 3379   4.631   6.686  15.963  2.4889  0.0724 -2.5389
   27DOPE   H2S 3380   4.494   6.637  15.860 -1.8716 -1.0064  2.6522
   27DOPE    C3 3381   4.210   6.366  16.064 -0.0705 -0.8312 -0.3309
   27DOPE    HX 3382   4.143   6.436  16.119 -0.7133 -1.7957  0.1471
   27DOPE    HY 3383   4.181   6.267  16.106  1.1075 -1.4918 -1.0248
   27DOPE   O31 3384   4.179   6.373  15.923  0.0531  0.3174  0.2900
   27DOPE   C31 3385   4.208   6.262  15.852 -0.1855  0.2248 -0.0123
   27DOPE   O32 3386   4.262   6.165  15.895  0.6253  0.2793  0.0841
   27DOPE   C32 3387   4.171   6.285  15.705 -0.2046 -0.2191 -1.1680
   27DOPE   H2X 3388   4.191   6.196  15.641 -0.0719 -1.3878  0.4553
   27DOPE   H2Y 3389   4.070   6.328  15.690  0.0248  0.0986 -1.8543
   27DOPE   C23 3390   4.685   6.538  15.808 -0.0181  0.1148 -0.0190
   27DOPE   H3R 3391   4.634   6.446  15.773 -0.3729 -1.4635  4.1539
   27DOPE   H3S 3392   4.777   6.504  15.860 -1.2137 -1.0330  1.4199
   27DOPE   C24 3393   4.712   6.635  15.683  0.5235  0.0020 -0.2347
   27DOPE   H4R 3394   4.731   6.743  15.698  0.2741 -0.1518  1.4972
   27DOPE   H4S 3395   4.615   6.621  15.630  0.6367  0.6556 -0.6179
   27DOPE   C25 3396   4.811   6.559  15.604 -0.2838 -0.2790  0.8889
   27DOPE   H5R 3397   4.789   6.450  15.599  0.9259 -0.4613 -1.9921
   27DOPE   H5S 3398   4.913   6.561  15.648  0.9577 -0.4459 -1.8083
   27DOPE   C26 3399   4.828   6.621  15.463  0.0066  0.5925 -0.2863
   27DOPE   H6R 3400   4.858   6.727  15.478 -1.3765  0.9789 -0.1361
   27DOPE   H6S 3401   4.734   6.621  15.404  1.1418  0.4634 -2.2031
   27DOPE   C27 3402   4.920   6.536  15.371  0.3082 -0.5953  0.9631
   27DOPE   H7R 3403   4.879   6.433  15.370 -3.0785  0.6189  0.0738
   27DOPE   H7S 3404   5.024   6.534  15.410  0.1336  1.3040  1.6249
   27DOPE   C28 3405   4.918   6.582  15.224  0.3098 -0.3103  0.9933
   27DOPE   H8R 3406   5.000   6.526  15.175  0.7235  1.7867 -0.8805
   27DOPE   H8S 3407   4.953   6.687  15.227 -0.1426 -0.1638  1.3086
   27DOPE   C29 3408   4.789   6.562  15.149  0.6534  0.8925 -0.3574
   27DOPE   H9R 3409   4.715   6.494  15.195 -0.1546  2.4043  0.6693
   27DOPE  C210 3410   4.762   6.602  15.024 -0.4161  0.6436 -0.1864
   27DOPE  H10R 3411   4.662   6.578  14.985 -0.9136  0.7083  1.0003
   27DOPE  C211 3412   4.840   6.683  14.926 -0.2581 -0.0358 -0.3304
   27DOPE  H11R 3413   4.950   6.687  14.944  0.0065 -0.0813 -1.7732
   27DOPE  H11S 3414   4.798   6.786  14.931  1.2679  0.6733 -1.2311
   27DOPE  C212 3415   4.835   6.638  14.781  0.0012  0.1342  0.5384
   27DOPE  H12R 3416   4.855   6.529  14.780  2.1942  0.4355  2.7347
   27DOPE  H12S 3417   4.918   6.685  14.724 -0.3488 -0.7193 -0.7239
   27DOPE  C213 3418   4.700   6.665  14.711 -0.3084  0.0568  0.2334
   27DOPE  H13R 3419   4.689   6.775  14.706  0.7637  0.1244 -1.2713
   27DOPE  H13S 3420   4.608   6.631  14.764 -2.2814  2.8885 -1.1400
   27DOPE  C214 3421   4.698   6.605  14.567  0.4371 -0.0080 -0.4719
   27DOPE  H14R 3422   4.723   6.497  14.566 -0.2306 -0.2208 -3.0898
   27DOPE  H14S 3423   4.765   6.645  14.487 -1.5543  1.5693 -1.4591
   27DOPE  C215 3424   4.551   6.629  14.525  0.0890  0.0097  0.1994
   27DOPE  H15R 3425   4.475   6.578  14.587  1.6056  0.0627  2.2194
   27DOPE  H15S 3426   4.539   6.586  14.423 -1.0825  0.6353  0.0539
   27DOPE  C216 3427   4.505   6.774  14.512  0.3293 -0.4284 -0.1000
   27DOPE  H16R 3428   4.564   6.817  14.429 -0.1366  3.4938  1.3975
   27DOPE  H16S 3429   4.534   6.832  14.602 -1.1045 -1.2833  0.9618
   27DOPE  C217 3430   4.353   6.775  14.486 -0.2328 -1.1022  0.6949
   27DOPE  H17R 3431   4.290   6.742  14.571 -1.9038  0.8894  0.2940
   27DOPE  H17S 3432   4.333   6.704  14.403 -0.4508  0.1638 -0.3806
   27DOPE  C218 3433   4.302   6.915  14.437 -0.5435  0.4450 -0.6301
   27DOPE  H18R 3434   4.196   6.916  14.469  0.2811  1.4346  2.3976
   27DOPE  H18S 3435   4.318   6.926  14.328 -1.1781  1.4468 -0.6268
   27DOPE  H18T 3436   4.354   6.994  14.495  1.0330 -0.1774 -1.1222
   27DOPE   C33 3437   4.258   6.398  15.643 -0.2162 -0.3935  0.7048
   27DOPE   H3X 3438   4.363   6.381  15.675 -0.3902 -3.0741  0.1291
   27DOPE   H3Y 3439   4.229   6.499  15.679  1.8305  0.0989  1.0977
   27DOPE   C34 3440   4.250   6.397  15.485 -0.2857 -0.9497 -0.0449
   27DOPE   H4X 3441   4.286   6.301  15.442  2.4417  0.3018 -0.7526
   27DOPE   H4Y 3442   4.149   6.410  15.439 -0.0159 -0.2799 -0.4532
   27DOPE   C35 3443   4.331   6.515  15.413  0.7407 -0.3267 -0.1517
   27DOPE   H5X 3444   4.440   6.504  15.433  1.0864  1.3822 -0.8925
   27DOPE   H5Y 3445   4.298   6.615  15.448  0.9141 -0.3763  0.1545
   27DOPE   C36 3446   4.313   6.505  15.260  0.6005 -0.0118 -0.3008
   27DOPE   H6X 3447   4.207   6.530  15.238  0.5185  0.7325  0.8493
   27DOPE   H6Y 3448   4.337   6.400  15.235  0.0788 -0.2497  0.1723
   27DOPE   C37 3449   4.403   6.609  15.190  0.3796  0.0945  0.4545
   27DOPE   H7X 3450   4.389   6.705  15.245 -2.3914 -0.4865  0.9157
   27DOPE   H7Y 3451   4.510   6.584  15.207  1.0320  1.3036 -1.5540
   27DOPE   C38 3452   4.395   6.624  15.033  0.2182  0.3012 -0.8053
   27DOPE   H8X 3453   4.433   6.533  14.981  0.1898 -0.9157  1.1854
   27DOPE   H8Y 3454   4.470   6.704  15.011 -1.4533  2.3975  0.7186
   27DOPE   C39 3455   4.259   6.653  14.993 -0.6229 -0.1495  0.0068
   27DOPE   H9X 3456   4.229   6.758  14.974 -4.4718 -1.1453 -0.1442
   27DOPE  C310 3457   4.163   6.563  14.941 -0.0436  0.3407  0.0225
   27DOPE  H10X 3458   4.060   6.600  14.928  0.2725  1.1854 -0.1876
   27DOPE  C311 3459   4.171   6.415  14.915 -0.2157  0.9414 -0.3987
   27DOPE  H11X 3460   4.250   6.370  14.980 -1.6281 -0.3921  0.4667
   27DOPE  H11Y 3461   4.083   6.351  14.937  2.3423 -1.8371  2.9189
   27DOPE  C312 3462   4.235   6.379  14.778  0.1808  0.3863 -0.2266
   27DOPE  H12X 3463   4.250   6.270  14.793 -0.8952  0.5162  2.4912
   27DOPE  H12Y 3464   4.335   6.427  14.775  0.7800 -0.7185  0.8405
   27DOPE  C313 3465   4.148   6.416  14.658  0.0915 -0.5143 -0.1471
   27DOPE  H13X 3466   4.042   6.383  14.668 -0.2851  0.8538  0.6331
   27DOPE  H13Y 3467   4.146   6.527  14.651 -1.7528 -0.4737  0.5670
   27DOPE  C314 3468   4.212   6.368  14.525 -0.0022  0.2454  0.1868
   27DOPE  H14X 3469   4.236   6.260  14.531 -2.9833 -0.4333  2.4108
   27DOPE  H14Y 3470   4.302   6.431  14.509 -0.0868  1.0228  2.4298
   27DOPE  C315 3471   4.122   6.397  14.402  0.3463 -1.1669 -0.7387
   27DOPE  H15X 3472   4.130   6.508  14.392  0.7255 -0.7598  2.8438
   27DOPE  H15Y 3473   4.016   6.375  14.428  0.3545 -1.8272 -1.2465
   27DOPE  C316 3474   4.157   6.330  14.277 -0.3964  0.2399 -0.0420
   27DOPE  H16X 3475   4.126   6.225  14.297 -0.7567  0.7235  2.1996
   27DOPE  H16Y 3476   4.267   6.327  14.261 -0.5689 -2.8075 -1.3470
   27DOPE  C317 3477   4.073   6.390  14.166  0.0981 -0.4261  0.4253
   27DOPE  H17X 3478   3.969   6.410  14.201  0.3306  1.5893  0.0580
   27DOPE  H17Y 3479   4.110   6.488  14.131  0.5421 -0.1923  1.4929
   27DOPE  C318 3480   4.079   6.301  14.043 -0.9035  0.7872  0.1802
   27DOPE  H18X 3481   4.083   6.363  13.951 -0.9147  0.9173  0.2662
   27DOPE  H18Y 3482   4.165   6.231  14.046 -2.2300 -0.9216  0.6187
   27DOPE  H18Z 3483   3.990   6.234  14.043 -1.2863  1.2747  1.0678
   28DOPE     N 3484   4.744   6.331  16.522 -0.3142  0.3582  0.2371
   28DOPE   HN1 3485   4.756   6.232  16.549  0.2973  1.2029  3.4721
   28DOPE   HN2 3486   4.653   6.372  16.552 -0.1123 -0.9426  2.8689
   28DOPE   HN3 3487   4.769   6.348  16.423  2.7237 -0.5110  0.7627
   28DOPE   C12 3488   4.849   6.406  16.606  0.2606 -0.2565 -0.8097
   28DOPE  H12A 3489   4.944   6.350  16.588 -0.0073 -1.2382  0.6140
   28DOPE  H12B 3490   4.807   6.398  16.709 -0.6352  1.3639 -1.0261
   28DOPE   C11 3491   4.859   6.553  16.560 -0.1591 -0.6795  0.2190
   28DOPE  H11A 3492   4.896   6.550  16.456  1.6700  3.5747  0.5059
   28DOPE  H11B 3493   4.939   6.593  16.627 -1.3038  0.5518  0.9235
   28DOPE     P 3494   4.735   6.784  16.523 -0.4779  0.4015 -0.0732
   28DOPE   O13 3495   4.809   6.858  16.628  0.5004 -0.2663  0.1920
   28DOPE   O14 3496   4.594   6.813  16.509  0.5322 -0.0707  0.3628
   28DOPE   O11 3497   4.817   6.781  16.394 -0.0556 -0.3403  0.0467
   28DOPE   O12 3498   4.732   6.632  16.567 -0.5276 -0.1867 -0.2518
   28DOPE    C1 3499   4.789   6.889  16.297 -0.5799  0.5149  0.2252
   28DOPE    HA 3500   4.802   6.992  16.337 -1.2945 -0.0939  2.1659
   28DOPE    HB 3501   4.685   6.872  16.262  0.0031  0.7119 -1.6769
   28DOPE    C2 3502   4.882   6.866  16.173 -0.4058 -0.6815  0.4025
   28DOPE    HS 3503   4.989   6.881  16.199  0.1898 -0.5858 -1.9367
   28DOPE   O21 3504   4.846   6.959  16.070  0.1943  0.9424 -0.6253
   28DOPE   C21 3505   4.889   7.085  16.088  0.5821 -0.4904 -0.3685
   28DOPE   O22 3506   4.962   7.119  16.175 -0.5531 -0.6647 -0.0803
   28DOPE   C22 3507   4.843   7.174  15.970 -0.2042 -0.0399 -0.1520
   28DOPE   H2R 3508   4.836   7.270  16.026  1.0700 -0.9666  1.7238
   28DOPE   H2S 3509   4.740   7.149  15.936 -0.5057  1.0053 -0.0516
   28DOPE    C3 3510   4.882   6.719  16.123 -0.2076  0.3036  0.3757
   28DOPE    HX 3511   4.781   6.674  16.139  0.7792 -1.3000  2.7492
   28DOPE    HY 3512   4.951   6.666  16.192  2.2506  0.8801 -1.4864
   28DOPE   O31 3513   4.928   6.699  15.988 -0.0661 -0.6752 -0.2164
   28DOPE   C31 3514   5.053   6.711  15.972 -0.2216 -0.4991  0.6350
   28DOPE   O32 3515   5.139   6.729  16.060 -0.2555  0.4903  0.0765
   28DOPE   C32 3516   5.074   6.673  15.822  0.0567  0.1643  0.1757
   28DOPE   H2X 3517   5.070   6.562  15.824  0.9185  0.0986 -0.8307
   28DOPE   H2Y 3518   5.000   6.731  15.764 -1.0737 -0.7372  0.6775
   28DOPE   C23 3519   4.933   7.190  15.855 -0.8137  0.4748  0.1053
   28DOPE   H3R 3520   5.027   7.245  15.874  0.1476 -1.1825  0.3463
   28DOPE   H3S 3521   4.884   7.265  15.788  0.1162  2.3502  1.4431
   28DOPE   C24 3522   4.964   7.062  15.777 -0.1048  0.1637 -0.2867
   28DOPE   H4R 3523   4.875   6.996  15.768  0.3065 -0.6077  1.0096
   28DOPE   H4S 3524   5.047   7.006  15.825 -0.2416  1.6943  1.9310
   28DOPE   C25 3525   5.027   7.096  15.647  0.2583 -0.2406  0.2966
   28DOPE   H5R 3526   5.129   7.136  15.666 -0.2760  0.6599  1.3871
   28DOPE   H5S 3527   4.961   7.176  15.608 -0.5130 -1.3004 -0.6427
   28DOPE   C26 3528   5.035   6.980  15.549 -0.0729 -0.3736  0.1932
   28DOPE   H6R 3529   4.933   6.947  15.519 -0.2580  1.1078 -0.9603
   28DOPE   H6S 3530   5.079   6.897  15.607  2.4591 -0.4392 -1.6586
   28DOPE   C27 3531   5.119   7.001  15.420 -0.6822 -0.5790 -0.0702
   28DOPE   H7R 3532   5.135   6.901  15.375 -1.7793 -1.3383  1.1443
   28DOPE   H7S 3533   5.213   7.050  15.452 -0.5819 -1.2466  0.7011
   28DOPE   C28 3534   5.055   7.089  15.312  0.2307 -0.8822 -0.3437
   28DOPE   H8R 3535   5.021   7.182  15.362  0.2960 -1.5860  1.0464
   28DOPE   H8S 3536   4.959   7.035  15.296 -0.1905 -0.8571  1.8328
   28DOPE   C29 3537   5.151   7.105  15.191 -0.2022  0.7261  0.1324
   28DOPE   H9R 3538   5.248   7.148  15.222  1.3110 -1.4417 -1.2332
   28DOPE  C210 3539   5.126   7.053  15.062 -0.5928  0.1593  0.9927
   28DOPE  H10R 3540   5.185   7.075  14.972 -2.6106 -0.7381 -0.6273
   28DOPE  C211 3541   4.995   6.994  15.016 -0.0366 -0.1008  0.4135
   28DOPE  H11R 3542   4.917   6.967  15.090  1.4029 -2.4754  1.1777
   28DOPE  H11S 3543   5.019   6.905  14.954 -0.5676  1.0997 -1.6114
   28DOPE  C212 3544   4.920   7.091  14.921 -0.0894  0.3649 -0.2565
   28DOPE  H12R 3545   4.895   7.186  14.972  0.2457  0.4826 -0.3120
   28DOPE  H12S 3546   4.827   7.034  14.896  0.1876 -1.1721  1.8871
   28DOPE  C213 3547   4.997   7.115  14.784 -0.1063 -0.7485 -0.7716
   28DOPE  H13R 3548   5.104   7.127  14.810 -0.9944  1.0747  2.5779
   28DOPE  H13S 3549   4.972   7.212  14.736  2.1330 -0.1406 -0.8029
   28DOPE  C214 3550   4.977   7.002  14.683  0.4220  0.3663  0.0937
   28DOPE  H14R 3551   4.869   7.008  14.657  0.4334 -0.2004 -0.0858
   28DOPE  H14S 3552   5.007   6.908  14.733  0.6090  0.5585  0.3454
   28DOPE  C215 3553   5.058   7.029  14.551  0.9296 -0.0725 -0.5275
   28DOPE  H15R 3554   5.167   7.031  14.574  1.0437 -2.6185 -0.5594
   28DOPE  H15S 3555   5.025   7.132  14.524 -3.8083 -1.1389  0.2937
   28DOPE  C216 3556   5.012   6.940  14.427 -0.6010 -0.1608 -0.3761
   28DOPE  H16R 3557   5.052   6.982  14.332  0.3639 -2.2906 -0.9820
   28DOPE  H16S 3558   4.902   6.922  14.435 -0.6634 -0.0735 -0.9944
   28DOPE  C217 3559   5.073   6.799  14.427 -0.2046  0.5329 -0.5578
   28DOPE  H17R 3560   5.043   6.758  14.526 -1.9409  1.5792 -0.6175
   28DOPE  H17S 3561   5.184   6.791  14.429 -0.2982 -1.0166  0.5945
   28DOPE  C218 3562   5.011   6.714  14.326  0.5508  0.1402  0.0473
   28DOPE  H18R 3563   4.902   6.733  14.330  0.7043  1.1754 -0.2711
   28DOPE  H18S 3564   5.035   6.608  14.349 -0.7083 -0.0262  0.6449
   28DOPE  H18T 3565   5.051   6.755  14.230 -1.9011  0.4722 -0.9021
   28DOPE   C33 3566   5.212   6.712  15.769 -0.2234  0.2057 -0.3841
   28DOPE   H3X 3567   5.298   6.683  15.833  0.0480  1.9937  0.1400
   28DOPE   H3Y 3568   5.216   6.823  15.760  1.0374  0.4873  2.5598
   28DOPE   C34 3569   5.236   6.671  15.624  0.8356 -0.0434  0.2191
   28DOPE   H4X 3570   5.257   6.562  15.628  0.8549 -0.0343  0.3676
   28DOPE   H4Y 3571   5.145   6.689  15.563  1.0747  0.3791 -0.0177
   28DOPE   C35 3572   5.353   6.731  15.558 -0.7644 -0.1322  0.9342
   28DOPE   H5X 3573   5.439   6.683  15.611 -0.5532  0.4606  1.1297
   28DOPE   H5Y 3574   5.351   6.841  15.573  1.5121  0.2116 -0.7035
   28DOPE   C36 3575   5.346   6.700  15.399  0.0453  0.0472 -0.2956
   28DOPE   H6X 3576   5.240   6.690  15.366 -0.1056 -1.6302  0.5856
   28DOPE   H6Y 3577   5.390   6.598  15.392 -0.1229 -0.0600  0.2055
   28DOPE   C37 3578   5.434   6.792  15.315  0.1738  0.8317  0.2179
   28DOPE   H7X 3579   5.383   6.890  15.323 -3.0160 -0.8046  1.4125
   28DOPE   H7Y 3580   5.532   6.797  15.367  0.0711  1.6363  0.3496
   28DOPE   C38 3581   5.453   6.757  15.164  0.2351  0.0894 -0.0504
   28DOPE   H8X 3582   5.499   6.657  15.155 -1.7634 -0.7244 -2.4459
   28DOPE   H8Y 3583   5.523   6.835  15.126  0.5298 -0.2679 -0.2409
   28DOPE   C39 3584   5.324   6.787  15.084  0.5201  0.4261  0.3588
   28DOPE   H9X 3585   5.242   6.824  15.148  0.6230 -0.0197  0.7531
   28DOPE  C310 3586   5.304   6.753  14.954 -0.3666  0.1095  0.0245
   28DOPE  H10X 3587   5.212   6.788  14.904 -0.0303  0.5810 -0.2676
   28DOPE  C311 3588   5.416   6.704  14.862  0.0921 -0.8146 -0.1699
   28DOPE  H11X 3589   5.507   6.768  14.858 -0.1890 -0.4595 -1.1228
   28DOPE  H11Y 3590   5.459   6.606  14.893  1.9145  0.2076  0.7079
   28DOPE  C312 3591   5.351   6.689  14.719  0.1260 -0.6506 -0.7197
   28DOPE  H12X 3592   5.307   6.785  14.686  1.1984 -0.2197 -0.9224
   28DOPE  H12Y 3593   5.260   6.626  14.725  0.1054 -0.4827  3.3830
   28DOPE  C313 3594   5.437   6.616  14.622 -0.3500 -0.1263 -0.2979
   28DOPE  H13X 3595   5.544   6.643  14.615 -0.1548 -0.9710 -0.6359
   28DOPE  H13Y 3596   5.440   6.507  14.642 -0.2888 -0.5857 -2.5297
   28DOPE  C314 3597   5.385   6.613  14.476 -0.1536  0.3873 -1.1509
   28DOPE  H14X 3598   5.377   6.715  14.433 -0.2282  0.2363 -1.5030
   28DOPE  H14Y 3599   5.280   6.578  14.488 -0.0095  0.1028 -0.6921
   28DOPE  C315 3600   5.460   6.511  14.392  0.0226 -0.1785  0.2437
   28DOPE  H15X 3601   5.449   6.409  14.434  1.8667 -1.0834 -1.2969
   28DOPE  H15Y 3602   5.570   6.523  14.381 -0.2526  0.7035 -1.9821
   28DOPE  C316 3603   5.408   6.522  14.249  0.2656 -0.0940  0.4504
   28DOPE  H16X 3604   5.395   6.630  14.230 -1.3656  0.2055  2.7549
   28DOPE  H16Y 3605   5.304   6.481  14.252  0.5662 -0.9451  3.4162
   28DOPE  C317 3606   5.500   6.473  14.136 -0.1809  0.2947 -0.5451
   28DOPE  H17X 3607   5.589   6.538  14.150  0.8520 -0.9260 -1.2436
   28DOPE  H17Y 3608   5.542   6.372  14.155  0.6597  0.1844 -2.7326
   28DOPE  C318 3609   5.424   6.471  14.000  0.3378  0.0353  0.1297
   28DOPE  H18X 3610   5.324   6.428  14.018  0.4465 -0.8975 -1.3143
   28DOPE  H18Y 3611   5.412   6.569  13.948  1.6345 -0.6590 -1.5913
   28DOPE  H18Z 3612   5.488   6.413  13.930  0.6398 -2.1332  2.0979
   29DOPE     N 3613   5.974   1.501  16.714  0.0501 -0.2827 -0.3171
   29DOPE   HN1 3614   5.900   1.537  16.651 -1.1841 -1.6044  0.3216
   29DOPE   HN2 3615   6.033   1.439  16.656  1.7621  0.9959 -0.0357
   29DOPE   HN3 3616   5.922   1.450  16.788 -1.8053  4.0640  1.7538
   29DOPE   C12 3617   6.057   1.607  16.777 -0.1296  0.7171 -0.5272
   29DOPE  H12A 3618   6.140   1.569  16.839  0.1509  1.5646 -0.3643
   29DOPE  H12B 3619   6.001   1.666  16.852  0.0791 -1.4522  1.4090
   29DOPE   C11 3620   6.114   1.705  16.669  0.4767  0.0215  0.6909
   29DOPE  H11A 3621   6.186   1.652  16.603 -1.3147  0.8348 -2.0915
   29DOPE  H11B 3622   6.156   1.785  16.733 -0.8301  0.7056  0.7295
   29DOPE     P 3623   6.035   1.865  16.475  0.4516  0.1358  0.3465
   29DOPE   O13 3624   6.026   2.002  16.515  0.3538 -0.2242 -0.3732
   29DOPE   O14 3625   5.950   1.831  16.358 -0.1744  0.6783 -0.0774
   29DOPE   O11 3626   6.183   1.832  16.439 -0.5238  0.7013  0.0481
   29DOPE   O12 3627   6.004   1.762  16.592  0.0105 -0.3547 -0.2091
   29DOPE    C1 3628   6.223   1.726  16.357 -0.3568  0.7842 -0.4042
   29DOPE    HA 3629   6.140   1.652  16.351 -0.4499  0.5527  2.3265
   29DOPE    HB 3630   6.306   1.666  16.402  0.3805 -0.0135 -2.6801
   29DOPE    C2 3631   6.270   1.750  16.209 -0.8852  0.5275  0.5418
   29DOPE    HS 3632   6.338   1.665  16.185 -1.4563  0.0864  0.4750
   29DOPE   O21 3633   6.354   1.873  16.199  0.3200  0.2434 -0.2663
   29DOPE   C21 3634   6.450   1.869  16.112  0.7437  0.3415  0.3385
   29DOPE   O22 3635   6.483   1.781  16.034  0.0827 -0.1464 -0.3667
   29DOPE   C22 3636   6.539   2.001  16.118 -0.7184  0.5997 -0.3638
   29DOPE   H2R 3637   6.544   2.007  16.229 -1.1010 -0.5522 -0.2641
   29DOPE   H2S 3638   6.474   2.083  16.081 -1.0192 -0.6244 -2.7178
   29DOPE    C3 3639   6.148   1.751  16.112 -0.8022  0.1381  0.6184
   29DOPE    HX 3640   6.092   1.843  16.139  0.3334  1.2785 -0.7625
   29DOPE    HY 3641   6.085   1.660  16.126  1.4299 -2.1020 -2.4103
   29DOPE   O31 3642   6.191   1.760  15.977 -0.5018 -0.2237 -0.0074
   29DOPE   C31 3643   6.223   1.650  15.902  0.3139  0.7749  1.0028
   29DOPE   O32 3644   6.216   1.538  15.949  0.6152  0.2331  0.5072
   29DOPE   C32 3645   6.248   1.691  15.756 -0.8983 -0.1070 -0.3990
   29DOPE   H2X 3646   6.170   1.763  15.721 -1.1630 -0.4018 -0.4219
   29DOPE   H2Y 3647   6.344   1.747  15.748 -0.7290 -0.0609  1.6098
   29DOPE   C23 3648   6.680   1.991  16.066 -0.4954 -0.8486 -0.1921
   29DOPE   H3R 3649   6.727   1.899  16.107 -0.4759  0.3938  2.8427
   29DOPE   H3S 3650   6.740   2.077  16.103  0.3589 -2.0479  1.3173
   29DOPE   C24 3651   6.679   1.990  15.907 -0.1643 -0.2052  0.6456
   29DOPE   H4R 3652   6.609   1.916  15.862  0.0749  0.5295 -0.9874
   29DOPE   H4S 3653   6.780   1.947  15.890 -0.6527 -1.2319  0.2532
   29DOPE   C25 3654   6.657   2.132  15.846  0.6789  0.3007 -0.0726
   29DOPE   H5R 3655   6.750   2.191  15.859  0.3790  0.8731 -0.4853
   29DOPE   H5S 3656   6.576   2.177  15.908  1.1732 -0.2867  1.0269
   29DOPE   C26 3657   6.606   2.124  15.701 -0.1758 -0.5958 -0.2396
   29DOPE   H6R 3658   6.556   2.221  15.677  1.3274  0.3816  0.4524
   29DOPE   H6S 3659   6.527   2.047  15.683 -0.6301 -1.6659  4.9244
   29DOPE   C27 3660   6.723   2.120  15.601 -1.0554  0.0765  0.3130
   29DOPE   H7R 3661   6.760   2.016  15.602 -0.7277  0.1702 -0.6701
   29DOPE   H7S 3662   6.808   2.186  15.628 -1.0536 -0.2807  1.2141
   29DOPE   C28 3663   6.684   2.142  15.456  0.1204 -0.7645  0.2879
   29DOPE   H8R 3664   6.774   2.153  15.391  0.4719  0.0558  0.8973
   29DOPE   H8S 3665   6.639   2.243  15.455  1.9690  0.1037  0.4542
   29DOPE   C29 3666   6.597   2.034  15.386  0.2741 -0.6733 -0.5404
   29DOPE   H9R 3667   6.547   1.964  15.454  2.2342 -0.3388  1.3503
   29DOPE  C210 3668   6.579   2.017  15.254 -0.7399  0.5286 -0.2753
   29DOPE  H10R 3669   6.506   1.941  15.222 -1.3714  1.0740 -0.1662
   29DOPE  C211 3670   6.648   2.097  15.144  0.0653  0.1522  0.4014
   29DOPE  H11R 3671   6.719   2.174  15.183 -1.9596  1.4092  1.8023
   29DOPE  H11S 3672   6.567   2.153  15.093  0.0697 -0.4531 -0.2730
   29DOPE  C212 3673   6.709   1.999  15.043  0.4566  0.0802 -0.5392
   29DOPE  H12R 3674   6.759   1.909  15.084 -1.9749 -2.2704 -2.3295
   29DOPE  H12S 3675   6.790   2.051  14.987  0.4321  0.6054 -0.1049
   29DOPE  C213 3676   6.607   1.938  14.947 -0.1823  0.0365  0.1165
   29DOPE  H13R 3677   6.528   1.997  14.894  1.0619  0.8460 -0.8856
   29DOPE  H13S 3678   6.547   1.869  15.011  0.2722 -1.2107 -0.7718
   29DOPE  C214 3679   6.675   1.850  14.846 -0.0415  0.3744  0.0101
   29DOPE  H14R 3680   6.727   1.771  14.904  0.6188  0.5847 -0.2846
   29DOPE  H14S 3681   6.747   1.915  14.792  0.6156  0.9832  1.5863
   29DOPE  C215 3682   6.579   1.794  14.737  0.2526  0.2037 -0.0773
   29DOPE  H15R 3683   6.540   1.880  14.678  0.9487  0.0730 -0.7411
   29DOPE  H15S 3684   6.496   1.737  14.786  1.2170 -1.2175 -0.0513
   29DOPE  C216 3685   6.645   1.729  14.614 -0.0922 -0.4735 -0.3779
   29DOPE  H16R 3686   6.726   1.797  14.580  1.4437 -1.8908  0.3138
   29DOPE  H16S 3687   6.567   1.718  14.536 -0.5090  0.5172 -0.1249
   29DOPE  C217 3688   6.713   1.598  14.640 -0.0823  0.2467 -0.4179
   29DOPE  H17R 3689   6.770   1.595  14.735  1.2959 -1.6744 -1.2414
   29DOPE  H17S 3690   6.784   1.581  14.556  0.5225  1.8751 -0.2690
   29DOPE  C218 3691   6.627   1.466  14.638 -0.2952  0.3681  0.4307
   29DOPE  H18R 3692   6.541   1.475  14.708 -0.6039 -1.0131  0.2578
   29DOPE  H18S 3693   6.698   1.387  14.669 -1.7520 -1.1322  0.0839
   29DOPE  H18T 3694   6.589   1.452  14.534  0.3304 -1.6898  0.4473
   29DOPE   C33 3695   6.247   1.582  15.645 -0.0087  0.0149 -0.6256
   29DOPE   H3X 3696   6.162   1.511  15.659  0.2188  0.1689  1.9574
   29DOPE   H3Y 3697   6.332   1.513  15.665  0.2533  1.1145  2.4942
   29DOPE   C34 3698   6.218   1.632  15.507  0.3216  0.1477  0.3434
   29DOPE   H4X 3699   6.110   1.621  15.485 -0.3672  0.8828  2.9878
   29DOPE   H4Y 3700   6.226   1.739  15.478 -0.8891 -0.0004 -0.6470
   29DOPE   C35 3701   6.308   1.564  15.394  0.0037  0.0258  0.1439
   29DOPE   H5X 3702   6.295   1.456  15.416  1.2746 -0.0016  0.8336
   29DOPE   H5Y 3703   6.411   1.592  15.421 -0.5207  0.6079  1.6130
   29DOPE   C36 3704   6.278   1.610  15.250 -0.2552 -0.5717 -0.5384
   29DOPE   H6X 3705   6.348   1.697  15.248  1.7431 -2.0723  0.1943
   29DOPE   H6Y 3706   6.174   1.645  15.235  0.5603  0.8705 -3.5743
   29DOPE   C37 3707   6.315   1.514  15.145 -0.1933 -0.5224 -0.1698
   29DOPE   H7X 3708   6.395   1.449  15.187  1.7296  0.7794 -1.6149
   29DOPE   H7Y 3709   6.227   1.452  15.119 -0.9709  0.4701  0.0375
   29DOPE   C38 3710   6.388   1.571  15.017 -0.2808 -0.3526  0.0470
   29DOPE   H8X 3711   6.397   1.485  14.946  1.4646 -2.1678  2.3005
   29DOPE   H8Y 3712   6.487   1.609  15.050 -1.0443  0.6750  1.2115
   29DOPE   C39 3713   6.291   1.674  14.959 -0.5646  0.2577 -0.4143
   29DOPE   H9X 3714   6.284   1.771  15.011 -0.5905  0.2971 -0.4907
   29DOPE  C310 3715   6.190   1.650  14.877  0.0940 -0.1258 -0.2725
   29DOPE  H10X 3716   6.123   1.731  14.845  1.0408  0.3467 -1.1244
   29DOPE  C311 3717   6.153   1.515  14.815 -0.2008  0.4189 -0.4362
   29DOPE  H11X 3718   6.224   1.433  14.837 -1.9698 -0.5758  1.9603
   29DOPE  H11Y 3719   6.063   1.484  14.871  0.3215 -0.5092 -0.0985
   29DOPE  C312 3720   6.133   1.518  14.668  0.4407  0.7034  0.0102
   29DOPE  H12X 3721   6.048   1.589  14.660 -1.0177 -0.7515  1.6202
   29DOPE  H12Y 3722   6.104   1.417  14.633  0.1180  0.7690  0.0798
   29DOPE  C313 3723   6.248   1.570  14.585 -0.8007 -0.8883  0.1099
   29DOPE  H13X 3724   6.284   1.666  14.630  0.5444 -1.4362  0.2204
   29DOPE  H13Y 3725   6.337   1.505  14.588 -0.0229  0.0473 -1.4842
   29DOPE  C314 3726   6.202   1.590  14.432 -0.4268 -0.0975 -0.0606
   29DOPE  H14X 3727   6.128   1.673  14.431  0.4179  0.6798  0.6508
   29DOPE  H14Y 3728   6.157   1.499  14.385  0.2377 -0.1722 -0.5668
   29DOPE  C315 3729   6.325   1.607  14.344 -0.4047 -0.1615  0.0435
   29DOPE  H15X 3730   6.396   1.522  14.350  1.8194  1.5558 -0.6464
   29DOPE  H15Y 3731   6.383   1.690  14.391  0.8517 -0.4144 -1.0166
   29DOPE  C316 3732   6.291   1.645  14.196 -0.0142  0.2170 -0.7618
   29DOPE  H16X 3733   6.379   1.672  14.133  2.1389 -0.6956  1.6632
   29DOPE  H16Y 3734   6.234   1.740  14.205  0.7243  0.5502  0.7302
   29DOPE  C317 3735   6.207   1.542  14.123  0.3237 -0.2312 -0.4136
   29DOPE  H17X 3736   6.237   1.440  14.153 -0.6167 -0.1047  1.1122
   29DOPE  H17Y 3737   6.103   1.553  14.162  1.1400  2.5450  1.2644
   29DOPE  C318 3738   6.199   1.563  13.971 -0.1314  0.6096  0.5019
   29DOPE  H18X 3739   6.225   1.669  13.946  0.7522  0.5773  1.2140
   29DOPE  H18Y 3740   6.277   1.498  13.926 -1.4332 -2.3246  2.2427
   29DOPE  H18Z 3741   6.101   1.531  13.932  0.7867 -0.4219 -1.0688
   30DOPE     N 3742   4.972   0.380  16.698  0.4914  0.2343  0.3130
   30DOPE   HN1 3743   4.926   0.444  16.765 -3.1828  0.3550 -2.0140
   30DOPE   HN2 3744   4.902   0.307  16.674  0.0177 -0.5750  3.6912
   30DOPE   HN3 3745   5.060   0.337  16.734  0.5685  0.1154 -0.0078
   30DOPE   C12 3746   5.028   0.458  16.583  0.6019  0.6016  0.0027
   30DOPE  H12A 3747   4.951   0.529  16.547  0.6844  0.5593 -0.2570
   30DOPE  H12B 3748   5.070   0.389  16.506 -0.8306 -0.8009  0.4184
   30DOPE   C11 3749   5.142   0.549  16.617 -0.6332  0.5216 -0.3277
   30DOPE  H11A 3750   5.180   0.605  16.529  3.4318 -0.1288  0.8116
   30DOPE  H11B 3751   5.221   0.483  16.659 -1.4929  0.4053  1.1983
   30DOPE     P 3752   5.169   0.755  16.797 -0.1610  0.0896 -0.4689
   30DOPE   O13 3753   5.257   0.683  16.895 -0.2581  0.0331  0.5359
   30DOPE   O14 3754   5.072   0.854  16.852 -0.2253 -0.4269 -0.1212
   30DOPE   O11 3755   5.261   0.818  16.691 -0.5786  0.0729  0.9613
   30DOPE   O12 3756   5.093   0.643  16.719 -0.5923 -0.7956 -0.1160
   30DOPE    C1 3757   5.393   0.761  16.671 -0.0944  0.0287 -0.3716
   30DOPE    HA 3758   5.388   0.650  16.670  1.9569 -0.0934 -1.6350
   30DOPE    HB 3759   5.455   0.791  16.757 -0.6475  0.3601 -0.0804
   30DOPE    C2 3760   5.467   0.805  16.540  0.1361 -0.1061  0.3143
   30DOPE    HS 3761   5.483   0.915  16.551 -2.6757  0.2463  1.8619
   30DOPE   O21 3762   5.379   0.796  16.426  0.2153  0.5798  0.1378
   30DOPE   C21 3763   5.300   0.894  16.403 -0.4793  0.1614  0.0825
   30DOPE   O22 3764   5.307   1.010  16.445 -0.4723 -0.1297  0.0189
   30DOPE   C22 3765   5.188   0.850  16.314 -0.3828  0.1663  0.0026
   30DOPE   H2R 3766   5.098   0.897  16.358  0.5652  1.3880  0.7332
   30DOPE   H2S 3767   5.198   0.740  16.319  1.6812  0.2813 -0.5066
   30DOPE    C3 3768   5.593   0.726  16.516  0.5008  1.0066 -0.1541
   30DOPE    HX 3769   5.560   0.621  16.499 -1.6130  1.4568  0.8187
   30DOPE    HY 3770   5.649   0.734  16.612 -0.8183  3.0184  0.5132
   30DOPE   O31 3771   5.656   0.781  16.400 -0.2282  0.5601  0.4967
   30DOPE   C31 3772   5.762   0.713  16.361  0.2164  0.4475 -0.4510
   30DOPE   O32 3773   5.809   0.616  16.425  0.6632  0.2745  0.3420
   30DOPE   C32 3774   5.816   0.753  16.221 -0.1787 -0.2480  0.1830
   30DOPE   H2X 3775   5.762   0.837  16.173  2.2355  1.4201  0.2010
   30DOPE   H2Y 3776   5.918   0.787  16.249 -0.1832 -1.0256  1.2211
   30DOPE   C23 3777   5.198   0.909  16.170  0.5195 -0.5124 -0.1135
   30DOPE   H3R 3778   5.299   0.893  16.126  1.4588  0.1727  1.6686
   30DOPE   H3S 3779   5.213   1.018  16.183  0.8883 -0.7609  1.8778
   30DOPE   C24 3780   5.077   0.879  16.068 -0.4497 -0.9871 -0.0544
   30DOPE   H4R 3781   4.985   0.927  16.106 -1.2177 -1.5573 -1.1266
   30DOPE   H4S 3782   5.072   0.768  16.068 -2.0617 -0.9455  0.9974
   30DOPE   C25 3783   5.119   0.929  15.938  0.1487 -0.4238  0.3923
   30DOPE   H5R 3784   5.199   0.867  15.890  0.5968  1.1158 -0.9485
   30DOPE   H5S 3785   5.150   1.035  15.948  1.2232 -0.8370  1.8349
   30DOPE   C26 3786   4.997   0.919  15.847  0.2339 -0.0320 -0.3022
   30DOPE   H6R 3787   4.911   0.965  15.900 -2.4237  1.6002 -5.3783
   30DOPE   H6S 3788   4.952   0.817  15.850  0.2841 -0.0462  1.9986
   30DOPE   C27 3789   5.009   0.958  15.704 -0.3979  0.0938  0.4008
   30DOPE   H7R 3790   5.049   1.062  15.710 -1.8664  0.6324  1.3446
   30DOPE   H7S 3791   4.906   0.953  15.662 -0.1077 -0.6432 -0.2521
   30DOPE   C28 3792   5.106   0.863  15.621 -0.1810 -0.3470  0.0383
   30DOPE   H8R 3793   5.053   0.770  15.592 -0.3766 -0.6996  1.4362
   30DOPE   H8S 3794   5.191   0.826  15.682 -0.4997 -0.8062  0.2089
   30DOPE   C29 3795   5.158   0.944  15.507  0.4930  0.3124 -0.0354
   30DOPE   H9R 3796   5.245   1.007  15.533  1.7811 -1.2206 -0.4494
   30DOPE  C210 3797   5.117   0.961  15.378 -1.0200 -0.0676  0.4274
   30DOPE  H10R 3798   5.173   1.026  15.309 -1.3882 -0.3212 -0.1159
   30DOPE  C211 3799   5.005   0.879  15.324  0.1768 -0.0340  0.2909
   30DOPE  H11R 3800   4.926   0.953  15.298  2.5567  2.4782 -0.2235
   30DOPE  H11S 3801   4.959   0.804  15.392 -0.7073  2.2102  2.3413
   30DOPE  C212 3802   5.052   0.798  15.202 -0.0974  0.6376 -0.8031
   30DOPE  H12R 3803   4.982   0.713  15.186  0.1161  0.1683  0.5745
   30DOPE  H12S 3804   5.142   0.743  15.235  1.2456  3.2057  0.0709
   30DOPE  C213 3805   5.081   0.869  15.075  0.4766  0.4364  0.1345
   30DOPE  H13R 3806   5.145   0.954  15.104  0.4388  1.1596 -1.8243
   30DOPE  H13S 3807   4.982   0.909  15.042 -0.1582 -0.7041  0.5856
   30DOPE  C214 3808   5.128   0.782  14.962 -0.0168  0.2265 -0.1880
   30DOPE  H14R 3809   5.050   0.707  14.936  0.4557  0.0275 -1.0683
   30DOPE  H14S 3810   5.216   0.720  14.989 -0.7615 -1.6918 -1.8561
   30DOPE  C215 3811   5.149   0.879  14.842  0.8313  0.5406  0.3403
   30DOPE  H15R 3812   5.220   0.963  14.857  0.2555  1.5186 -1.9397
   30DOPE  H15S 3813   5.052   0.931  14.826  0.0039 -0.7063  1.1145
   30DOPE  C216 3814   5.185   0.824  14.704  0.1873  0.8086  0.3732
   30DOPE  H16R 3815   5.183   0.906  14.630 -2.0413  0.8711  0.4327
   30DOPE  H16S 3816   5.097   0.762  14.677  1.1251 -0.6780  0.6054
   30DOPE  C217 3817   5.317   0.745  14.702 -0.6881 -0.1007 -0.4109
   30DOPE  H17R 3818   5.302   0.676  14.617 -0.1457  0.2186 -0.7699
   30DOPE  H17S 3819   5.329   0.679  14.791  0.6211 -0.4437 -0.8207
   30DOPE  C218 3820   5.439   0.834  14.686 -0.2026  0.2209  0.0195
   30DOPE  H18R 3821   5.456   0.907  14.767  1.3970 -1.4148  1.2311
   30DOPE  H18S 3822   5.441   0.898  14.595  0.9965  0.9224  0.5191
   30DOPE  H18T 3823   5.535   0.777  14.682  1.2957  2.5996  0.4780
   30DOPE   C33 3824   5.814   0.643  16.112  0.2117 -0.0923 -0.5474
   30DOPE   H3X 3825   5.713   0.597  16.108  0.0510  0.1670  0.3235
   30DOPE   H3Y 3826   5.888   0.569  16.150  1.9476  1.7854 -0.0953
   30DOPE   C34 3827   5.864   0.694  15.974  0.4255  0.2236 -0.3565
   30DOPE   H4X 3828   5.815   0.788  15.939  1.4758 -0.0093 -2.6628
   30DOPE   H4Y 3829   5.971   0.716  15.991  0.0438  0.3370  2.2598
   30DOPE   C35 3830   5.857   0.588  15.866  0.8847  0.2170  0.1934
   30DOPE   H5X 3831   5.756   0.540  15.862 -0.0246  2.0939 -0.5476
   30DOPE   H5Y 3832   5.935   0.511  15.883  1.5090  0.2954 -1.9849
   30DOPE   C36 3833   5.888   0.652  15.731  0.1126  0.4708 -0.1895
   30DOPE   H6X 3834   5.962   0.732  15.754  0.1470  0.2427  0.5089
   30DOPE   H6Y 3835   5.798   0.710  15.701 -0.7112  0.4686  2.0742
   30DOPE   C37 3836   5.931   0.550  15.626 -0.3407  0.0546  0.1275
   30DOPE   H7X 3837   6.001   0.474  15.669  0.5981  0.1651 -1.1278
   30DOPE   H7Y 3838   5.836   0.501  15.595  0.1311 -1.2492  0.6380
   30DOPE   C38 3839   6.002   0.615  15.508 -0.3140 -0.4286  0.2124
   30DOPE   H8X 3840   6.045   0.533  15.447  0.7724 -0.1848  0.6280
   30DOPE   H8Y 3841   6.092   0.667  15.547 -0.5103 -0.4618  0.7209
   30DOPE   C39 3842   5.912   0.705  15.426 -0.0563  0.4869 -0.1441
   30DOPE   H9X 3843   5.840   0.765  15.483 -0.9194 -0.2713 -0.4164
   30DOPE  C310 3844   5.924   0.720  15.287  0.1772 -0.2638 -0.2021
   30DOPE  H10X 3845   5.847   0.784  15.240 -0.7507 -1.2881 -0.1261
   30DOPE  C311 3846   6.025   0.649  15.201  0.4879  0.4117  0.3275
   30DOPE  H11X 3847   6.128   0.650  15.243  0.7631  3.0651 -0.2363
   30DOPE  H11Y 3848   6.000   0.541  15.187  3.1732 -0.2645  0.0409
   30DOPE  C312 3849   6.040   0.707  15.064 -0.6043  0.5384  0.6186
   30DOPE  H12X 3850   6.147   0.713  15.035 -0.8317  1.1663 -0.1228
   30DOPE  H12Y 3851   6.020   0.815  15.075  0.5490  0.7990  0.3159
   30DOPE  C313 3852   5.961   0.643  14.948 -0.1095  0.6281  0.3637
   30DOPE  H13X 3853   5.971   0.533  14.940  1.3587  0.8685 -2.0296
   30DOPE  H13Y 3854   5.853   0.663  14.963 -0.1040  0.8816  0.0843
   30DOPE  C314 3855   6.009   0.702  14.817  0.4805 -0.3387 -0.9838
   30DOPE  H14X 3856   6.119   0.718  14.813  0.7854 -2.1353 -0.3488
   30DOPE  H14Y 3857   5.962   0.802  14.826 -1.1121 -1.0360 -1.2374
   30DOPE  C315 3858   5.959   0.623  14.694 -0.0094 -0.1053  0.6805
   30DOPE  H15X 3859   5.849   0.614  14.707 -0.0433  1.3060  1.4749
   30DOPE  H15Y 3860   5.984   0.515  14.685  0.4772  0.0571  0.0747
   30DOPE  C316 3861   5.981   0.690  14.557 -0.0917 -0.3388 -0.1341
   30DOPE  H16X 3862   6.090   0.692  14.540 -0.2554  0.0730 -1.2149
   30DOPE  H16Y 3863   5.947   0.795  14.555 -4.0707 -1.4573 -1.4796
   30DOPE  C317 3864   5.927   0.631  14.428 -0.1978  0.5796 -0.1937
   30DOPE  H17X 3865   5.817   0.629  14.440 -0.3073  1.6018 -0.9599
   30DOPE  H17Y 3866   5.954   0.694  14.341  0.5115 -1.3285 -1.4207
   30DOPE  C318 3867   5.961   0.486  14.399  0.2160  0.0390  0.0335
   30DOPE  H18X 3868   5.929   0.429  14.489 -0.7578 -2.9091 -2.0278
   30DOPE  H18Y 3869   5.901   0.454  14.311 -0.4603 -0.5466  0.6865
   30DOPE  H18Z 3870   6.071   0.477  14.389  0.6201  3.1418  0.6915
   31DOPE     N 3871   3.659   3.711  11.646  0.5764  0.6483  0.4307
   31DOPE   HN1 3872   3.555   3.714  11.653  0.3194 -0.5365 -1.8297
   31DOPE   HN2 3873   3.710   3.696  11.735  0.5199 -2.1907  0.0810
   31DOPE   HN3 3874   3.684   3.811  11.630  0.7969  0.5333  0.0513
   31DOPE   C12 3875   3.697   3.625  11.534 -0.4310 -0.7453 -0.0324
   31DOPE  H12A 3876   3.707   3.688  11.442  1.0506  1.4728  1.5474
   31DOPE  H12B 3877   3.625   3.542  11.519 -0.7281 -1.0252  2.5920
   31DOPE   C11 3878   3.838   3.566  11.557 -0.2365 -0.2880  0.5142
   31DOPE  H11A 3879   3.873   3.515  11.464  0.4421 -0.1356  0.6826
   31DOPE  H11B 3880   3.820   3.492  11.638  0.3009  0.5876  1.4645
   31DOPE     P 3881   4.090   3.644  11.588  0.0622 -0.2129  0.1535
   31DOPE   O13 3882   4.154   3.777  11.564  0.0761 -0.1586  0.1751
   31DOPE   O14 3883   4.124   3.536  11.495  0.1617 -0.0506  0.0431
   31DOPE   O11 3884   4.133   3.601  11.732  0.7048 -0.1146  0.2439
   31DOPE   O12 3885   3.934   3.666  11.599 -0.2401  0.0637 -0.6549
   31DOPE    C1 3886   4.061   3.659  11.839 -0.5983 -0.1084  0.5335
   31DOPE    HA 3887   3.957   3.623  11.855 -0.4013 -0.5229  0.9040
   31DOPE    HB 3888   4.071   3.768  11.822 -0.3233 -0.1430  0.4641
   31DOPE    C2 3889   4.119   3.611  11.975  0.2838  0.3881  0.1448
   31DOPE    HS 3890   4.055   3.649  12.058 -1.7680  1.9628 -2.0007
   31DOPE   O21 3891   4.247   3.663  12.001 -0.6499 -0.2583  0.5870
   31DOPE   C21 3892   4.258   3.803  11.999  0.1109  0.5554 -0.4019
   31DOPE   O22 3893   4.169   3.881  12.007 -0.7999  0.0977  0.4649
   31DOPE   C22 3894   4.403   3.849  12.017 -0.1645  0.2820  0.5104
   31DOPE   H2R 3895   4.413   3.958  11.996 -0.7958  0.3861  0.7167
   31DOPE   H2S 3896   4.456   3.812  11.928 -0.8836  3.6666 -1.5093
   31DOPE    C3 3897   4.127   3.453  11.990  1.2541 -0.3173 -0.5297
   31DOPE    HX 3898   4.207   3.416  11.921  0.6437 -3.0747  0.1151
   31DOPE    HY 3899   4.035   3.399  11.959  1.6814 -1.2478 -0.2317
   31DOPE   O31 3900   4.172   3.409  12.125 -0.1008  0.2601  0.1794
   31DOPE   C31 3901   4.080   3.410  12.224 -0.8491  0.2427  0.0227
   31DOPE   O32 3902   3.972   3.457  12.215 -0.0021 -0.1149 -0.5193
   31DOPE   C32 3903   4.139   3.358  12.356 -0.2378  0.1103 -0.2636
   31DOPE   H2X 3904   4.069   3.273  12.374 -0.5182  0.6276  1.2774
   31DOPE   H2Y 3905   4.244   3.332  12.334 -0.1016 -0.2254  0.7293
   31DOPE   C23 3906   4.453   3.817  12.163  0.3963  0.0304 -0.1821
   31DOPE   H3R 3907   4.560   3.844  12.155  0.2943  0.5005  0.0167
   31DOPE   H3S 3908   4.436   3.713  12.195 -0.3531  0.3689  0.5607
   31DOPE   C24 3909   4.403   3.916  12.266 -0.3715 -0.2122 -0.4459
   31DOPE   H4R 3910   4.293   3.903  12.276 -0.1678 -0.9378  1.1153
   31DOPE   H4S 3911   4.422   4.017  12.223  1.4149 -1.0914 -1.8359
   31DOPE   C25 3912   4.473   3.924  12.406 -0.6910  0.5903 -0.3536
   31DOPE   H5R 3913   4.458   4.024  12.453 -0.9532  0.4680 -0.1738
   31DOPE   H5S 3914   4.582   3.910  12.393 -0.7299  1.4178 -1.7664
   31DOPE   C26 3915   4.409   3.822  12.517  0.0499  0.6234  0.2359
   31DOPE   H6R 3916   4.418   3.718  12.480 -0.3411  0.8762 -0.5812
   31DOPE   H6S 3917   4.302   3.850  12.525 -0.3203 -0.9385  1.1602
   31DOPE   C27 3918   4.467   3.837  12.654 -0.0349 -0.2205  0.2702
   31DOPE   H7R 3919   4.429   3.922  12.715 -1.1403 -0.5465  0.0435
   31DOPE   H7S 3920   4.578   3.850  12.652 -0.1246  0.7457  0.6062
   31DOPE   C28 3921   4.431   3.714  12.752 -0.3412  0.4952 -0.1968
   31DOPE   H8R 3922   4.517   3.710  12.823 -1.3069 -0.7145  0.9315
   31DOPE   H8S 3923   4.446   3.618  12.698  1.4341  1.3104 -1.2430
   31DOPE   C29 3924   4.299   3.724  12.814  0.1601 -0.5938  0.2856
   31DOPE   H9R 3925   4.212   3.715  12.748  0.2828 -1.9992  0.2776
   31DOPE  C210 3926   4.265   3.747  12.944 -0.1570 -0.4952 -0.2462
   31DOPE  H10R 3927   4.162   3.779  12.964 -0.1080  0.4131 -1.3470
   31DOPE  C211 3928   4.356   3.755  13.065  0.0452 -0.4711 -0.9930
   31DOPE  H11R 3929   4.332   3.846  13.123  4.1639 -0.5361  1.1073
   31DOPE  H11S 3930   4.459   3.774  13.029 -0.7855  0.6493 -2.9439
   31DOPE  C212 3931   4.345   3.642  13.169  0.0902 -0.4081  0.1512
   31DOPE  H12R 3932   4.385   3.549  13.123  1.9978  1.0534 -1.3581
   31DOPE  H12S 3933   4.240   3.613  13.189  0.0477 -0.8378 -0.6637
   31DOPE  C213 3934   4.401   3.675  13.306  0.1043 -0.4656 -0.0624
   31DOPE  H13R 3935   4.347   3.766  13.340 -1.3844 -1.0543 -0.8031
   31DOPE  H13S 3936   4.506   3.704  13.284  0.4863 -0.4313  1.6818
   31DOPE  C214 3937   4.389   3.561  13.404 -0.1993  0.5210 -0.3581
   31DOPE  H14R 3938   4.441   3.468  13.370  0.1078 -0.0307  1.4739
   31DOPE  H14S 3939   4.281   3.536  13.407 -0.2046  0.5101 -0.6023
   31DOPE  C215 3940   4.424   3.601  13.548 -0.8679  0.4104  0.2744
   31DOPE  H15R 3941   4.386   3.702  13.572 -0.7897  0.0497  2.0566
   31DOPE  H15S 3942   4.535   3.613  13.552 -0.6362 -0.5064 -1.9802
   31DOPE  C216 3943   4.383   3.498  13.654 -0.3227  0.2053 -0.5516
   31DOPE  H16R 3944   4.451   3.410  13.660 -1.6553 -0.9609 -1.5511
   31DOPE  H16S 3945   4.281   3.456  13.639 -0.4714  0.0226  0.8772
   31DOPE  C217 3946   4.392   3.554  13.793 -0.2623  0.3550 -0.2702
   31DOPE  H17R 3947   4.492   3.602  13.803 -0.0181 -0.3613  0.8218
   31DOPE  H17S 3948   4.397   3.475  13.870 -1.2139 -0.1875 -0.7418
   31DOPE  C218 3949   4.288   3.650  13.831 -0.3543  0.5730  0.1642
   31DOPE  H18R 3950   4.320   3.715  13.915 -0.7280  0.9432  0.0194
   31DOPE  H18S 3951   4.192   3.604  13.864  0.3140  0.8103  2.5825
   31DOPE  H18T 3952   4.276   3.733  13.758 -1.2079  1.0012  0.7789
   31DOPE   C33 3953   4.132   3.463  12.469 -0.5392  0.2642 -0.1187
   31DOPE   H3X 3954   4.032   3.509  12.459  0.6628  2.6844 -2.5715
   31DOPE   H3Y 3955   4.195   3.553  12.451 -2.1994  1.2250 -1.3777
   31DOPE   C34 3956   4.155   3.413  12.618  0.7646 -0.5707  0.0565
   31DOPE   H4X 3957   4.260   3.387  12.643  1.0193  0.8449  0.5663
   31DOPE   H4Y 3958   4.129   3.504  12.677  0.1672 -0.8084  0.1668
   31DOPE   C35 3959   4.047   3.317  12.670 -0.3651  0.7181 -0.3143
   31DOPE   H5X 3960   4.077   3.212  12.652 -0.9033  0.4681  0.2264
   31DOPE   H5Y 3961   3.954   3.345  12.616  0.8183  0.7324 -2.4732
   31DOPE   C36 3962   4.022   3.337  12.825 -0.7110 -0.1782  0.5536
   31DOPE   H6X 3963   3.940   3.268  12.851  1.5794 -2.5619  1.9195
   31DOPE   H6Y 3964   4.002   3.445  12.841 -1.4826 -0.1243 -0.6666
   31DOPE   C37 3965   4.138   3.315  12.922  0.2629 -0.4520  0.1552
   31DOPE   H7X 3966   4.173   3.211  12.907  0.5630 -0.0003 -2.9782
   31DOPE   H7Y 3967   4.224   3.380  12.894 -0.4949  1.0296  1.1357
   31DOPE   C38 3968   4.087   3.333  13.067 -0.0237  0.4934 -0.5461
   31DOPE   H8X 3969   4.004   3.260  13.064  0.1119  0.3172 -0.0872
   31DOPE   H8Y 3970   4.037   3.431  13.085 -0.6407  0.0569  0.1612
   31DOPE   C39 3971   4.199   3.321  13.171  0.3560 -0.6443 -0.4061
   31DOPE   H9X 3972   4.286   3.383  13.146 -0.9220  0.7191 -1.7067
   31DOPE  C310 3973   4.215   3.232  13.270  0.5575  0.1025  0.2587
   31DOPE  H10X 3974   4.299   3.251  13.339  0.8845  0.3906 -0.2136
   31DOPE  C311 3975   4.115   3.122  13.305  0.1110 -0.0343 -0.5058
   31DOPE  H11X 3976   4.021   3.116  13.247  1.0199  0.9317 -2.1335
   31DOPE  H11Y 3977   4.163   3.022  13.291  0.1586 -0.2684  1.0917
   31DOPE  C312 3978   4.069   3.139  13.448 -0.4587 -0.4289  0.0286
   31DOPE  H12X 3979   3.984   3.075  13.482 -1.8291  1.7817  0.9836
   31DOPE  H12Y 3980   4.033   3.244  13.451  2.0077  0.4767 -0.0477
   31DOPE  C313 3981   4.182   3.120  13.557  0.3877 -0.3361 -0.3160
   31DOPE  H13X 3982   4.235   3.023  13.548  1.0410 -0.0297  0.1493
   31DOPE  H13Y 3983   4.255   3.203  13.548 -1.9854  2.0703  0.9490
   31DOPE  C314 3984   4.132   3.145  13.699  0.3200 -0.7657  0.6715
   31DOPE  H14X 3985   4.042   3.082  13.709 -0.1421  0.1313  2.7586
   31DOPE  H14Y 3986   4.104   3.253  13.706  0.3931 -0.8619  3.0284
   31DOPE  C315 3987   4.231   3.102  13.810 -0.6614 -0.1677  0.0824
   31DOPE  H15X 3988   4.338   3.121  13.788  1.0898 -5.0285  2.8277
   31DOPE  H15Y 3989   4.216   2.992  13.806 -0.8273 -0.3299  2.8699
   31DOPE  C316 3990   4.199   3.156  13.952 -0.5087  0.2489  0.2468
   31DOPE  H16X 3991   4.237   3.260  13.957 -2.6853  1.1095 -0.2993
   31DOPE  H16Y 3992   4.265   3.105  14.027 -1.2633  0.0244  0.7685
   31DOPE  C317 3993   4.059   3.150  14.012 -0.3973 -0.1212  0.4125
   31DOPE  H17X 3994   3.980   3.205  13.956 -0.9140  0.1572  1.3891
   31DOPE  H17Y 3995   4.043   3.040  14.014 -0.4801 -0.0974  2.0212
   31DOPE  C318 3996   4.070   3.195  14.156 -0.5552  0.3039  0.8407
   31DOPE  H18X 3997   3.983   3.176  14.221  0.9992 -0.8881  2.6980
   31DOPE  H18Y 3998   4.155   3.138  14.200  1.8022  0.9623 -2.4842
   31DOPE  H18Z 3999   4.089   3.305  14.154 -3.5715  0.9193  1.1310
   32DOPE     N 4000   5.417   4.373  11.637 -0.0626  0.3322 -0.2898
   32DOPE   HN1 4001   5.386   4.325  11.724 -0.4551 -0.4226 -0.8438
   32DOPE   HN2 4002   5.340   4.342  11.575  2.0893 -1.8484 -2.1060
   32DOPE   HN3 4003   5.512   4.333  11.619  0.8939  3.1639 -2.1636
   32DOPE   C12 4004   5.409   4.525  11.660 -0.6638  0.0992 -0.2036
   32DOPE  H12A 4005   5.438   4.569  11.562  1.2193  2.7295  1.4020
   32DOPE  H12B 4006   5.489   4.553  11.731 -0.7199 -0.5381  0.1207
   32DOPE   C11 4007   5.274   4.575  11.711  0.4789 -0.0140  0.9385
   32DOPE  H11A 4008   5.293   4.668  11.769 -0.5682  0.7925  0.0245
   32DOPE  H11B 4009   5.236   4.502  11.786  1.9098 -1.1577  0.5845
   32DOPE     P 4010   5.095   4.465  11.549  0.1017  0.1672 -0.0172
   32DOPE   O13 4011   5.191   4.351  11.513  0.3486 -0.3933 -0.3014
   32DOPE   O14 4012   5.009   4.510  11.436  0.3158 -0.1718 -0.0987
   32DOPE   O11 4013   5.001   4.426  11.671  0.5313 -0.0221  0.4531
   32DOPE   O12 4014   5.171   4.590  11.608 -0.1499  0.1705 -0.5602
   32DOPE    C1 4015   4.896   4.506  11.728  0.0375  0.2849  0.6605
   32DOPE    HA 4016   4.831   4.429  11.776 -0.6906  0.1338 -0.5148
   32DOPE    HB 4017   4.832   4.549  11.647  2.2578 -0.7641 -1.8004
   32DOPE    C2 4018   4.937   4.609  11.836  0.1953 -0.3210 -0.7372
   32DOPE    HS 4019   5.014   4.681  11.802 -1.4278  0.7626 -2.3215
   32DOPE   O21 4020   4.976   4.526  11.948  0.5600 -0.2137 -0.1478
   32DOPE   C21 4021   5.081   4.575  12.020 -0.0658  0.8610 -0.2751
   32DOPE   O22 4022   5.145   4.676  12.000  0.0959 -0.0656 -0.2149
   32DOPE   C22 4023   5.105   4.499  12.147  0.2621  0.4549 -0.0068
   32DOPE   H2R 4024   5.209   4.460  12.158  0.4457  1.2831  1.5439
   32DOPE   H2S 4025   5.040   4.409  12.151 -0.2480  0.8086 -0.2359
   32DOPE    C3 4026   4.817   4.696  11.879  0.9133 -0.2752  0.7254
   32DOPE    HX 4027   4.785   4.761  11.795  1.8640 -0.7541 -0.0393
   32DOPE    HY 4028   4.857   4.766  11.954 -2.7693  1.4192  1.3144
   32DOPE   O31 4029   4.697   4.620  11.925 -0.0838 -0.0888 -0.8603
   32DOPE   C31 4030   4.702   4.590  12.054 -0.4675 -0.0485  0.4737
   32DOPE   O32 4031   4.783   4.630  12.135  0.2316 -0.1246 -0.3513
   32DOPE   C32 4032   4.582   4.509  12.094 -0.0431  0.1765  0.5110
   32DOPE   H2X 4033   4.542   4.561  12.183 -0.8492  0.9300 -0.2735
   32DOPE   H2Y 4034   4.502   4.503  12.017 -0.2822  0.9041  0.6972
   32DOPE   C23 4035   5.062   4.574  12.273 -0.8131  0.7316 -0.3070
   32DOPE   H3R 4036   4.952   4.582  12.278 -0.7803  2.3756 -1.3819
   32DOPE   H3S 4037   5.104   4.677  12.281  1.6247 -0.2990  1.3289
   32DOPE   C24 4038   5.133   4.515  12.399  0.5578 -0.0201 -0.2875
   32DOPE   H4R 4039   5.243   4.521  12.381  0.4274 -3.0230 -3.0089
   32DOPE   H4S 4040   5.104   4.408  12.393  3.4528 -0.9241  0.2923
   32DOPE   C25 4041   5.083   4.575  12.532  0.5238  0.2140  0.9531
   32DOPE   H5R 4042   4.975   4.550  12.544  0.9371 -3.0882 -0.8538
   32DOPE   H5S 4043   5.097   4.685  12.522 -0.4429  0.2333 -0.6781
   32DOPE   C26 4044   5.159   4.531  12.655 -0.1901 -0.6504 -0.1918
   32DOPE   H6R 4045   5.266   4.556  12.642 -0.0207  1.2843  3.5354
   32DOPE   H6S 4046   5.144   4.421  12.663  1.7561 -0.9998 -0.9307
   32DOPE   C27 4047   5.108   4.595  12.783  0.5213  0.1484  0.6829
   32DOPE   H7R 4048   4.997   4.592  12.775  0.4617  0.1550  1.4499
   32DOPE   H7S 4049   5.129   4.703  12.799 -0.8541  0.8976 -1.9551
   32DOPE   C28 4050   5.150   4.514  12.907 -0.2630  0.1104 -0.7353
   32DOPE   H8R 4051   5.254   4.550  12.922 -0.2534  1.1058 -2.8033
   32DOPE   H8S 4052   5.143   4.405  12.889  0.3787 -0.2900  1.2327
   32DOPE   C29 4053   5.064   4.553  13.027 -0.3391  0.2630  0.3839
   32DOPE   H9R 4054   5.047   4.661  13.020 -2.3509 -0.1084 -1.5421
   32DOPE  C210 4055   5.022   4.470  13.130  0.3977 -0.6123  0.1761
   32DOPE  H10R 4056   4.978   4.515  13.220  0.3246 -1.9016  0.8095
   32DOPE  C211 4057   5.039   4.322  13.141 -0.3632  0.3701  0.2132
   32DOPE  H11R 4058   5.097   4.273  13.060 -0.4827  0.0246  0.3349
   32DOPE  H11S 4059   4.946   4.261  13.138  0.0497 -0.2622 -0.0060
   32DOPE  C212 4060   5.108   4.270  13.270 -0.7516  0.6102  0.9384
   32DOPE  H12R 4061   5.217   4.284  13.254 -0.0981 -1.8798  2.7189
   32DOPE  H12S 4062   5.096   4.159  13.270  0.6287  0.4416  0.4215
   32DOPE  C213 4063   5.055   4.321  13.405  0.1421  0.4615 -0.9293
   32DOPE  H13R 4064   4.950   4.287  13.417  0.3065  0.9743  3.5899
   32DOPE  H13S 4065   5.050   4.431  13.394  0.2031  0.3981 -1.6237
   32DOPE  C214 4066   5.133   4.268  13.524  0.0890 -0.0579  0.0466
   32DOPE  H14R 4067   5.232   4.317  13.510 -0.5155  0.4159 -3.5007
   32DOPE  H14S 4068   5.143   4.157  13.533 -1.6412 -0.1594  1.2891
   32DOPE  C215 4069   5.079   4.304  13.660  0.2973  0.2038  0.2548
   32DOPE  H15R 4070   4.995   4.231  13.666  0.6879 -0.2977 -0.2728
   32DOPE  H15S 4071   5.044   4.410  13.653  0.8370  0.3536 -0.2333
   32DOPE  C216 4072   5.172   4.291  13.777  0.2092 -0.8405 -0.7324
   32DOPE  H16R 4073   5.250   4.367  13.754 -0.2506 -0.5689 -1.4028
   32DOPE  H16S 4074   5.218   4.189  13.778  1.0354 -0.4760 -0.2244
   32DOPE  C217 4075   5.094   4.298  13.906  0.2202 -0.3216 -0.1511
   32DOPE  H17R 4076   5.012   4.223  13.907 -0.1748  0.0806 -1.2229
   32DOPE  H17S 4077   5.046   4.398  13.917 -2.6195 -1.4878 -0.8865
   32DOPE  C218 4078   5.187   4.258  14.023 -0.2596  0.0557 -0.4085
   32DOPE  H18R 4079   5.224   4.154  14.016 -0.8320 -0.4555  2.5308
   32DOPE  H18S 4080   5.132   4.256  14.120 -0.4563 -2.3739 -0.5262
   32DOPE  H18T 4081   5.274   4.327  14.029 -0.1818 -0.0449 -0.3935
   32DOPE   C33 4082   4.614   4.368  12.141  0.3915 -0.5642 -0.3465
   32DOPE   H3X 4083   4.675   4.309  12.070  2.7039 -1.3323  2.0981
   32DOPE   H3Y 4084   4.516   4.321  12.164 -0.4507  2.1006  2.2870
   32DOPE   C34 4085   4.695   4.373  12.269  0.2695 -0.0210  0.5995
   32DOPE   H4X 4086   4.797   4.404  12.236  0.6617 -0.6265  1.2188
   32DOPE   H4Y 4087   4.669   4.459  12.335 -2.5328 -0.5695  0.3342
   32DOPE   C35 4088   4.679   4.259  12.360 -1.0844  0.1996  0.2110
   32DOPE   H5X 4089   4.702   4.173  12.294  2.1049 -0.2522  1.6809
   32DOPE   H5Y 4090   4.572   4.250  12.388 -1.8970  2.3169 -1.9138
   32DOPE   C36 4091   4.778   4.276  12.479 -0.3678  0.1812  0.1934
   32DOPE   H6X 4092   4.713   4.318  12.558 -1.6085 -2.0949  0.4624
   32DOPE   H6Y 4093   4.871   4.331  12.454  0.7856 -2.1167 -0.9566
   32DOPE   C37 4094   4.828   4.142  12.542 -0.4747 -0.3857 -0.4023
   32DOPE   H7X 4095   4.745   4.072  12.564  0.6499 -1.6854 -0.1738
   32DOPE   H7Y 4096   4.881   4.090  12.459 -0.3169 -0.7897 -0.0484
   32DOPE   C38 4097   4.922   4.173  12.654  0.4240 -0.2670  0.0852
   32DOPE   H8X 4098   5.007   4.231  12.613 -2.9239  2.8353 -3.2653
   32DOPE   H8Y 4099   4.956   4.083  12.709  0.0072 -0.3242  0.2593
   32DOPE   C39 4100   4.853   4.259  12.752 -0.2430  0.2697 -0.5497
   32DOPE   H9X 4101   4.875   4.367  12.750  0.0581  0.2670  1.0405
   32DOPE  C310 4102   4.777   4.219  12.858  0.4655  0.2830  0.8995
   32DOPE  H10X 4103   4.720   4.298  12.908 -2.4604  0.0149 -1.6987
   32DOPE  C311 4104   4.733   4.078  12.882  0.2091 -0.3151  0.2542
   32DOPE  H11X 4105   4.705   4.028  12.787  2.7987  0.1873 -0.8563
   32DOPE  H11Y 4106   4.809   4.015  12.933  0.7467  0.7147  0.7593
   32DOPE  C312 4107   4.603   4.081  12.973 -0.1892 -0.4458  1.4367
   32DOPE  H12X 4108   4.550   3.984  12.982 -1.9503  0.6109  3.1351
   32DOPE  H12Y 4109   4.533   4.152  12.924  0.2338 -0.9744  0.0260
   32DOPE  C313 4110   4.623   4.136  13.114  0.1588  0.0963 -0.2897
   32DOPE  H13X 4111   4.647   4.243  13.096 -1.3381  0.7650  1.3560
   32DOPE  H13Y 4112   4.524   4.147  13.163  0.1778 -3.6783  0.9619
   32DOPE  C314 4113   4.727   4.073  13.212 -0.1776 -0.1881  0.0476
   32DOPE  H14X 4114   4.781   4.155  13.264  0.8351  0.7248 -2.3001
   32DOPE  H14Y 4115   4.808   4.020  13.157 -0.5263 -0.5111 -0.1635
   32DOPE  C315 4116   4.655   3.980  13.312  0.0781 -0.1138 -0.9172
   32DOPE  H15X 4117   4.565   3.924  13.277 -0.1763 -1.2418  1.3786
   32DOPE  H15Y 4118   4.629   4.044  13.399 -0.7371 -1.5251 -0.0760
   32DOPE  C316 4119   4.749   3.878  13.361  0.3008  0.7932  0.1566
   32DOPE  H16X 4120   4.797   3.824  13.277  0.6256 -2.3349  2.1847
   32DOPE  H16Y 4121   4.690   3.806  13.422  0.7710  1.3575  1.3072
   32DOPE  C317 4122   4.853   3.938  13.463  1.1696  0.5065  0.5987
   32DOPE  H17X 4123   4.947   3.881  13.453  0.7182 -0.0689 -0.4956
   32DOPE  H17Y 4124   4.885   4.037  13.423  1.1661  0.3857  0.2953
   32DOPE  C318 4125   4.804   3.949  13.612 -0.2569  0.0762  0.2847
   32DOPE  H18X 4126   4.898   3.980  13.663  0.5135  1.9731 -2.0717
   32DOPE  H18Y 4127   4.723   4.024  13.625 -1.4387 -0.7573 -1.8029
   32DOPE  H18Z 4128   4.770   3.852  13.654 -0.9443 -0.2381 -0.9454
   33DOPE     N 4129   3.772   2.410  12.428 -0.0767  0.2154 -0.6041
   33DOPE   HN1 4130   3.852   2.349  12.402  1.5312  1.9764  0.0276
   33DOPE   HN2 4131   3.817   2.486  12.482  2.8698 -0.9716 -1.2187
   33DOPE   HN3 4132   3.699   2.366  12.487 -1.3135 -0.7972 -2.7537
   33DOPE   C12 4133   3.709   2.473  12.313  0.1581 -0.7828  0.1570
   33DOPE  H12A 4134   3.608   2.502  12.350  0.2916 -2.6661  2.2145
   33DOPE  H12B 4135   3.699   2.403  12.227  0.7314 -0.3738 -0.2525
   33DOPE   C11 4136   3.804   2.593  12.267 -0.3360  0.1754 -0.0484
   33DOPE  H11A 4137   3.762   2.684  12.313  1.3122  1.1444 -0.3802
   33DOPE  H11B 4138   3.786   2.592  12.157  1.9828 -4.2284 -0.6492
   33DOPE     P 4139   4.043   2.690  12.287 -0.2980  0.5923  0.3065
   33DOPE   O13 4140   4.001   2.784  12.184  0.2639 -0.1253  0.1878
   33DOPE   O14 4141   4.172   2.621  12.273 -0.3177  0.8374 -0.1185
   33DOPE   O11 4142   4.030   2.759  12.425 -0.2002  0.3545  0.0124
   33DOPE   O12 4143   3.942   2.578  12.290 -0.1859  0.3831  0.1409
   33DOPE    C1 4144   4.115   2.854  12.472 -0.1888 -0.0332 -0.0673
   33DOPE    HA 4145   4.085   2.951  12.427  0.0909  0.3317  0.5245
   33DOPE    HB 4146   4.220   2.837  12.441 -0.1836  2.4455 -1.7358
   33DOPE    C2 4147   4.125   2.869  12.628  0.1898 -0.1617  0.6823
   33DOPE    HS 4148   4.196   2.951  12.651 -0.3706  0.1146  1.4647
   33DOPE   O21 4149   4.174   2.754  12.696 -0.2443 -0.4679  0.1951
   33DOPE   C21 4150   4.300   2.727  12.677 -0.0456  0.1693 -0.4785
   33DOPE   O22 4151   4.384   2.793  12.617  0.0915  0.6920  0.1465
   33DOPE   C22 4152   4.334   2.597  12.752  0.9989  0.5858 -0.2487
   33DOPE   H2R 4153   4.378   2.527  12.678  2.1874  2.4265 -1.3511
   33DOPE   H2S 4154   4.242   2.544  12.784  0.1698  0.9723 -1.8820
   33DOPE    C3 4155   3.989   2.908  12.685  0.4506  0.4298 -0.2029
   33DOPE    HX 4156   3.919   2.832  12.645  0.4894 -0.4361  1.2856
   33DOPE    HY 4157   3.960   3.007  12.645  2.8864  0.9003 -1.0015
   33DOPE   O31 4158   3.984   2.915  12.830 -0.1708 -0.2199  0.4778
   33DOPE   C31 4159   3.962   2.811  12.898 -0.0603  0.1016  0.1050
   33DOPE   O32 4160   3.946   2.695  12.859  0.0263 -0.2964 -0.3843
   33DOPE   C32 4161   3.970   2.857  13.047  0.0629  0.0315 -0.7251
   33DOPE   H2X 4162   4.079   2.846  13.069  0.0371  1.1910  0.0508
   33DOPE   H2Y 4163   3.950   2.966  13.053 -2.1210 -0.3848  0.4200
   33DOPE   C23 4164   4.422   2.616  12.873  0.3783  0.2316 -0.1988
   33DOPE   H3R 4165   4.498   2.695  12.857  1.1188 -0.2984  0.6366
   33DOPE   H3S 4166   4.469   2.517  12.889 -0.4642 -0.3323 -1.0799
   33DOPE   C24 4167   4.338   2.674  12.988 -0.1884 -0.4546 -0.2855
   33DOPE   H4R 4168   4.274   2.591  13.024 -1.1566 -0.0813 -1.1098
   33DOPE   H4S 4169   4.276   2.761  12.959 -1.3743 -1.3793 -0.5689
   33DOPE   C25 4170   4.434   2.714  13.104 -0.4557  0.5663 -0.2233
   33DOPE   H5R 4171   4.516   2.780  13.068  1.2816 -1.2919  0.1649
   33DOPE   H5S 4172   4.485   2.620  13.134  0.7816  0.5988 -2.0694
   33DOPE   C26 4173   4.361   2.775  13.220  0.6670  0.6903  0.5096
   33DOPE   H6R 4174   4.276   2.707  13.242  0.6407 -0.1447 -1.8595
   33DOPE   H6S 4175   4.328   2.871  13.177  0.6575  0.5817  0.2738
   33DOPE   C27 4176   4.449   2.800  13.341  0.5130 -0.0621  0.0467
   33DOPE   H7R 4177   4.405   2.879  13.405  0.8109  0.4349 -0.3614
   33DOPE   H7S 4178   4.552   2.829  13.313  0.9744 -1.5967  0.0368
   33DOPE   C28 4179   4.462   2.673  13.434 -0.6541 -0.1913 -0.5295
   33DOPE   H8R 4180   4.545   2.700  13.502  0.3044 -0.2915 -1.6302
   33DOPE   H8S 4181   4.499   2.590  13.370 -0.2048  0.9238 -1.7841
   33DOPE   C29 4182   4.346   2.653  13.524 -0.8942  0.1835  0.1473
   33DOPE   H9R 4183   4.253   2.642  13.467 -0.2324 -1.9521 -0.6166
   33DOPE  C210 4184   4.350   2.658  13.661  1.2227 -0.3908 -0.3382
   33DOPE  H10R 4185   4.259   2.620  13.709  0.6083  0.7052 -0.6026
   33DOPE  C211 4186   4.456   2.701  13.769  0.0188 -0.1724 -1.3332
   33DOPE  H11R 4187   4.426   2.799  13.812 -1.4443 -1.6343  1.1793
   33DOPE  H11S 4188   4.547   2.729  13.711  1.6317 -1.1640  0.6130
   33DOPE  C212 4189   4.497   2.609  13.887  0.4422 -0.0536 -0.5474
   33DOPE  H12R 4190   4.577   2.659  13.945 -1.3826  1.4115  0.8529
   33DOPE  H12S 4191   4.527   2.511  13.845 -0.9147  0.2269 -2.3235
   33DOPE  C213 4192   4.386   2.586  13.996  0.1285 -0.2435  0.1963
   33DOPE  H13R 4193   4.319   2.504  13.963 -1.1074 -0.1761  2.3263
   33DOPE  H13S 4194   4.329   2.681  13.997 -1.2914 -1.0560 -0.4478
   33DOPE  C214 4195   4.443   2.538  14.129  0.0137 -0.2867 -0.5133
   33DOPE  H14R 4196   4.515   2.610  14.172  0.3925 -0.3959 -0.9607
   33DOPE  H14S 4197   4.504   2.445  14.125 -0.3170 -0.7647  2.7794
   33DOPE  C215 4198   4.341   2.484  14.226  0.0033  0.3514  0.5777
   33DOPE  H15R 4199   4.276   2.409  14.177 -0.4309  0.5344  0.8730
   33DOPE  H15S 4200   4.281   2.569  14.264  0.1976  0.1075  1.4714
   33DOPE  C216 4201   4.411   2.427  14.352  0.1389 -0.3375 -0.1316
   33DOPE  H16R 4202   4.430   2.499  14.435  2.0454 -1.1542  0.1912
   33DOPE  H16S 4203   4.512   2.386  14.327  0.3569 -1.3698  2.1958
   33DOPE  C217 4204   4.319   2.331  14.417  0.0490 -0.5033  0.6487
   33DOPE  H17R 4205   4.216   2.370  14.429  0.3644  0.3529  0.6534
   33DOPE  H17S 4206   4.356   2.319  14.521  2.0811  1.5913  0.2560
   33DOPE  C218 4207   4.309   2.192  14.352  0.3200 -0.3224  0.4471
   33DOPE  H18R 4208   4.409   2.147  14.336 -0.3807 -2.6044  2.0476
   33DOPE  H18S 4209   4.270   2.203  14.248  0.6712  0.7366  0.4136
   33DOPE  H18T 4210   4.251   2.119  14.413  0.9761 -0.5307  0.8276
   33DOPE   C33 4211   3.882   2.775  13.143 -0.4224 -0.4850 -0.9819
   33DOPE   H3X 4212   3.914   2.669  13.135  2.9346  0.0286  2.5541
   33DOPE   H3Y 4213   3.772   2.781  13.127 -0.6728 -0.7019  0.5563
   33DOPE   C34 4214   3.918   2.820  13.287  0.5326  0.0862  0.9785
   33DOPE   H4X 4215   4.028   2.834  13.293  0.3831  3.8342 -1.6165
   33DOPE   H4Y 4216   3.866   2.914  13.315 -1.8548 -1.6377  2.7230
   33DOPE   C35 4217   3.860   2.715  13.386  0.1868  0.0488 -0.0778
   33DOPE   H5X 4218   3.897   2.611  13.373 -1.1909 -0.5951  0.8361
   33DOPE   H5Y 4219   3.751   2.710  13.367  0.2597 -0.1931 -0.4455
   33DOPE   C36 4220   3.861   2.767  13.530 -0.3712 -0.0240 -0.2503
   33DOPE   H6X 4221   3.770   2.728  13.580  0.2248 -0.5715  0.4236
   33DOPE   H6Y 4222   3.841   2.875  13.513 -1.7611 -0.0498  0.9995
   33DOPE   C37 4223   3.983   2.731  13.614 -1.0406  0.2782 -0.0172
   33DOPE   H7X 4224   3.993   2.621  13.623 -1.7774  0.2121  0.0572
   33DOPE   H7Y 4225   4.076   2.758  13.559 -1.0316 -0.1144 -0.2026
   33DOPE   C38 4226   3.986   2.801  13.755 -0.0038 -0.4885 -0.1112
   33DOPE   H8X 4227   3.943   2.903  13.742 -2.4936 -1.3339  0.9577
   33DOPE   H8Y 4228   4.091   2.800  13.790 -0.3853 -3.4397  1.1793
   33DOPE   C39 4229   3.889   2.736  13.850  0.0133 -0.4849 -0.1447
   33DOPE   H9X 4230   3.790   2.728  13.803 -0.7244  0.1882  1.2492
   33DOPE  C310 4231   3.913   2.689  13.974  0.3615 -0.5182  0.4392
   33DOPE  H10X 4232   3.842   2.625  14.027  0.0933  0.1191  0.8686
   33DOPE  C311 4233   4.041   2.713  14.042 -0.5164  0.1680 -0.1304
   33DOPE  H11X 4234   4.117   2.634  14.021 -0.1750  0.3559  0.3870
   33DOPE  H11Y 4235   4.091   2.804  14.004 -1.8445  0.8409 -0.2970
   33DOPE  C312 4236   4.025   2.718  14.192 -0.2799 -0.3856 -0.1549
   33DOPE  H12X 4237   3.955   2.795  14.231  2.7659  2.7027 -0.2750
   33DOPE  H12Y 4238   4.123   2.747  14.235 -0.7368  0.2489  0.4865
   33DOPE  C313 4239   3.989   2.583  14.246 -0.6967  0.4210  0.5742
   33DOPE  H13X 4240   3.895   2.551  14.197 -0.0851 -0.6697  0.0649
   33DOPE  H13Y 4241   4.063   2.506  14.217 -0.8505  0.0202  1.2285
   33DOPE  C314 4242   3.971   2.566  14.398  0.6281 -0.0532 -0.1362
   33DOPE  H14X 4243   3.972   2.458  14.421  0.1156 -0.3225 -1.3149
   33DOPE  H14Y 4244   3.873   2.609  14.426 -1.5799 -2.9673 -2.7727
   33DOPE  C315 4245   4.077   2.641  14.477  0.0322  0.1985 -0.8758
   33DOPE  H15X 4246   4.068   2.752  14.473 -0.3208  0.1691 -0.9847
   33DOPE  H15Y 4247   4.180   2.623  14.441  0.9764  1.1098  1.1815
   33DOPE  C316 4248   4.075   2.592  14.625  0.0596  0.2790  0.1746
   33DOPE  H16X 4249   4.156   2.642  14.681 -0.8360  2.1290 -0.1001
   33DOPE  H16Y 4250   4.104   2.485  14.634  0.2112  0.5273  3.7026
   33DOPE  C317 4251   3.943   2.610  14.698  0.3282 -0.0351  0.6894
   33DOPE  H17X 4252   3.904   2.712  14.676  0.0364 -0.5408 -1.3044
   33DOPE  H17Y 4253   3.867   2.537  14.663  2.1635 -1.3549 -0.7306
   33DOPE  C318 4254   3.970   2.606  14.850  0.0168 -0.3683 -0.0056
   33DOPE  H18X 4255   4.028   2.696  14.879  2.3085 -1.6236 -0.4788
   33DOPE  H18Y 4256   3.866   2.606  14.890 -1.1020 -0.3015 -2.6822
   33DOPE  H18Z 4257   4.024   2.512  14.874  1.8907 -0.0710 -2.5728
   34DOPE     N 4258   3.173   4.874  11.706 -0.2415 -0.1071  0.2084
   34DOPE   HN1 4259   3.118   4.947  11.657  0.3697 -0.5911 -1.2569
   34DOPE   HN2 4260   3.122   4.842  11.791 -1.5782  4.5755  1.4855
   34DOPE   HN3 4261   3.252   4.923  11.753 -1.1232  2.3603 -0.7144
   34DOPE   C12 4262   3.222   4.769  11.614  0.0134 -0.0865  0.0713
   34DOPE  H12A 4263   3.301   4.802  11.543 -1.4762 -1.1419 -2.2237
   34DOPE  H12B 4264   3.137   4.735  11.551  0.0174  1.0760 -0.5857
   34DOPE   C11 4265   3.282   4.646  11.689 -0.4973  0.1315  0.5005
   34DOPE  H11A 4266   3.329   4.576  11.616 -1.8228 -1.5193  1.1581
   34DOPE  H11B 4267   3.201   4.581  11.728 -1.5929  0.8853 -0.4241
   34DOPE     P 4268   3.396   4.664  11.931  0.1711  0.3467  0.1959
   34DOPE   O13 4269   3.310   4.768  12.002 -0.7434 -0.7415 -0.5957
   34DOPE   O14 4270   3.538   4.660  11.974 -0.3586 -0.5082 -0.2155
   34DOPE   O11 4271   3.333   4.518  11.931  0.0703 -0.0768 -0.0081
   34DOPE   O12 4272   3.388   4.693  11.776  1.2468 -0.3727 -0.4624
   34DOPE    C1 4273   3.215   4.485  12.012 -0.0929 -0.0966  0.2295
   34DOPE    HA 4274   3.161   4.412  11.948  0.9842  1.2925 -2.4168
   34DOPE    HB 4275   3.143   4.568  12.028 -0.0051  0.2732 -1.1904
   34DOPE    C2 4276   3.252   4.417  12.144  0.4744  0.3848  0.0512
   34DOPE    HS 4277   3.165   4.371  12.196  0.9662  0.0260  0.5690
   34DOPE   O21 4278   3.323   4.506  12.223 -0.3613 -0.3527 -0.5228
   34DOPE   C21 4279   3.250   4.586  12.291  0.3173  0.7878  0.0850
   34DOPE   O22 4280   3.129   4.595  12.291 -0.0673  0.1089 -0.0828
   34DOPE   C22 4281   3.343   4.661  12.383  0.5129 -0.0066  0.8383
   34DOPE   H2R 4282   3.283   4.748  12.418 -0.8324 -0.5727  0.0473
   34DOPE   H2S 4283   3.421   4.708  12.319 -0.0128 -0.9012 -0.5219
   34DOPE    C3 4284   3.351   4.296  12.122  0.7141 -0.1700 -0.1386
   34DOPE    HX 4285   3.449   4.333  12.087  2.9359 -2.6514  2.9269
   34DOPE    HY 4286   3.302   4.230  12.047  0.4652 -0.6168  0.4112
   34DOPE   O31 4287   3.361   4.222  12.244 -0.3433 -0.4322 -0.2478
   34DOPE   C31 4288   3.478   4.234  12.312  0.5648 -0.6357  0.6407
   34DOPE   O32 4289   3.566   4.309  12.283 -0.6571 -0.0274 -0.4926
   34DOPE   C32 4290   3.465   4.155  12.444  0.3454 -0.5491 -0.2985
   34DOPE   H2X 4291   3.371   4.197  12.488  0.1628 -1.4189  0.1638
   34DOPE   H2Y 4292   3.443   4.047  12.434 -0.7224 -0.2435 -1.6900
   34DOPE   C23 4293   3.407   4.576  12.494 -0.0029 -0.2184  0.1561
   34DOPE   H3R 4294   3.504   4.620  12.525  0.1421 -0.4488  0.0334
   34DOPE   H3S 4295   3.434   4.476  12.455  0.5782 -0.4001  1.0037
   34DOPE   C24 4296   3.320   4.577  12.611 -0.4770  0.0633 -1.0043
   34DOPE   H4R 4297   3.243   4.501  12.587 -0.0584 -0.7265  0.0424
   34DOPE   H4S 4298   3.273   4.678  12.614 -0.3069  0.2177 -2.6816
   34DOPE   C25 4299   3.402   4.530  12.733 -0.0351  0.8013 -0.0188
   34DOPE   H5R 4300   3.482   4.606  12.753 -0.0454  0.8168 -0.0377
   34DOPE   H5S 4301   3.452   4.432  12.722 -0.4167  0.4331  1.3214
   34DOPE   C26 4302   3.323   4.527  12.865 -0.1917  0.2584  0.6800
   34DOPE   H6R 4303   3.245   4.448  12.853  0.8141 -0.6825  0.2278
   34DOPE   H6S 4304   3.275   4.626  12.878 -0.0159  0.7723 -1.9471
   34DOPE   C27 4305   3.398   4.470  12.986  0.0607  0.1810 -0.1705
   34DOPE   H7R 4306   3.492   4.514  13.026 -0.2904  0.5678  0.2249
   34DOPE   H7S 4307   3.428   4.365  12.962 -1.1928  0.2814 -2.3811
   34DOPE   C28 4308   3.303   4.452  13.102  0.0413 -0.2480  0.3806
   34DOPE   H8R 4309   3.355   4.398  13.185 -2.4823  0.5064  2.5886
   34DOPE   H8S 4310   3.219   4.386  13.073  0.0195  0.6902 -1.9056
   34DOPE   C29 4311   3.262   4.593  13.147  0.6108  0.1352  0.3676
   34DOPE   H9R 4312   3.192   4.647  13.081  0.6564 -0.9735 -0.6228
   34DOPE  C210 4313   3.280   4.652  13.264 -0.4171 -0.0622 -0.5970
   34DOPE  H10R 4314   3.227   4.746  13.287  0.1087 -0.0019  0.4162
   34DOPE  C211 4315   3.376   4.598  13.376  0.2941  0.0837  0.7194
   34DOPE  H11R 4316   3.422   4.675  13.442 -0.9178 -0.2408  1.9916
   34DOPE  H11S 4317   3.457   4.542  13.324 -0.6883 -0.6468 -0.0687
   34DOPE  C212 4318   3.286   4.497  13.449 -0.8395 -0.1766 -0.4164
   34DOPE  H12R 4319   3.274   4.411  13.381 -0.5156  0.4164 -1.2427
   34DOPE  H12S 4320   3.182   4.520  13.481 -1.1561 -2.6723  0.5487
   34DOPE  C213 4321   3.353   4.435  13.568 -0.1439  0.3432 -0.2309
   34DOPE  H13R 4322   3.463   4.423  13.555 -0.4415 -1.6068 -1.3704
   34DOPE  H13S 4323   3.332   4.328  13.590 -0.0853  0.2943 -0.4082
   34DOPE  C214 4324   3.313   4.505  13.699  0.3231  0.5879  0.6729
   34DOPE  H14R 4325   3.215   4.464  13.731 -0.2546  0.3205 -1.3513
   34DOPE  H14S 4326   3.302   4.614  13.678 -1.6705  0.7140  2.1362
   34DOPE  C215 4327   3.405   4.479  13.817  0.1014  0.4962 -0.1739
   34DOPE  H15R 4328   3.436   4.372  13.822 -0.2023  0.3036 -1.7811
   34DOPE  H15S 4329   3.348   4.492  13.911 -1.5344 -4.3048 -0.2466
   34DOPE  C216 4330   3.538   4.553  13.811  0.2557 -0.0420  0.2607
   34DOPE  H16R 4331   3.520   4.661  13.796  1.0522 -0.1823 -2.1976
   34DOPE  H16S 4332   3.581   4.534  13.710  0.7397 -0.1544  0.4812
   34DOPE  C217 4333   3.637   4.534  13.921 -0.2583  0.1063 -0.6130
   34DOPE  H17R 4334   3.584   4.581  14.007  0.9261 -1.9755  1.3423
   34DOPE  H17S 4335   3.726   4.600  13.914  0.2999 -0.0626  3.1544
   34DOPE  C218 4336   3.672   4.387  13.961  0.2926  0.7960 -0.0601
   34DOPE  H18R 4337   3.745   4.386  14.044 -1.6626 -0.5287  1.7384
   34DOPE  H18S 4338   3.721   4.348  13.869 -1.1451  0.3637 -0.6756
   34DOPE  H18T 4339   3.587   4.320  13.986  1.0637 -0.5968 -1.0348
   34DOPE   C33 4340   3.586   4.188  12.538 -0.1410  0.0148 -0.0931
   34DOPE   H3X 4341   3.589   4.299  12.536 -1.2230  0.0965 -3.6370
   34DOPE   H3Y 4342   3.683   4.156  12.495  0.1913 -0.7272  1.1646
   34DOPE   C34 4343   3.569   4.138  12.684 -0.3692 -0.8824 -0.0348
   34DOPE   H4X 4344   3.469   4.169  12.721 -0.2862 -0.4133 -0.1973
   34DOPE   H4Y 4345   3.577   4.027  12.688  0.8703 -0.8427 -0.7592
   34DOPE   C35 4346   3.677   4.199  12.781 -0.1046 -0.0102  0.2077
   34DOPE   H5X 4347   3.683   4.310  12.781 -1.1395  0.0598  1.1843
   34DOPE   H5Y 4348   3.771   4.157  12.739 -0.8964  1.0941 -2.9346
   34DOPE   C36 4349   3.649   4.157  12.934 -0.2167  0.0803  0.9236
   34DOPE   H6X 4350   3.617   4.050  12.941 -2.5182  0.5498 -1.0647
   34DOPE   H6Y 4351   3.576   4.232  12.969  1.7834  2.7430 -0.2491
   34DOPE   C37 4352   3.766   4.178  13.027  0.4098  0.3088 -0.1691
   34DOPE   H7X 4353   3.846   4.104  13.007  0.3182 -0.2269  1.2850
   34DOPE   H7Y 4354   3.805   4.281  13.013 -0.1407  0.7718  1.5020
   34DOPE   C38 4355   3.726   4.145  13.170 -0.2511  0.4604 -0.0723
   34DOPE   H8X 4356   3.814   4.153  13.238  0.1505 -0.6676 -0.4404
   34DOPE   H8Y 4357   3.685   4.042  13.169 -1.8613  1.0830 -0.9011
   34DOPE   C39 4358   3.624   4.238  13.226  0.1644 -0.4671  0.6658
   34DOPE   H9X 4359   3.621   4.331  13.168 -0.2240 -1.5533 -1.1410
   34DOPE  C310 4360   3.546   4.214  13.333 -0.1856  0.7638 -0.8714
   34DOPE  H10X 4361   3.482   4.286  13.386 -0.9786 -1.1280  0.8271
   34DOPE  C311 4362   3.544   4.082  13.409  0.0155  0.4193  0.2915
   34DOPE  H11X 4363   3.443   4.038  13.419  0.9184 -2.1451 -0.9308
   34DOPE  H11Y 4364   3.599   3.998  13.361  0.0202  0.1751  0.7170
   34DOPE  C312 4365   3.616   4.109  13.540  0.0229 -0.4986  0.5200
   34DOPE  H12X 4366   3.559   4.178  13.607  1.6541  2.0157 -0.5132
   34DOPE  H12Y 4367   3.719   4.146  13.520 -0.4173  0.8905  0.6768
   34DOPE  C313 4368   3.638   3.979  13.624 -0.1459  0.4222 -0.2353
   34DOPE  H13X 4369   3.540   3.930  13.642  0.4099 -0.9002 -0.7130
   34DOPE  H13Y 4370   3.698   3.910  13.562  2.4923  1.0405  1.4523
   34DOPE  C314 4371   3.705   4.006  13.761 -0.4280  1.6569  1.0859
   34DOPE  H14X 4372   3.643   4.087  13.805 -1.3606  1.3729  0.3245
   34DOPE  H14Y 4373   3.810   4.043  13.761 -0.4161  1.6235  1.0506
   34DOPE  C315 4374   3.682   3.886  13.857  0.8100  0.6818  0.4043
   34DOPE  H15X 4375   3.709   3.791  13.806 -2.8341 -1.1807  1.5688
   34DOPE  H15Y 4376   3.572   3.882  13.873  0.7805 -2.8781  0.2893
   34DOPE  C316 4377   3.765   3.889  13.985  0.0124  0.0511  0.5358
   34DOPE  H16X 4378   3.731   3.801  14.043 -1.6156 -0.9232 -1.7162
   34DOPE  H16Y 4379   3.748   3.979  14.047 -1.8994  1.3475 -1.7106
   34DOPE  C317 4380   3.916   3.887  13.965 -0.1565 -0.0318  0.3048
   34DOPE  H17X 4381   3.927   3.826  13.872 -0.7335  1.5223 -0.8185
   34DOPE  H17Y 4382   3.945   3.992  13.945  1.0849 -0.3368  0.4147
   34DOPE  C318 4383   3.994   3.823  14.083  0.5662 -0.1901  0.3048
   34DOPE  H18X 4384   3.937   3.746  14.138  0.1212  1.4050  2.1828
   34DOPE  H18Y 4385   4.094   3.788  14.049  0.7537  0.3019  0.3402
   34DOPE  H18Z 4386   4.020   3.898  14.160  0.0989 -0.6343  0.9043
   35DOPE     N 4387   5.195   4.082  11.200  0.0978  0.2500 -0.4670
   35DOPE   HN1 4388   5.281   4.135  11.226 -0.9719  0.8596  2.2875
   35DOPE   HN2 4389   5.217   3.984  11.173 -2.6210 -0.8563  0.9062
   35DOPE   HN3 4390   5.145   4.128  11.122  0.2743  1.1908 -0.0442
   35DOPE   C12 4391   5.100   4.066  11.318  0.3522 -0.1676  0.0787
   35DOPE  H12A 4392   5.031   3.981  11.301  0.5433 -0.3574  0.2470
   35DOPE  H12B 4393   5.047   4.163  11.329 -0.4485 -0.6204  0.2808
   35DOPE   C11 4394   5.192   4.024  11.432  0.2490  0.4071  0.2821
   35DOPE  H11A 4395   5.134   4.028  11.526 -1.6342  0.4758 -0.8236
   35DOPE  H11B 4396   5.283   4.085  11.449  1.0663 -1.0601  1.4075
   35DOPE     P 4397   5.338   3.796  11.471  0.2357  0.6411  0.7578
   35DOPE   O13 4398   5.449   3.776  11.377 -0.1207 -0.1936  0.0763
   35DOPE   O14 4399   5.269   3.671  11.536 -0.1717  0.0445  0.8410
   35DOPE   O11 4400   5.391   3.875  11.591 -0.3715  0.1502 -0.5843
   35DOPE   O12 4401   5.228   3.886  11.403  0.3956  0.2537  0.0795
   35DOPE    C1 4402   5.306   3.888  11.712 -0.2370 -0.0323  0.0151
   35DOPE    HA 4403   5.207   3.837  11.716 -0.0426 -0.4474 -0.3185
   35DOPE    HB 4404   5.276   3.994  11.720  0.5755  0.4406 -2.3997
   35DOPE    C2 4405   5.380   3.839  11.843 -0.0566 -0.2995 -0.4858
   35DOPE    HS 4406   5.328   3.895  11.923  0.4358 -0.1892 -0.2367
   35DOPE   O21 4407   5.518   3.855  11.849  0.0450 -0.2926  0.6089
   35DOPE   C21 4408   5.564   3.964  11.915 -0.3987 -0.2377  0.3153
   35DOPE   O22 4409   5.496   4.045  11.978  0.0505 -0.0055 -0.0510
   35DOPE   C22 4410   5.716   3.973  11.899  0.0914  0.0878 -0.0017
   35DOPE   H2R 4411   5.752   4.066  11.948  1.9849 -0.3717 -0.4453
   35DOPE   H2S 4412   5.749   3.962  11.793  0.1623 -1.3205  0.1377
   35DOPE    C3 4413   5.345   3.695  11.880  0.0073 -0.1871 -0.1638
   35DOPE    HX 4414   5.390   3.624  11.807  0.4477  1.2725 -1.3577
   35DOPE    HY 4415   5.237   3.681  11.859  0.6022 -2.3910 -2.1276
   35DOPE   O31 4416   5.382   3.660  12.019  0.1571 -0.7905  0.8414
   35DOPE   C31 4417   5.328   3.549  12.057  0.4236 -0.1160 -0.8678
   35DOPE   O32 4418   5.266   3.472  11.983  0.0235 -0.6452 -0.0636
   35DOPE   C32 4419   5.366   3.522  12.202 -0.0801 -0.4723  0.1585
   35DOPE   H2X 4420   5.477   3.528  12.213 -0.1364 -0.2257  0.6175
   35DOPE   H2Y 4421   5.319   3.600  12.265  3.3377  1.7905  0.1921
   35DOPE   C23 4422   5.781   3.856  11.979  0.1797  0.0300 -0.1636
   35DOPE   H3R 4423   5.891   3.873  11.981 -0.0856  2.1878 -0.6952
   35DOPE   H3S 4424   5.763   3.765  11.918 -0.5490 -0.2964  0.5212
   35DOPE   C24 4425   5.726   3.813  12.121 -0.0228 -0.5924 -0.2933
   35DOPE   H4R 4426   5.767   3.712  12.142  0.7038 -0.1937  0.2623
   35DOPE   H4S 4427   5.615   3.806  12.113 -0.1603  1.2169 -0.4556
   35DOPE   C25 4428   5.755   3.913  12.238  0.1045  0.5055  0.1858
   35DOPE   H5R 4429   5.692   4.005  12.240 -0.8895 -0.1613  1.1285
   35DOPE   H5S 4430   5.862   3.941  12.230  0.3108 -0.5466 -1.1414
   35DOPE   C26 4431   5.747   3.852  12.377 -0.0608  0.5227  0.3634
   35DOPE   H6R 4432   5.832   3.780  12.376  0.7140  1.3863  1.3242
   35DOPE   H6S 4433   5.653   3.793  12.375  0.6448 -0.6481  0.7321
   35DOPE   C27 4434   5.751   3.952  12.493  0.3992  0.7223 -0.1241
   35DOPE   H7R 4435   5.659   4.013  12.482  0.3484  0.7137  0.2418
   35DOPE   H7S 4436   5.832   4.027  12.481  1.4965 -0.4547 -0.3140
   35DOPE   C28 4437   5.766   3.895  12.635  0.0744 -0.6188  0.0890
   35DOPE   H8R 4438   5.787   3.987  12.694  1.0920 -0.2217 -0.8669
   35DOPE   H8S 4439   5.850   3.823  12.643  0.6059  0.0457  0.7002
   35DOPE   C29 4440   5.641   3.828  12.682  0.2889 -0.0424 -0.0087
   35DOPE   H9R 4441   5.568   3.808  12.602 -1.2028  1.6207  0.8813
   35DOPE  C210 4442   5.601   3.807  12.808  0.5941  0.1768 -0.2366
   35DOPE  H10R 4443   5.503   3.757  12.818  0.3732  0.4385 -1.0505
   35DOPE  C211 4444   5.670   3.848  12.933 -0.0354 -0.2037 -0.6498
   35DOPE  H11R 4445   5.606   3.928  12.977 -0.1833  0.7694 -2.5474
   35DOPE  H11S 4446   5.773   3.884  12.910  0.2962 -0.7750 -0.1133
   35DOPE  C212 4447   5.687   3.722  13.023 -0.1782 -0.3470  0.2292
   35DOPE  H12R 4448   5.760   3.660  12.966 -0.1420 -0.3457  0.2740
   35DOPE  H12S 4449   5.594   3.663  13.032  0.5805 -1.3896  1.7093
   35DOPE  C213 4450   5.743   3.751  13.161 -0.1321 -0.8969 -0.0972
   35DOPE  H13R 4451   5.816   3.834  13.162  0.6745 -1.5458  2.3605
   35DOPE  H13S 4452   5.783   3.660  13.210  2.0170  0.7709  1.4319
   35DOPE  C214 4453   5.633   3.813  13.252 -0.4004  0.1912  0.5822
   35DOPE  H14R 4454   5.562   3.732  13.282  0.4021 -0.3163  1.1334
   35DOPE  H14S 4455   5.577   3.889  13.193 -0.8064  0.0930  0.8346
   35DOPE  C215 4456   5.676   3.894  13.364  0.0090  0.2247 -0.2998
   35DOPE  H15R 4457   5.591   3.961  13.390 -0.0702  0.0592 -0.1338
   35DOPE  H15S 4458   5.761   3.963  13.345 -0.1601  0.1886 -1.2436
   35DOPE  C216 4459   5.718   3.812  13.490  0.3217  1.1118  0.1233
   35DOPE  H16R 4460   5.815   3.760  13.475 -0.1893  0.4782 -1.0359
   35DOPE  H16S 4461   5.647   3.729  13.507 -0.8408  2.1048  0.2561
   35DOPE  C217 4462   5.724   3.905  13.606 -0.4202 -0.0063  0.4244
   35DOPE  H17R 4463   5.620   3.937  13.631 -1.3419 -0.3566 -2.6054
   35DOPE  H17S 4464   5.777   3.994  13.565 -0.7360 -0.3199 -0.6843
   35DOPE  C218 4465   5.789   3.848  13.727 -0.4114 -0.1649  0.1365
   35DOPE  H18R 4466   5.781   3.916  13.815  3.0247  0.4571  0.1230
   35DOPE  H18S 4467   5.897   3.838  13.704 -0.1391  0.7779  0.9366
   35DOPE  H18T 4468   5.744   3.749  13.748 -0.5120 -0.0277  0.5955
   35DOPE   C33 4469   5.329   3.381  12.244 -0.1821 -0.0643 -0.1765
   35DOPE   H3X 4470   5.377   3.307  12.177  0.4972  0.4846 -0.3113
   35DOPE   H3Y 4471   5.221   3.360  12.229 -0.2131 -0.5330  0.6872
   35DOPE   C34 4472   5.361   3.350  12.390 -0.5463  0.2718  0.1608
   35DOPE   H4X 4473   5.342   3.243  12.411 -0.5008 -0.0951 -1.5466
   35DOPE   H4Y 4474   5.468   3.376  12.400  0.0828 -1.7181 -0.8680
   35DOPE   C35 4475   5.290   3.439  12.496 -0.0899 -0.2022  0.1597
   35DOPE   H5X 4476   5.183   3.419  12.472 -0.3348  0.8941  0.2965
   35DOPE   H5Y 4477   5.308   3.547  12.478  0.0706 -0.2664 -0.0661
   35DOPE   C36 4478   5.317   3.417  12.645 -0.1170 -0.0454  0.4060
   35DOPE   H6X 4479   5.316   3.308  12.668  3.0085  0.0997  1.6886
   35DOPE   H6Y 4480   5.249   3.471  12.715  0.7226  0.9340  0.4928
   35DOPE   C37 4481   5.454   3.457  12.677  0.1286 -0.4455  0.0997
   35DOPE   H7X 4482   5.527   3.390  12.628 -0.6014  0.6553 -2.6665
   35DOPE   H7Y 4483   5.463   3.563  12.645  3.2415 -0.0132  2.0270
   35DOPE   C38 4484   5.479   3.463  12.830  0.3196  0.3308  0.3771
   35DOPE   H8X 4485   5.432   3.559  12.859  2.4882  1.8607 -0.8930
   35DOPE   H8Y 4486   5.589   3.475  12.842  0.6381 -0.2987 -1.6309
   35DOPE   C39 4487   5.438   3.335  12.900 -0.4181  0.0920 -0.1319
   35DOPE   H9X 4488   5.441   3.243  12.840 -2.0879 -1.0794  1.4720
   35DOPE  C310 4489   5.381   3.322  13.024 -0.0247  0.3025  0.3451
   35DOPE  H10X 4490   5.362   3.222  13.067 -0.4720  1.4265  2.9454
   35DOPE  C311 4491   5.338   3.434  13.124 -0.0748 -0.2171 -0.5311
   35DOPE  H11X 4492   5.322   3.530  13.071  0.9632  0.9601  1.2043
   35DOPE  H11Y 4493   5.238   3.413  13.168 -0.4975  0.8767 -0.9491
   35DOPE  C312 4494   5.432   3.448  13.242  0.1351 -0.4762 -0.7503
   35DOPE  H12X 4495   5.410   3.543  13.296 -0.8455 -1.1603  0.0906
   35DOPE  H12Y 4496   5.537   3.468  13.212  0.1376 -0.6806 -0.8812
   35DOPE  C313 4497   5.424   3.348  13.358 -0.0911 -0.3867 -0.8618
   35DOPE  H13X 4498   5.318   3.351  13.391 -0.2922 -0.0555 -1.5465
   35DOPE  H13Y 4499   5.447   3.248  13.315  1.6178 -0.3091 -0.2178
   35DOPE  C314 4500   5.500   3.385  13.485  0.0064  0.1977 -0.0753
   35DOPE  H14X 4501   5.482   3.494  13.496 -1.0112 -0.0514  0.8446
   35DOPE  H14Y 4502   5.598   3.348  13.448 -0.6030 -0.8377 -0.7079
   35DOPE  C315 4503   5.469   3.293  13.600 -0.4947  0.4603  0.4936
   35DOPE  H15X 4504   5.475   3.182  13.590 -1.6107  0.3453  0.9821
   35DOPE  H15Y 4505   5.359   3.304  13.611 -1.0859 -1.7894 -1.9421
   35DOPE  C316 4506   5.553   3.334  13.722 -0.1725 -0.0465 -0.3687
   35DOPE  H16X 4507   5.546   3.444  13.736 -2.8819 -0.5130  3.5594
   35DOPE  H16Y 4508   5.661   3.309  13.707  0.0617 -2.1690  3.5183
   35DOPE  C317 4509   5.518   3.256  13.853 -0.6527 -0.1122 -0.7054
   35DOPE  H17X 4510   5.410   3.273  13.872 -0.4373  0.6713 -0.1741
   35DOPE  H17Y 4511   5.543   3.149  13.834 -1.6983 -0.0291 -2.8784
   35DOPE  C318 4512   5.586   3.311  13.978 -0.3651 -0.2674  0.1265
   35DOPE  H18X 4513   5.590   3.422  13.972  0.5235 -0.3421 -1.0534
   35DOPE  H18Y 4514   5.538   3.283  14.074  2.7177  0.0512  1.8876
   35DOPE  H18Z 4515   5.693   3.283  13.973  0.4799  2.5952  0.7205
   36DOPE     N 4516   5.309   5.146  11.503  0.3058 -0.2017  0.3684
   36DOPE   HN1 4517   5.218   5.154  11.553  1.0077 -2.0501  2.0967
   36DOPE   HN2 4518   5.367   5.230  11.523 -0.0669  0.1219  0.1073
   36DOPE   HN3 4519   5.288   5.157  11.402 -0.0876  0.8039  0.5464
   36DOPE   C12 4520   5.380   5.025  11.551 -0.5661  0.0630  0.2654
   36DOPE  H12A 4521   5.488   5.022  11.524 -1.2854 -2.7881 -3.2252
   36DOPE  H12B 4522   5.348   4.938  11.490  0.3306 -1.0282  1.3194
   36DOPE   C11 4523   5.339   4.992  11.686 -0.1499 -0.6504  0.2266
   36DOPE  H11A 4524   5.389   4.896  11.713  0.9188  0.2993  1.8392
   36DOPE  H11B 4525   5.229   4.989  11.704 -0.0451 -3.0196  0.7906
   36DOPE     P 4526   5.536   5.097  11.820 -0.0174 -0.1534  0.0917
   36DOPE   O13 4527   5.550   5.209  11.920 -0.1282  0.0374 -0.4425
   36DOPE   O14 4528   5.621   5.094  11.703 -0.3515 -0.4694 -0.0490
   36DOPE   O11 4529   5.552   4.965  11.907  0.1574  0.0917 -0.5322
   36DOPE   O12 4530   5.385   5.094  11.776  0.2348 -0.5340 -0.0204
   36DOPE    C1 4531   5.442   4.915  11.979  0.4860 -0.6986 -0.0758
   36DOPE    HA 4532   5.360   4.874  11.916  2.4809 -3.4770 -1.1046
   36DOPE    HB 4533   5.398   4.994  12.043  0.1699  0.7780 -2.0243
   36DOPE    C2 4534   5.477   4.792  12.071 -0.0311 -0.1406 -0.0680
   36DOPE    HS 4535   5.378   4.742  12.066 -0.1526  0.1473 -0.6736
   36DOPE   O21 4536   5.512   4.828  12.207 -0.0929  0.3597 -0.2294
   36DOPE   C21 4537   5.427   4.874  12.290  0.1938 -0.6457 -0.5648
   36DOPE   O22 4538   5.308   4.906  12.271 -0.0863  0.1069  0.5692
   36DOPE   C22 4539   5.494   4.877  12.420  0.1307 -0.3724 -0.2849
   36DOPE   H2R 4540   5.551   4.972  12.431  1.9802 -1.5959  1.6290
   36DOPE   H2S 4541   5.559   4.786  12.422 -0.6800 -0.9598  1.7656
   36DOPE    C3 4542   5.593   4.710  12.010  0.0945 -0.4245 -0.4079
   36DOPE    HX 4543   5.685   4.771  11.997 -0.3717  0.4036  0.1147
   36DOPE    HY 4544   5.565   4.686  11.905  0.9267 -2.4812 -0.1987
   36DOPE   O31 4545   5.622   4.593  12.087 -0.0681  0.2561 -0.0879
   36DOPE   C31 4546   5.537   4.492  12.066  0.5115  1.0767 -0.3126
   36DOPE   O32 4547   5.437   4.499  12.001 -0.2487 -0.0074  0.5193
   36DOPE   C32 4548   5.569   4.352  12.129 -0.6180  0.1028  0.0285
   36DOPE   H2X 4549   5.482   4.290  12.161 -0.5936 -0.0504 -0.1961
   36DOPE   H2Y 4550   5.603   4.291  12.042 -0.5756  0.6151 -0.3138
   36DOPE   C23 4551   5.404   4.868  12.547  0.5665 -0.5727  0.5024
   36DOPE   H3R 4552   5.343   4.775  12.550  0.3588 -0.4497  0.0758
   36DOPE   H3S 4553   5.341   4.959  12.540  1.4926 -0.0152 -0.8169
   36DOPE   C24 4554   5.487   4.866  12.674 -0.6348  0.2422  0.4026
   36DOPE   H4R 4555   5.547   4.957  12.696  0.6568 -0.0971 -1.4880
   36DOPE   H4S 4556   5.569   4.791  12.669  0.9606  1.8147  1.5845
   36DOPE   C25 4557   5.400   4.836  12.794 -0.0308 -0.1988  0.7159
   36DOPE   H5R 4558   5.343   4.741  12.786  1.5739 -1.1878  0.5394
   36DOPE   H5S 4559   5.327   4.918  12.784  0.3912  0.4975  2.8858
   36DOPE   C26 4560   5.464   4.851  12.926  0.2621  0.5078  0.0088
   36DOPE   H6R 4561   5.512   4.950  12.911  0.3284  0.4931  0.1246
   36DOPE   H6S 4562   5.549   4.779  12.934  1.0183  1.4456  0.6924
   36DOPE   C27 4563   5.362   4.851  13.037 -0.2870 -0.3238 -0.1578
   36DOPE   H7R 4564   5.288   4.768  13.044 -0.1696 -0.2825  2.7413
   36DOPE   H7S 4565   5.293   4.936  13.019 -0.3489 -0.7033 -1.8987
   36DOPE   C28 4566   5.427   4.849  13.180  0.2107 -0.3278 -0.1742
   36DOPE   H8R 4567   5.349   4.868  13.256 -0.8608 -0.3691 -1.2379
   36DOPE   H8S 4568   5.507   4.926  13.184  2.4014 -2.3476 -1.6572
   36DOPE   C29 4569   5.492   4.716  13.198  0.0098  0.2874  0.1633
   36DOPE   H9R 4570   5.576   4.690  13.132  0.2259 -0.1637  0.6141
   36DOPE  C210 4571   5.449   4.614  13.274  0.5365 -0.1738 -0.7946
   36DOPE  H10R 4572   5.507   4.520  13.262  0.0404 -0.4421 -1.1361
   36DOPE  C211 4573   5.330   4.615  13.371 -0.5422 -0.2315  0.3337
   36DOPE  H11R 4574   5.264   4.527  13.357 -0.6250  0.1164 -1.7817
   36DOPE  H11S 4575   5.271   4.709  13.367 -2.5376 -1.3201  2.2500
   36DOPE  C212 4576   5.367   4.603  13.523 -0.1420 -0.6323  0.8074
   36DOPE  H12R 4577   5.421   4.508  13.540 -0.2464 -0.7854  0.2949
   36DOPE  H12S 4578   5.271   4.603  13.578 -0.1496 -0.3552  0.7988
   36DOPE  C213 4579   5.451   4.723  13.571 -0.1904 -0.1005  0.2640
   36DOPE  H13R 4580   5.386   4.813  13.578 -0.0383 -0.0628  1.2612
   36DOPE  H13S 4581   5.532   4.741  13.497  0.3252 -2.4486  0.1793
   36DOPE  C214 4582   5.529   4.696  13.703 -0.0566 -0.2354 -0.0215
   36DOPE  H14R 4583   5.581   4.791  13.726  2.6191 -1.5248 -0.3262
   36DOPE  H14S 4584   5.601   4.613  13.688 -0.8139 -1.2335  1.5915
   36DOPE  C215 4585   5.444   4.659  13.821 -0.5996  0.1228 -0.2076
   36DOPE  H15R 4586   5.417   4.553  13.803  0.0084 -0.3886  1.6122
   36DOPE  H15S 4587   5.358   4.726  13.843  0.1217  0.3183  2.2838
   36DOPE  C216 4588   5.522   4.673  13.955 -0.3324 -0.1755  0.5132
   36DOPE  H16R 4589   5.553   4.778  13.973 -1.5745  0.2005  0.5083
   36DOPE  H16S 4590   5.614   4.611  13.961 -0.2161 -0.0595 -0.0549
   36DOPE  C217 4591   5.427   4.635  14.063 -0.4603 -0.1701  0.0858
   36DOPE  H17R 4592   5.362   4.551  14.030 -2.7004  1.5133 -0.0261
   36DOPE  H17S 4593   5.355   4.719  14.074 -0.5410 -0.2846  0.4450
   36DOPE  C218 4594   5.486   4.605  14.199  0.6588 -1.1290 -0.4879
   36DOPE  H18R 4595   5.411   4.597  14.281  0.3737 -1.6481 -0.7951
   36DOPE  H18S 4596   5.551   4.689  14.233  0.5489 -0.2620 -2.2577
   36DOPE  H18T 4597   5.551   4.516  14.202  2.7363  0.3294  2.0969
   36DOPE   C33 4598   5.678   4.362  12.242  1.1036 -0.3205 -0.6468
   36DOPE   H3X 4599   5.762   4.433  12.238  0.3002  1.0257  2.9965
   36DOPE   H3Y 4600   5.721   4.260  12.255  3.3123  0.4507 -1.5464
   36DOPE   C34 4601   5.595   4.391  12.367  0.4206 -0.4389 -0.2346
   36DOPE   H4X 4602   5.520   4.472  12.356  2.2832  1.4481  0.4366
   36DOPE   H4Y 4603   5.543   4.300  12.404  1.4887 -0.3547  1.5848
   36DOPE   C35 4604   5.677   4.432  12.491 -0.3044  0.2974 -0.5605
   36DOPE   H5X 4605   5.729   4.528  12.471  0.9380 -0.9036 -3.7003
   36DOPE   H5Y 4606   5.749   4.349  12.505 -0.3332  0.4400  0.5484
   36DOPE   C36 4607   5.590   4.446  12.614  0.1539  0.7720 -0.3306
   36DOPE   H6X 4608   5.507   4.373  12.621  1.1925 -0.8666 -3.3443
   36DOPE   H6Y 4609   5.544   4.547  12.613 -3.0137 -0.5463  0.1462
   36DOPE   C37 4610   5.668   4.450  12.746 -0.1911 -0.1022 -0.8910
   36DOPE   H7X 4611   5.732   4.360  12.758 -1.1370 -0.8015 -1.0617
   36DOPE   H7Y 4612   5.742   4.533  12.737 -0.0374 -0.2383 -0.8983
   36DOPE   C38 4613   5.581   4.480  12.872  0.2473 -0.2346  0.2351
   36DOPE   H8X 4614   5.508   4.560  12.847 -1.0682 -1.4200  0.2101
   36DOPE   H8Y 4615   5.648   4.527  12.947 -0.0291  3.4077 -1.5629
   36DOPE   C39 4616   5.501   4.362  12.923 -0.2701 -0.3541  0.3236
   36DOPE   H9X 4617   5.392   4.362  12.912 -0.3052 -1.1412  0.5863
   36DOPE  C310 4618   5.551   4.273  13.013  0.5429  0.1087  0.8456
   36DOPE  H10X 4619   5.485   4.193  13.049  3.0774 -1.1924  3.0529
   36DOPE  C311 4620   5.687   4.271  13.071 -0.3580 -0.7906 -0.0644
   36DOPE  H11X 4621   5.707   4.164  13.094  0.4063 -0.4936  0.7026
   36DOPE  H11Y 4622   5.766   4.308  13.002 -1.7288 -0.7276 -1.6536
   36DOPE  C312 4623   5.683   4.336  13.208  0.0233  0.6252  0.1277
   36DOPE  H12X 4624   5.679   4.446  13.194  2.0208  0.6813 -0.3568
   36DOPE  H12Y 4625   5.785   4.310  13.245 -0.4768 -0.7813  0.5766
   36DOPE  C313 4626   5.587   4.272  13.302 -0.2219 -0.4234 -0.3479
   36DOPE  H13X 4627   5.483   4.308  13.282 -0.1494 -0.8379 -1.5540
   36DOPE  H13Y 4628   5.589   4.162  13.289  2.7610 -0.1613 -3.8451
   36DOPE  C314 4629   5.632   4.309  13.447  0.6960  0.5043 -0.0887
   36DOPE  H14X 4630   5.654   4.415  13.472  1.4886 -0.0744  1.7965
   36DOPE  H14Y 4631   5.726   4.254  13.473 -0.1275 -1.0956 -0.3930
   36DOPE  C315 4632   5.541   4.245  13.558 -0.3711 -0.3016  0.6957
   36DOPE  H15X 4633   5.569   4.138  13.553  3.6972  0.6565 -1.6157
   36DOPE  H15Y 4634   5.433   4.257  13.536 -0.2439  0.7353  0.5793
   36DOPE  C316 4635   5.572   4.298  13.707 -0.7769  0.2758 -0.1939
   36DOPE  H16X 4636   5.510   4.390  13.715 -0.0455  1.0292 -2.5921
   36DOPE  H16Y 4637   5.677   4.332  13.711 -1.5858  2.8436  2.5128
   36DOPE  C317 4638   5.547   4.193  13.814  0.3765 -0.7084 -0.1570
   36DOPE  H17X 4639   5.444   4.152  13.800  0.1365 -0.5509  1.0707
   36DOPE  H17Y 4640   5.622   4.112  13.801 -0.5239 -1.4420 -0.9512
   36DOPE  C318 4641   5.561   4.241  13.957 -0.4828  0.0547 -0.1971
   36DOPE  H18X 4642   5.562   4.149  14.019 -0.1299 -0.8628 -1.5211
   36DOPE  H18Y 4643   5.656   4.295  13.974 -0.1541 -0.6901  0.3868
   36DOPE  H18Z 4644   5.488   4.319  13.988  2.0324  3.4669 -2.2060
   37DOPE     N 4645   4.014   4.141  11.634 -0.1526  0.1616 -0.0444
   37DOPE   HN1 4646   3.928   4.172  11.583  0.7664 -0.0044 -1.7754
   37DOPE   HN2 4647   4.040   4.219  11.698 -3.8477  0.4044  1.4180
   37DOPE   HN3 4648   4.081   4.118  11.558 -1.0044  1.2736 -1.1782
   37DOPE   C12 4649   3.972   4.014  11.702  0.2065 -0.5784  0.2122
   37DOPE  H12A 4650   4.060   3.963  11.746  1.3567  0.8537 -0.3176
   37DOPE  H12B 4651   3.918   3.949  11.630  0.4889 -1.0340  0.4092
   37DOPE   C11 4652   3.870   4.062  11.811  0.1881  0.7171  0.0426
   37DOPE  H11A 4653   3.925   4.130  11.880 -0.8868  1.7729 -0.1111
   37DOPE  H11B 4654   3.824   3.984  11.875 -0.8993  0.7370 -0.6941
   37DOPE     P 4655   3.627   4.075  11.719  0.2447  0.0279  0.0799
   37DOPE   O13 4656   3.644   3.975  11.611  0.7517  0.2115  0.3795
   37DOPE   O14 4657   3.524   4.179  11.697  0.2307 -0.2602 -0.3603
   37DOPE   O11 4658   3.594   3.977  11.838 -0.0269 -0.9269  0.4075
   37DOPE   O12 4659   3.764   4.145  11.754 -0.0385 -0.7229 -0.2356
   37DOPE    C1 4660   3.521   4.033  11.948 -0.0319  0.6978  0.0385
   37DOPE    HA 4661   3.420   4.051  11.905  0.6575  0.2153 -1.9184
   37DOPE    HB 4662   3.556   4.137  11.963  2.0654  0.0687 -0.1659
   37DOPE    C2 4663   3.528   3.939  12.068 -0.0670 -0.0708 -0.7087
   37DOPE    HS 4664   3.487   4.002  12.150 -0.1340  1.2058 -1.6804
   37DOPE   O21 4665   3.660   3.890  12.086  0.5852  0.8076  0.1160
   37DOPE   C21 4666   3.703   3.894  12.206 -0.2643  0.2807 -0.7540
   37DOPE   O22 4667   3.635   3.916  12.303 -0.3436  0.2809 -0.0710
   37DOPE   C22 4668   3.849   3.855  12.216 -0.7509  0.0596 -0.6786
   37DOPE   H2R 4669   3.900   3.869  12.118 -0.7379  2.2025 -0.4013
   37DOPE   H2S 4670   3.853   3.752  12.258  1.0497  0.4022  0.0787
   37DOPE    C3 4671   3.439   3.822  12.039 -0.3924  0.4521 -0.5516
   37DOPE    HX 4672   3.460   3.767  11.945 -0.9724 -0.3899 -0.2045
   37DOPE    HY 4673   3.335   3.853  12.013 -0.2511  0.9849 -0.4931
   37DOPE   O31 4674   3.436   3.720  12.147  0.2416  0.1961  0.0766
   37DOPE   C31 4675   3.359   3.750  12.251 -0.2178  0.7101  0.5822
   37DOPE   O32 4676   3.303   3.857  12.263 -0.5520 -0.4130 -0.1331
   37DOPE   C32 4677   3.373   3.640  12.354  0.7548  0.2821  0.1373
   37DOPE   H2X 4678   3.271   3.596  12.364  1.1123 -0.4829  0.4507
   37DOPE   H2Y 4679   3.433   3.555  12.316  0.1645 -0.0402 -0.0911
   37DOPE   C23 4680   3.940   3.941  12.312  0.5256 -0.7789 -0.1823
   37DOPE   H3R 4681   3.919   4.045  12.276 -1.0781 -0.8936  0.3550
   37DOPE   H3S 4682   4.046   3.910  12.306  0.8268  0.3096 -0.8202
   37DOPE   C24 4683   3.898   3.929  12.458 -0.1172  0.3934 -0.2543
   37DOPE   H4R 4684   3.798   3.973  12.475  0.0666  1.9425 -2.6295
   37DOPE   H4S 4685   3.976   3.985  12.515  1.1524 -1.1751 -0.3851
   37DOPE   C25 4686   3.895   3.781  12.513 -0.3218  0.2646  0.6199
   37DOPE   H5R 4687   3.974   3.734  12.450  0.0542 -0.1691  1.3978
   37DOPE   H5S 4688   3.796   3.734  12.498 -0.2630  0.7277 -1.5677
   37DOPE   C26 4689   3.938   3.770  12.655 -0.4089  0.0029 -0.1277
   37DOPE   H6R 4690   4.048   3.787  12.658 -0.5392  0.9490  2.6543
   37DOPE   H6S 4691   3.924   3.662  12.675 -0.7178  0.0047 -0.3242
   37DOPE   C27 4692   3.853   3.853  12.749 -0.3965  0.1394 -0.2999
   37DOPE   H7R 4693   3.743   3.848  12.733 -0.4911  1.3876 -0.1845
   37DOPE   H7S 4694   3.872   3.961  12.729 -1.9769  0.5472  0.2478
   37DOPE   C28 4695   3.893   3.833  12.898  0.0122  0.2475 -0.2786
   37DOPE   H8R 4696   3.820   3.899  12.949  1.1760  0.2900  1.4200
   37DOPE   H8S 4697   3.991   3.880  12.920  0.3801 -1.9690  3.6511
   37DOPE   C29 4698   3.884   3.698  12.963  0.1095  0.1399 -0.0628
   37DOPE   H9R 4699   3.857   3.613  12.898  0.4935  0.1583 -0.2519
   37DOPE  C210 4700   3.894   3.677  13.092  0.1180 -0.0619  0.0116
   37DOPE  H10R 4701   3.880   3.575  13.130  0.9997 -0.0148  0.4927
   37DOPE  C211 4702   3.919   3.785  13.201 -0.2683 -0.1563  0.5833
   37DOPE  H11R 4703   3.893   3.884  13.159 -2.4864 -0.1284  1.8917
   37DOPE  H11S 4704   4.026   3.791  13.231 -0.7931 -0.6744  2.7097
   37DOPE  C212 4705   3.853   3.764  13.339  0.1088 -0.4831  0.7080
   37DOPE  H12R 4706   3.743   3.768  13.322  0.0542 -1.3501  0.8012
   37DOPE  H12S 4707   3.877   3.852  13.402 -1.5834  2.7138 -2.7261
   37DOPE  C213 4708   3.896   3.634  13.404 -0.6205  0.4426 -0.7859
   37DOPE  H13R 4709   4.006   3.625  13.405 -0.5659  1.0813 -0.7530
   37DOPE  H13S 4710   3.867   3.551  13.336  4.1725  0.3661 -3.1662
   37DOPE  C214 4711   3.850   3.613  13.546 -0.2208 -1.1933  0.3818
   37DOPE  H14R 4712   3.743   3.644  13.551 -0.1042 -0.3056 -1.7012
   37DOPE  H14S 4713   3.904   3.683  13.614 -0.2303  0.9125 -1.6488
   37DOPE  C215 4714   3.882   3.466  13.591 -0.2549 -0.6144  0.3750
   37DOPE  H15R 4715   3.989   3.441  13.577 -0.4105 -1.0255 -0.1076
   37DOPE  H15S 4716   3.825   3.391  13.532 -1.4757  1.0928 -0.7155
   37DOPE  C216 4717   3.825   3.440  13.734 -0.1716 -0.1511  0.5210
   37DOPE  H16R 4718   3.811   3.329  13.739  1.6993 -0.3602  3.3493
   37DOPE  H16S 4719   3.725   3.487  13.729 -0.5498 -0.7912  1.6437
   37DOPE  C217 4720   3.905   3.497  13.854 -0.7002 -0.0522  0.8287
   37DOPE  H17R 4721   3.941   3.601  13.845 -2.0843  0.3952  0.2781
   37DOPE  H17S 4722   3.992   3.429  13.867 -0.3435  0.4700  1.1835
   37DOPE  C218 4723   3.823   3.493  13.977 -0.0856  0.2808 -0.0837
   37DOPE  H18R 4724   3.769   3.399  14.004 -0.5757  0.5924  0.0284
   37DOPE  H18S 4725   3.746   3.573  13.973 -1.1993 -0.7897 -2.3561
   37DOPE  H18T 4726   3.882   3.507  14.070 -0.8466 -0.8502  0.6037
   37DOPE   C33 4727   3.426   3.709  12.482 -0.1798  0.2212  0.5866
   37DOPE   H3X 4728   3.371   3.803  12.504  0.4046  0.4264  1.1980
   37DOPE   H3Y 4729   3.533   3.731  12.458 -0.7856 -0.0826 -2.9483
   37DOPE   C34 4730   3.423   3.624  12.608  0.1073  0.0407 -0.3571
   37DOPE   H4X 4731   3.318   3.592  12.622 -0.1860 -0.0997 -2.5116
   37DOPE   H4Y 4732   3.477   3.528  12.588 -0.6766 -0.5567  0.3180
   37DOPE   C35 4733   3.468   3.706  12.730 -0.4757 -0.3526  0.7763
   37DOPE   H5X 4734   3.409   3.799  12.750 -0.4251  0.1283 -1.1015
   37DOPE   H5Y 4735   3.572   3.734  12.705 -1.6957  0.9501 -4.0056
   37DOPE   C36 4736   3.465   3.636  12.868  0.2347 -0.3777 -0.2680
   37DOPE   H6X 4737   3.538   3.552  12.869  2.4934  1.4700 -0.6818
   37DOPE   H6Y 4738   3.364   3.593  12.882  0.3561 -0.5868 -0.0133
   37DOPE   C37 4739   3.496   3.734  12.980  0.1894 -0.4939 -0.3101
   37DOPE   H7X 4740   3.579   3.806  12.965  0.5843 -0.2458  2.4403
   37DOPE   H7Y 4741   3.409   3.797  13.010 -0.1464 -1.7876  1.6508
   37DOPE   C38 4742   3.525   3.664  13.116  0.5628  0.9658 -0.2854
   37DOPE   H8X 4743   3.551   3.742  13.191 -0.5524  1.0094  0.0687
   37DOPE   H8Y 4744   3.614   3.598  13.103  0.0893  0.2508  0.0863
   37DOPE   C39 4745   3.408   3.579  13.160 -0.1051  0.2841 -0.3444
   37DOPE   H9X 4746   3.354   3.528  13.079 -0.8351 -2.1586  1.5662
   37DOPE  C310 4747   3.377   3.542  13.285  0.2566  0.3579 -0.5200
   37DOPE  H10X 4748   3.295   3.470  13.302  0.4136  0.1509 -0.6337
   37DOPE  C311 4749   3.441   3.609  13.403 -0.0082  0.0030 -0.4795
   37DOPE  H11X 4750   3.515   3.538  13.446 -0.5232  0.3146  0.9808
   37DOPE  H11Y 4751   3.509   3.697  13.395 -1.3175  1.1003  0.0372
   37DOPE  C312 4752   3.334   3.645  13.508 -0.3349  0.6709 -0.1961
   37DOPE  H12X 4753   3.242   3.584  13.495  0.7248 -0.9751 -0.2985
   37DOPE  H12Y 4754   3.312   3.753  13.501 -0.7610  0.7437  1.7929
   37DOPE  C313 4755   3.397   3.616  13.649  0.4619  0.3499 -0.0795
   37DOPE  H13X 4756   3.414   3.507  13.662 -2.6402 -0.0353  1.6605
   37DOPE  H13Y 4757   3.492   3.670  13.673  0.0523  1.9342 -1.8629
   37DOPE  C314 4758   3.293   3.638  13.761 -0.3105 -0.8521  0.6566
   37DOPE  H14X 4759   3.214   3.562  13.741  0.7837 -2.1747  1.2390
   37DOPE  H14Y 4760   3.248   3.739  13.748 -0.9615 -0.9554  1.9824
   37DOPE  C315 4761   3.345   3.636  13.904 -0.2456 -0.3809 -0.8767
   37DOPE  H15X 4762   3.256   3.662  13.966  0.9921  0.7741  0.5226
   37DOPE  H15Y 4763   3.416   3.712  13.944  0.4126  0.6326 -3.7302
   37DOPE  C316 4764   3.400   3.500  13.949 -0.0621 -0.5448 -0.1411
   37DOPE  H16X 4765   3.487   3.484  13.881 -0.2599 -1.2595 -0.2321
   37DOPE  H16Y 4766   3.332   3.414  13.930  0.8490 -1.4661  0.5899
   37DOPE  C317 4767   3.443   3.493  14.097 -0.1623 -0.1393 -0.2655
   37DOPE  H17X 4768   3.486   3.392  14.111  1.9788  1.0751  3.2137
   37DOPE  H17Y 4769   3.523   3.563  14.126  0.5408 -1.5013  1.2147
   37DOPE  C318 4770   3.334   3.500  14.201 -0.8150  0.0814  0.7546
   37DOPE  H18X 4771   3.364   3.478  14.306  0.6808 -0.1062  0.3198
   37DOPE  H18Y 4772   3.291   3.602  14.206 -2.7947 -0.6033 -0.7975
   37DOPE  H18Z 4773   3.250   3.430  14.178 -1.0810  0.3999  0.7591
   38DOPE     N 4774   4.921   5.939  11.843  0.2133 -0.3315  0.1583
   38DOPE   HN1 4775   4.925   6.026  11.899  0.4814  1.4897 -2.5152
   38DOPE   HN2 4776   4.983   5.944  11.760 -0.7566  0.7959 -0.5254
   38DOPE   HN3 4777   4.825   5.915  11.813  1.2618 -3.2981 -1.2171
   38DOPE   C12 4778   4.955   5.823  11.930 -0.0768  0.3755 -0.1354
   38DOPE  H12A 4779   4.902   5.819  12.027  0.1803 -2.0501 -0.0444
   38DOPE  H12B 4780   5.062   5.834  11.958 -0.5433 -1.5463  2.7196
   38DOPE   C11 4781   4.939   5.687  11.850  0.3054  0.2505 -0.0290
   38DOPE  H11A 4782   4.844   5.675  11.794  0.2422  0.1412  0.1000
   38DOPE  H11B 4783   4.936   5.617  11.936 -0.8343 -0.7825 -0.8810
   38DOPE     P 4784   5.070   5.513  11.715 -0.3399 -0.0173  0.1562
   38DOPE   O13 4785   5.162   5.503  11.600 -0.0872 -0.7927  0.2153
   38DOPE   O14 4786   4.939   5.444  11.688 -0.8956  0.1785  0.1090
   38DOPE   O11 4787   5.148   5.444  11.832 -0.2196  0.3160 -0.1732
   38DOPE   O12 4788   5.044   5.659  11.765 -0.0836  0.6069 -0.2821
   38DOPE    C1 4789   5.270   5.495  11.887  0.2023 -0.3164  0.4044
   38DOPE    HA 4790   5.268   5.604  11.863 -0.5897 -0.9778 -2.9816
   38DOPE    HB 4791   5.360   5.447  11.843  1.0704  0.7092  1.0024
   38DOPE    C2 4792   5.273   5.483  12.046 -0.1929 -0.5147  0.3294
   38DOPE    HS 4793   5.310   5.378  12.055  0.1949 -0.3832  0.2605
   38DOPE   O21 4794   5.148   5.511  12.113 -0.8312 -0.0594  0.1578
   38DOPE   C21 4795   5.058   5.416  12.133  0.4404  0.2300  0.3826
   38DOPE   O22 4796   5.065   5.295  12.117  0.3240 -0.0385 -0.0359
   38DOPE   C22 4797   4.933   5.476  12.196  0.7931 -0.7254 -0.3902
   38DOPE   H2R 4798   4.840   5.448  12.141  0.1774 -1.0766  0.7935
   38DOPE   H2S 4799   4.937   5.587  12.191 -0.9688 -0.5516  0.9707
   38DOPE    C3 4800   5.394   5.566  12.109 -0.0208  0.0683 -0.4674
   38DOPE    HX 4801   5.387   5.670  12.070 -3.1023  0.9017  1.8456
   38DOPE    HY 4802   5.480   5.507  12.071  0.0118  1.3305 -2.4774
   38DOPE   O31 4803   5.383   5.564  12.256 -0.3863  0.6299  0.0355
   38DOPE   C31 4804   5.333   5.675  12.312 -0.1161  0.3487 -0.2466
   38DOPE   O32 4805   5.298   5.775  12.250  0.2970  0.0975 -0.1528
   38DOPE   C32 4806   5.341   5.655  12.463 -0.8779  0.2790 -0.3429
   38DOPE   H2X 4807   5.298   5.557  12.493  0.8517 -0.2394  0.6046
   38DOPE   H2Y 4808   5.451   5.650  12.483 -0.5435 -2.2830 -2.3645
   38DOPE   C23 4809   4.910   5.431  12.345  0.8107  0.3984 -0.1322
   38DOPE   H3R 4810   4.996   5.376  12.389 -0.0172 -0.6245  0.2496
   38DOPE   H3S 4811   4.821   5.366  12.358 -0.9374  2.6763 -0.0291
   38DOPE   C24 4812   4.873   5.552  12.429 -0.2224 -0.1452 -0.0701
   38DOPE   H4R 4813   4.785   5.603  12.383 -0.3954 -0.5828 -0.2277
   38DOPE   H4S 4814   4.959   5.621  12.435  1.4342 -1.8936 -2.0899
   38DOPE   C25 4815   4.847   5.522  12.576 -0.9859 -0.0436 -0.2057
   38DOPE   H5R 4816   4.760   5.453  12.577 -0.4826 -0.7057 -1.1439
   38DOPE   H5S 4817   4.811   5.614  12.627 -0.7484 -0.5420  0.8988
   38DOPE   C26 4818   4.974   5.467  12.644  0.5133 -0.1355 -0.4057
   38DOPE   H6R 4819   5.062   5.509  12.590  1.3397  0.3892  1.2772
   38DOPE   H6S 4820   4.988   5.358  12.628  1.9298  0.3293 -2.9170
   38DOPE   C27 4821   4.987   5.514  12.792 -0.4145 -0.0434 -0.0426
   38DOPE   H7R 4822   5.005   5.622  12.771  0.7867  0.0357  1.2419
   38DOPE   H7S 4823   5.085   5.477  12.829 -1.5085 -0.7951  2.3615
   38DOPE   C28 4824   4.871   5.482  12.884  0.5880 -0.1822 -0.5294
   38DOPE   H8R 4825   4.867   5.373  12.905  1.5680 -0.4102 -1.4296
   38DOPE   H8S 4826   4.779   5.502  12.825 -0.0702  0.8980  0.7913
   38DOPE   C29 4827   4.885   5.572  13.008  1.0573  0.2761 -0.2594
   38DOPE   H9R 4828   4.852   5.676  12.993  1.0122  0.0044 -2.3563
   38DOPE  C210 4829   4.897   5.528  13.136  0.1929  0.0381 -0.1020
   38DOPE  H10R 4830   4.905   5.602  13.217  0.2685  1.0723 -1.0308
   38DOPE  C211 4831   4.924   5.383  13.177 -0.0686 -0.0256 -0.6156
   38DOPE  H11R 4832   4.974   5.330  13.093 -0.2222 -2.0643  0.5081
   38DOPE  H11S 4833   4.836   5.326  13.213  0.8708 -1.1613 -0.0431
   38DOPE  C212 4834   5.020   5.374  13.299 -0.0940 -0.2213  0.3712
   38DOPE  H12R 4835   5.120   5.414  13.273  0.1842 -0.6733  0.7242
   38DOPE  H12S 4836   5.013   5.264  13.317 -2.8705 -0.2506 -0.3592
   38DOPE  C213 4837   4.967   5.436  13.433 -0.5734  0.4128  0.2207
   38DOPE  H13R 4838   4.857   5.416  13.434 -0.4174 -1.0797  3.6220
   38DOPE  H13S 4839   4.990   5.545  13.436  3.1287 -0.2491  1.1907
   38DOPE  C214 4840   5.028   5.371  13.558 -0.1530 -0.6402 -0.8660
   38DOPE  H14R 4841   5.138   5.364  13.540  0.0253 -0.2571  0.0082
   38DOPE  H14S 4842   5.004   5.267  13.588  2.6169 -0.2006  3.9001
   38DOPE  C215 4843   4.999   5.456  13.680  0.2267 -0.1506 -0.7758
   38DOPE  H15R 4844   4.888   5.457  13.694  0.2418 -1.7851 -0.3031
   38DOPE  H15S 4845   5.053   5.552  13.665  0.0047  0.1474  0.2408
   38DOPE  C216 4846   5.052   5.394  13.815  0.2457 -0.0295 -0.0257
   38DOPE  H16R 4847   5.163   5.389  13.808  0.4543 -1.0340  2.6298
   38DOPE  H16S 4848   5.008   5.292  13.822 -2.2600  1.0639  1.7803
   38DOPE  C217 4849   5.008   5.460  13.946  1.0111 -0.0797  0.5107
   38DOPE  H17R 4850   4.899   5.446  13.959  0.6052  1.5655 -0.8572
   38DOPE  H17S 4851   5.022   5.569  13.930 -1.0458 -0.0598 -1.8323
   38DOPE  C218 4852   5.073   5.413  14.075 -0.3492  0.5341 -1.0750
   38DOPE  H18R 4853   5.070   5.302  14.086 -2.2351  0.7771  2.6118
   38DOPE  H18S 4854   5.012   5.447  14.161 -0.1342 -1.0106 -0.2757
   38DOPE  H18T 4855   5.175   5.455  14.089 -0.2363 -0.3776  1.4699
   38DOPE   C33 4856   5.274   5.772  12.540  0.1293 -0.2218 -0.1284
   38DOPE   H3X 4857   5.164   5.782  12.524 -0.5941 -2.7910  2.2865
   38DOPE   H3Y 4858   5.314   5.862  12.489 -2.1873  0.7201 -0.4328
   38DOPE   C34 4859   5.301   5.754  12.687  0.1073  0.1491 -0.1101
   38DOPE   H4X 4860   5.266   5.651  12.709  0.3146  0.4139  1.6662
   38DOPE   H4Y 4861   5.409   5.760  12.711  0.4890 -0.0569 -1.6907
   38DOPE   C35 4862   5.224   5.837  12.782 -0.3095 -0.2511 -0.2979
   38DOPE   H5X 4863   5.118   5.817  12.755 -0.8262  0.0611  1.3966
   38DOPE   H5Y 4864   5.248   5.944  12.763 -0.4590 -0.5240 -2.1801
   38DOPE   C36 4865   5.231   5.783  12.927 -0.7429 -0.3745 -0.2767
   38DOPE   H6X 4866   5.332   5.793  12.971 -0.6737 -1.1596 -0.2450
   38DOPE   H6Y 4867   5.218   5.673  12.942 -1.7772 -0.0576  1.5741
   38DOPE   C37 4868   5.133   5.849  13.017  0.5408 -0.6093 -0.1090
   38DOPE   H7X 4869   5.121   5.954  12.980 -1.0733 -0.6893  0.1181
   38DOPE   H7Y 4870   5.028   5.817  13.000 -0.0112  0.7668  0.5724
   38DOPE   C38 4871   5.175   5.855  13.165 -0.4792  0.5538  0.1468
   38DOPE   H8X 4872   5.196   5.750  13.193 -0.7280  0.6916  0.8652
   38DOPE   H8Y 4873   5.090   5.895  13.223 -1.9888 -0.2855 -1.3947
   38DOPE   C39 4874   5.296   5.940  13.194 -0.0279 -0.0257 -0.3579
   38DOPE   H9X 4875   5.283   6.049  13.202  0.9262  0.2326 -1.8602
   38DOPE  C310 4876   5.417   5.889  13.226 -0.4140 -0.3797  0.4299
   38DOPE  H10X 4877   5.496   5.946  13.278 -0.1817 -1.4631  1.3009
   38DOPE  C311 4878   5.460   5.744  13.240 -0.0480 -0.1472 -0.2562
   38DOPE  H11X 4879   5.431   5.690  13.148  2.5361  1.5415 -2.2342
   38DOPE  H11Y 4880   5.571   5.743  13.247 -0.1339  0.4822  2.6223
   38DOPE  C312 4881   5.416   5.660  13.360  0.1385 -0.0620 -0.0395
   38DOPE  H12X 4882   5.438   5.552  13.346 -1.1570 -0.4382  0.6855
   38DOPE  H12Y 4883   5.306   5.661  13.377  0.2046 -0.5559  0.4551
   38DOPE  C313 4884   5.483   5.700  13.485  0.0680 -0.4442  0.0134
   38DOPE  H13X 4885   5.583   5.651  13.487  1.7079  2.4981 -1.5059
   38DOPE  H13Y 4886   5.496   5.810  13.500  1.2362 -0.7740  1.7512
   38DOPE  C314 4887   5.408   5.657  13.611 -0.2369  0.2862 -0.1149
   38DOPE  H14X 4888   5.389   5.548  13.603  1.7257 -0.0393 -1.1344
   38DOPE  H14Y 4889   5.308   5.705  13.608 -0.8657 -0.9673 -3.4225
   38DOPE  C315 4890   5.482   5.697  13.734  0.4751  0.9074 -0.2110
   38DOPE  H15X 4891   5.473   5.807  13.724  0.7129  0.8127 -1.6146
   38DOPE  H15Y 4892   5.590   5.676  13.724  0.8228  1.8395  1.3274
   38DOPE  C316 4893   5.437   5.643  13.868  0.2056 -0.1399 -0.7783
   38DOPE  H16X 4894   5.481   5.542  13.877  1.6728  0.5833  0.7444
   38DOPE  H16Y 4895   5.327   5.628  13.866  0.3624 -1.2527 -1.4739
   38DOPE  C317 4896   5.477   5.715  14.000  0.2987  0.1978 -0.4599
   38DOPE  H17X 4897   5.433   5.817  13.992 -2.2335 -0.8744 -1.1206
   38DOPE  H17Y 4898   5.437   5.672  14.094 -0.0242  1.0584 -0.1949
   38DOPE  C318 4899   5.627   5.713  14.020 -0.3747  0.2252 -0.0087
   38DOPE  H18X 4900   5.664   5.760  14.113 -0.5600 -0.4528  0.4184
   38DOPE  H18Y 4901   5.651   5.605  14.008 -1.3866  0.0841 -0.9493
   38DOPE  H18Z 4902   5.681   5.767  13.938  1.0684 -0.8858  0.1625
   39DOPE     N 4903   1.562   5.248  11.856  0.0440  0.3908 -0.1016
   39DOPE   HN1 4904   1.488   5.195  11.804  0.6466 -0.4367 -0.1409
   39DOPE   HN2 4905   1.557   5.347  11.824 -4.0203  0.0886 -0.9662
   39DOPE   HN3 4906   1.652   5.203  11.829  0.5441  2.4562 -2.2062
   39DOPE   C12 4907   1.524   5.244  11.996 -0.5591  0.0276 -0.8888
   39DOPE  H12A 4908   1.468   5.149  12.006  0.5455 -0.5952 -0.4732
   39DOPE  H12B 4909   1.459   5.330  12.025  0.9948  0.6137  1.1139
   39DOPE   C11 4910   1.650   5.247  12.092 -0.7104 -0.1414  0.5244
   39DOPE  H11A 4911   1.614   5.254  12.197 -2.2757  1.4740 -0.0694
   39DOPE  H11B 4912   1.721   5.331  12.069 -0.2484 -1.0232 -1.4951
   39DOPE     P 4913   1.855   5.106  12.006 -0.0843 -0.1097  0.3576
   39DOPE   O13 4914   1.826   5.163  11.867 -0.0208  0.2918 -0.8559
   39DOPE   O14 4915   1.904   4.964  12.009  0.1060 -0.1845  0.1163
   39DOPE   O11 4916   1.953   5.200  12.081 -0.3051 -0.6574  0.7747
   39DOPE   O12 4917   1.721   5.122  12.081  0.2600 -0.5100 -0.2555
   39DOPE    C1 4918   2.036   5.156  12.184  0.0243  0.0408 -0.1855
   39DOPE    HA 4919   2.128   5.219  12.191  1.0111 -1.4094  0.5363
   39DOPE    HB 4920   2.077   5.053  12.174 -0.2388  0.0851 -2.0692
   39DOPE    C2 4921   1.972   5.155  12.328  0.0844  0.0543 -0.4979
   39DOPE    HS 4922   1.878   5.097  12.315  1.2556 -1.7238 -1.4174
   39DOPE   O21 4923   1.960   5.291  12.376 -0.2628 -0.2328  0.3337
   39DOPE   C21 4924   1.875   5.305  12.479 -0.1160 -0.3164 -0.0842
   39DOPE   O22 4925   1.811   5.220  12.532  0.5966 -0.5142 -0.3705
   39DOPE   C22 4926   1.866   5.456  12.516  0.2926 -0.7825  0.0028
   39DOPE   H2R 4927   1.810   5.502  12.431 -0.5363 -1.8155 -0.0353
   39DOPE   H2S 4928   1.967   5.500  12.526 -0.4641  1.6627 -2.0102
   39DOPE    C3 4929   2.069   5.073  12.417 -0.2815  0.2536  0.1141
   39DOPE    HX 4930   2.046   4.966  12.398  0.4122 -0.4315  2.6850
   39DOPE    HY 4931   2.042   5.086  12.525  1.4154  2.3765  0.3248
   39DOPE   O31 4932   2.213   5.112  12.391  0.6476  0.3728 -0.0964
   39DOPE   C31 4933   2.291   5.126  12.493 -0.0645  0.0050  0.4231
   39DOPE   O32 4934   2.252   5.123  12.608 -0.1769  0.0877  0.4985
   39DOPE   C32 4935   2.436   5.149  12.456 -0.2531  0.1974  0.6093
   39DOPE   H2X 4936   2.453   5.073  12.377 -2.4462  0.5564 -0.2941
   39DOPE   H2Y 4937   2.449   5.245  12.401 -0.9324  0.5026  0.9681
   39DOPE   C23 4938   1.799   5.496  12.647 -0.4768 -0.1023 -0.0634
   39DOPE   H3R 4939   1.862   5.448  12.725 -2.8631 -0.2775  1.9056
   39DOPE   H3S 4940   1.696   5.453  12.651 -1.6061  2.1174 -2.5503
   39DOPE   C24 4941   1.803   5.653  12.676 -0.5715  0.2631 -0.3916
   39DOPE   H4R 4942   1.789   5.700  12.577 -1.0245 -0.4604 -0.6822
   39DOPE   H4S 4943   1.909   5.683  12.693 -0.4870  0.7424 -1.6804
   39DOPE   C25 4944   1.703   5.695  12.777 -0.2303 -0.6358 -0.2000
   39DOPE   H5R 4945   1.615   5.630  12.794 -0.8451  0.5646  1.4394
   39DOPE   H5S 4946   1.671   5.794  12.736 -0.3310 -0.4379  0.3481
   39DOPE   C26 4947   1.755   5.736  12.921 -0.0508 -0.5008  0.8619
   39DOPE   H6R 4948   1.677   5.795  12.972  0.7544 -0.0330  1.5815
   39DOPE   H6S 4949   1.837   5.809  12.904 -1.1378  0.9455  1.6540
   39DOPE   C27 4950   1.832   5.630  12.997 -0.2918  0.0467 -0.0097
   39DOPE   H7R 4951   1.905   5.592  12.922 -1.4200  0.3753 -1.3102
   39DOPE   H7S 4952   1.777   5.535  13.015 -0.0247 -0.1026  0.0348
   39DOPE   C28 4953   1.905   5.678  13.118  0.4157  0.3994 -0.1304
   39DOPE   H8R 4954   1.967   5.766  13.089  1.4821  0.0695  1.0365
   39DOPE   H8S 4955   1.977   5.600  13.150  0.7917  0.9080  0.2850
   39DOPE   C29 4956   1.816   5.713  13.232 -0.1222  0.1215 -0.9954
   39DOPE   H9R 4957   1.766   5.811  13.228 -1.6907 -0.5951 -0.0803
   39DOPE  C210 4958   1.786   5.647  13.345 -0.2132  0.4703 -0.0777
   39DOPE  H10R 4959   1.725   5.692  13.424 -0.4414 -1.4289  0.9012
   39DOPE  C211 4960   1.845   5.508  13.376 -0.6545 -0.6220  0.7710
   39DOPE  H11R 4961   1.956   5.508  13.368 -0.7633  0.8380 -2.1433
   39DOPE  H11S 4962   1.825   5.432  13.299  1.0676 -0.6012  0.2565
   39DOPE  C212 4963   1.804   5.453  13.515  0.8084  0.3178 -0.5494
   39DOPE  H12R 4964   1.848   5.351  13.509  2.3405  0.8736  0.6810
   39DOPE  H12S 4965   1.693   5.446  13.526  0.5815  2.2803 -1.2797
   39DOPE  C213 4966   1.861   5.535  13.638  0.4255  0.0280  0.2042
   39DOPE  H13R 4967   1.821   5.637  13.621 -2.5471 -1.3463 -1.8829
   39DOPE  H13S 4968   1.971   5.546  13.627  0.3789 -1.0846 -1.8934
   39DOPE  C214 4969   1.837   5.467  13.775  0.2107  0.3859  0.3131
   39DOPE  H14R 4970   1.919   5.393  13.784 -0.5411 -0.2612  2.5278
   39DOPE  H14S 4971   1.735   5.423  13.765 -0.7059  2.5613 -0.8904
   39DOPE  C215 4972   1.837   5.568  13.893  0.4232 -0.1882 -0.1700
   39DOPE  H15R 4973   1.761   5.647  13.876 -0.1478 -0.4962  0.8391
   39DOPE  H15S 4974   1.942   5.603  13.885  0.5285 -0.7968 -2.2644
   39DOPE  C216 4975   1.809   5.484  14.018 -0.7553 -0.0116 -0.1598
   39DOPE  H16R 4976   1.879   5.398  14.017 -2.0724 -1.1270 -1.9001
   39DOPE  H16S 4977   1.702   5.453  14.023 -0.1960 -1.9875  0.6607
   39DOPE  C217 4978   1.835   5.548  14.157  0.5409 -0.3586  0.1883
   39DOPE  H17R 4979   1.767   5.636  14.157  0.2605 -0.5211 -1.8453
   39DOPE  H17S 4980   1.942   5.577  14.170  0.1670  1.9668 -1.2093
   39DOPE  C218 4981   1.786   5.456  14.268 -0.0950 -0.1079  0.1617
   39DOPE  H18R 4982   1.809   5.512  14.361  0.5674  1.0330 -0.6580
   39DOPE  H18S 4983   1.848   5.364  14.267 -1.1674 -0.8608 -1.7232
   39DOPE  H18T 4984   1.679   5.426  14.255  0.2759 -1.7847  0.7543
   39DOPE   C33 4985   2.541   5.145  12.570  0.1994 -0.2005 -0.7060
   39DOPE   H3X 4986   2.514   5.213  12.654  0.4242 -0.8128 -0.1332
   39DOPE   H3Y 4987   2.638   5.179  12.527  0.5662 -4.5247 -3.9336
   39DOPE   C34 4988   2.562   5.004  12.621 -0.4405 -0.0409 -0.4062
   39DOPE   H4X 4989   2.474   4.952  12.664  0.6831  0.1476  2.3822
   39DOPE   H4Y 4990   2.599   4.946  12.534  1.7311  0.4193  0.1468
   39DOPE   C35 4991   2.681   4.997  12.731  0.0741 -0.2414  0.1244
   39DOPE   H5X 4992   2.768   5.036  12.674 -1.3049  1.6618 -0.8048
   39DOPE   H5Y 4993   2.692   4.892  12.766  0.4401 -0.0203  0.6732
   39DOPE   C36 4994   2.645   5.087  12.857 -0.1101 -0.1190 -0.4191
   39DOPE   H6X 4995   2.540   5.066  12.885  0.2964 -1.7997 -0.0698
   39DOPE   H6Y 4996   2.638   5.196  12.836 -0.7603  0.1700  1.1567
   39DOPE   C37 4997   2.747   5.066  12.971  0.0253  0.0487 -0.6958
   39DOPE   H7X 4998   2.786   4.962  12.965 -1.3401 -0.3954 -3.2312
   39DOPE   H7Y 4999   2.826   5.139  12.943 -0.8954  0.3988 -2.5077
   39DOPE   C38 5000   2.691   5.099  13.110  0.0770  0.4106 -0.4690
   39DOPE   H8X 5001   2.637   5.197  13.110  0.0127  0.3840  0.1542
   39DOPE   H8Y 5002   2.785   5.118  13.166  2.5354 -0.4846 -3.9701
   39DOPE   C39 5003   2.606   4.986  13.159 -0.4983 -0.1893 -0.6008
   39DOPE   H9X 5004   2.556   4.928  13.080 -1.5055  0.8479 -0.7510
   39DOPE  C310 5005   2.580   4.951  13.287 -0.8124  0.3651 -0.4051
   39DOPE  H10X 5006   2.533   4.854  13.308  0.5826  0.3978  3.9608
   39DOPE  C311 5007   2.639   5.015  13.407  1.0159 -0.4073 -0.7803
   39DOPE  H11X 5008   2.696   5.103  13.371 -0.4465  0.6837 -0.5033
   39DOPE  H11Y 5009   2.559   5.051  13.476  0.3100 -1.5354 -0.9913
   39DOPE  C312 5010   2.734   4.925  13.485  0.7856 -0.2900 -0.2643
   39DOPE  H12X 5011   2.826   4.920  13.422  0.9900 -0.1253  0.0186
   39DOPE  H12Y 5012   2.680   4.830  13.501  2.0836 -1.1200 -0.6159
   39DOPE  C313 5013   2.770   4.990  13.621  0.2902  0.3823  0.0041
   39DOPE  H13X 5014   2.863   4.947  13.663 -0.1438  0.5475  1.1887
   39DOPE  H13Y 5015   2.780   5.101  13.617 -0.1548  0.4049 -0.7095
   39DOPE  C314 5016   2.657   4.973  13.724  0.2863 -0.2290  0.2146
   39DOPE  H14X 5017   2.628   4.868  13.700  1.8198 -0.3763 -1.1757
   39DOPE  H14Y 5018   2.575   5.047  13.711  0.9003  0.4598  0.2400
   39DOPE  C315 5019   2.705   5.000  13.873  0.2584  0.3194  0.2557
   39DOPE  H15X 5020   2.793   5.067  13.863  1.1537 -0.9841 -0.9850
   39DOPE  H15Y 5021   2.744   4.904  13.911  2.7388  0.9693 -0.4633
   39DOPE  C316 5022   2.605   5.048  13.973 -0.1532  0.9735 -0.2177
   39DOPE  H16X 5023   2.521   4.975  13.962 -0.0920  0.8512  0.1213
   39DOPE  H16Y 5024   2.566   5.152  13.960  0.0936  1.0146 -0.6250
   39DOPE  C317 5025   2.654   5.038  14.123  0.1844  0.6721 -0.6847
   39DOPE  H17X 5026   2.695   4.937  14.142 -1.2094  0.0865 -0.7042
   39DOPE  H17Y 5027   2.740   5.108  14.132  0.0881  0.5331  3.0433
   39DOPE  C318 5028   2.549   5.053  14.233  0.0478 -0.6309  0.1598
   39DOPE  H18X 5029   2.459   4.990  14.225 -0.6369  0.3996 -0.5260
   39DOPE  H18Y 5030   2.611   5.034  14.323  0.2636 -0.7317 -0.0098
   39DOPE  H18Z 5031   2.502   5.154  14.224 -0.6802 -1.0165 -0.4009
   40DOPE     N 5032   3.877   5.654  11.909  0.7947  0.0699  0.5565
   40DOPE   HN1 5033   3.841   5.690  12.000 -2.8456 -1.8360  0.0402
   40DOPE   HN2 5034   3.924   5.563  11.924 -0.0708 -0.4672  0.0683
   40DOPE   HN3 5035   3.936   5.715  11.850 -2.4586  2.1342 -0.8433
   40DOPE   C12 5036   3.758   5.625  11.822 -0.0305 -0.4337 -0.3836
   40DOPE  H12A 5037   3.789   5.559  11.739  2.4452  2.7793 -2.2160
   40DOPE  H12B 5038   3.729   5.721  11.774  1.7315 -0.5249 -1.7427
   40DOPE   C11 5039   3.656   5.560  11.913 -0.0592 -0.0517  0.4990
   40DOPE  H11A 5040   3.716   5.490  11.975  0.2973  0.5964  0.8989
   40DOPE  H11B 5041   3.588   5.501  11.848  1.2571 -0.1173 -0.8691
   40DOPE     P 5042   3.450   5.706  11.988  0.1590 -0.2590  0.0692
   40DOPE   O13 5043   3.401   5.692  11.848 -0.0064  0.2122 -0.3772
   40DOPE   O14 5044   3.446   5.841  12.048  0.3330  0.4537  0.1153
   40DOPE   O11 5045   3.348   5.614  12.067 -0.2635  0.3289  0.0950
   40DOPE   O12 5046   3.597   5.646  12.009  0.1197  0.5251 -0.1639
   40DOPE    C1 5047   3.387   5.568  12.192 -0.0633 -0.2763 -0.4678
   40DOPE    HA 5048   3.448   5.645  12.244 -0.9369 -1.3345  2.3388
   40DOPE    HB 5049   3.451   5.477  12.185  1.6167  0.8656 -0.6785
   40DOPE    C2 5050   3.267   5.546  12.287 -0.9020 -0.7046  0.5103
   40DOPE    HS 5051   3.299   5.536  12.393  0.3384  1.5020  0.4030
   40DOPE   O21 5052   3.190   5.429  12.247  0.5222  0.5723 -0.3765
   40DOPE   C21 5053   3.237   5.309  12.285 -0.4298  0.2737 -0.1103
   40DOPE   O22 5054   3.339   5.291  12.348  0.2263  0.4341 -0.2752
   40DOPE   C22 5055   3.145   5.203  12.242 -0.6606 -0.5394 -0.4086
   40DOPE   H2R 5056   3.170   5.179  12.137 -1.8779 -0.4473 -0.7345
   40DOPE   H2S 5057   3.037   5.229  12.251 -0.8581 -1.1252 -0.9689
   40DOPE    C3 5058   3.174   5.672  12.287 -0.0694  0.1962  0.4896
   40DOPE    HX 5059   3.079   5.647  12.340  0.8864 -1.6380  1.4511
   40DOPE    HY 5060   3.152   5.697  12.181 -0.2211  2.1677  0.9493
   40DOPE   O31 5061   3.235   5.790  12.342  0.0161 -0.1024  0.1693
   40DOPE   C31 5062   3.236   5.803  12.481  0.1482  0.5127 -0.8807
   40DOPE   O32 5063   3.209   5.716  12.561 -0.1340  0.5782 -0.3069
   40DOPE   C32 5064   3.285   5.951  12.513 -0.0528  0.2943  0.2000
   40DOPE   H2X 5065   3.373   5.976  12.450 -1.5390  1.0062 -1.6822
   40DOPE   H2Y 5066   3.201   6.020  12.488  0.7396  0.8855 -0.9335
   40DOPE   C23 5067   3.162   5.069  12.326  0.0055  0.1974 -0.0811
   40DOPE   H3R 5068   3.270   5.046  12.341 -0.0027  0.6001  0.6072
   40DOPE   H3S 5069   3.111   4.986  12.272 -0.0403  0.2138 -0.0615
   40DOPE   C24 5070   3.106   5.082  12.473 -0.2418  0.1871 -0.4733
   40DOPE   H4R 5071   2.997   5.104  12.469 -0.1733  1.0719  1.4572
   40DOPE   H4S 5072   3.148   5.172  12.521 -1.1955  1.1000 -1.2965
   40DOPE   C25 5073   3.122   4.953  12.558 -0.7384  0.1688 -0.0749
   40DOPE   H5R 5074   3.231   4.943  12.579 -0.6672  2.0141  0.5750
   40DOPE   H5S 5075   3.079   4.865  12.506  0.1439  0.0200 -0.5855
   40DOPE   C26 5076   3.057   4.964  12.695  0.1918 -0.0984 -0.3465
   40DOPE   H6R 5077   2.949   4.943  12.680 -0.2803  1.8261  0.0909
   40DOPE   H6S 5078   3.066   5.073  12.713  0.9513 -0.4945  2.1524
   40DOPE   C27 5079   3.121   4.870  12.801 -0.3541 -0.3704 -0.5676
   40DOPE   H7R 5080   3.231   4.857  12.797 -0.2848 -0.2793  0.6296
   40DOPE   H7S 5081   3.082   4.767  12.784  0.6585 -0.4344 -2.8284
   40DOPE   C28 5082   3.081   4.917  12.948 -0.3765  0.4628  0.0200
   40DOPE   H8R 5083   3.115   4.852  13.030  0.5947 -0.3788 -1.0173
   40DOPE   H8S 5084   2.970   4.909  12.945 -0.2810 -1.2041 -0.2207
   40DOPE   C29 5085   3.133   5.055  12.970  0.6688 -0.5093  0.1696
   40DOPE   H9R 5086   3.206   5.074  12.889  0.6134 -0.0937  0.2186
   40DOPE  C210 5087   3.133   5.126  13.082  1.4071  0.2236  0.3103
   40DOPE  H10R 5088   3.185   5.222  13.087  1.9380 -0.0981  1.2151
   40DOPE  C211 5089   3.065   5.094  13.216  0.2910  0.0455  0.0472
   40DOPE  H11R 5090   3.012   4.997  13.219 -0.9225  0.7226  2.1488
   40DOPE  H11S 5091   2.997   5.177  13.245  1.8350  1.7173 -0.8400
   40DOPE  C212 5092   3.161   5.077  13.335  1.0256 -0.1731 -0.3333
   40DOPE  H12R 5093   3.189   5.180  13.367 -1.1896  1.5645 -3.4021
   40DOPE  H12S 5094   3.247   5.014  13.303  0.7124 -0.7130 -0.1127
   40DOPE  C213 5095   3.094   4.994  13.449 -0.0159 -0.0615 -0.5443
   40DOPE  H13R 5096   3.072   4.890  13.416 -1.2585 -0.1764  0.5621
   40DOPE  H13S 5097   3.002   5.048  13.479  1.3487  1.0480  1.9227
   40DOPE  C214 5098   3.188   4.981  13.573 -0.1482  0.7251  0.2333
   40DOPE  H14R 5099   3.268   4.905  13.564 -2.1644 -1.8545  2.3096
   40DOPE  H14S 5100   3.133   4.940  13.661 -0.4957 -0.7997 -0.6483
   40DOPE  C215 5101   3.254   5.112  13.624  0.5394 -1.0042 -0.0697
   40DOPE  H15R 5102   3.186   5.198  13.602  1.4474 -0.2077  0.1601
   40DOPE  H15S 5103   3.350   5.130  13.571  0.1453  1.6485 -0.0354
   40DOPE  C216 5104   3.275   5.125  13.772  0.0452 -0.8597 -0.6202
   40DOPE  H16R 5105   3.336   5.214  13.803  0.2502 -0.7937 -1.2076
   40DOPE  H16S 5106   3.334   5.037  13.805  1.3779  0.8045  1.8193
   40DOPE  C217 5107   3.139   5.147  13.850 -0.3269 -1.0927  0.6662
   40DOPE  H17R 5108   3.076   5.055  13.847 -0.8279 -0.7394  0.0798
   40DOPE  H17S 5109   3.078   5.226  13.802  0.3268 -0.1115  1.4107
   40DOPE  C218 5110   3.157   5.186  13.999  0.4693  0.4106  0.4303
   40DOPE  H18R 5111   3.058   5.188  14.050 -0.5447 -1.4683 -1.3228
   40DOPE  H18S 5112   3.198   5.290  14.002 -0.8720  0.9620  0.0168
   40DOPE  H18T 5113   3.239   5.121  14.038  1.6082 -0.5466 -3.2150
   40DOPE   C33 5114   3.324   5.956  12.659  0.1698  0.0911 -0.4059
   40DOPE   H3X 5115   3.397   5.880  12.696 -1.8805 -1.7179  0.1068
   40DOPE   H3Y 5116   3.239   5.912  12.714  1.0532 -0.0063  0.9353
   40DOPE   C34 5117   3.357   6.098  12.693 -0.0264  0.1756 -0.6938
   40DOPE   H4X 5118   3.460   6.122  12.657  0.3262 -0.7980 -0.3749
   40DOPE   H4Y 5119   3.287   6.163  12.636 -2.9934 -2.3133 -0.1580
   40DOPE   C35 5120   3.349   6.138  12.847  0.1583  0.3499  0.1764
   40DOPE   H5X 5121   3.241   6.124  12.870 -0.6486  1.2247 -2.6366
   40DOPE   H5Y 5122   3.367   6.246  12.862 -0.3538  0.3828  0.6199
   40DOPE   C36 5123   3.439   6.049  12.940 -0.0806 -0.0939 -0.2859
   40DOPE   H6X 5124   3.537   6.047  12.888 -0.7323  2.6553 -1.7912
   40DOPE   H6Y 5125   3.416   5.940  12.940  2.6997 -0.8225 -2.8915
   40DOPE   C37 5126   3.467   6.112  13.080  0.1556  0.0169 -0.1568
   40DOPE   H7X 5127   3.546   6.054  13.133  2.1675  1.5339 -1.3627
   40DOPE   H7Y 5128   3.509   6.214  13.067 -2.4327  1.5851  2.5370
   40DOPE   C38 5129   3.347   6.122  13.167  0.1700  0.8588  0.1980
   40DOPE   H8X 5130   3.274   6.191  13.120  1.2645  1.4124 -0.7290
   40DOPE   H8Y 5131   3.380   6.181  13.255  1.7342  2.0288 -1.1125
   40DOPE   C39 5132   3.310   5.983  13.211  0.2894 -1.4721  0.6833
   40DOPE   H9X 5133   3.221   5.949  13.156  0.5915 -0.1137 -0.7355
   40DOPE  C310 5134   3.347   5.914  13.325 -0.8063 -0.1461  0.0781
   40DOPE  H10X 5135   3.297   5.820  13.350 -0.2761 -0.5438 -0.3385
   40DOPE  C311 5136   3.453   5.957  13.422 -0.0041 -0.2763  0.5992
   40DOPE  H11X 5137   3.533   5.879  13.423  0.5837  0.3082  0.0166
   40DOPE  H11Y 5138   3.502   6.047  13.380  1.0515 -0.7334  0.8093
   40DOPE  C312 5139   3.398   5.979  13.558 -0.9630 -0.1857 -0.2787
   40DOPE  H12X 5140   3.486   5.969  13.624  0.1852  1.6980 -1.4308
   40DOPE  H12Y 5141   3.339   5.889  13.588  0.8979 -0.8513  1.6235
   40DOPE  C313 5142   3.325   6.113  13.574 -0.6853  1.0840  0.7697
   40DOPE  H13X 5143   3.398   6.193  13.548  2.6876 -2.4755 -2.1612
   40DOPE  H13Y 5144   3.249   6.116  13.493 -0.3266 -1.2136  0.2618
   40DOPE  C314 5145   3.266   6.124  13.713  0.5889 -0.7515 -0.1725
   40DOPE  H14X 5146   3.340   6.089  13.788 -1.1863 -0.4502  1.8150
   40DOPE  H14Y 5147   3.176   6.059  13.727  0.0026 -0.0982 -0.7985
   40DOPE  C315 5148   3.212   6.267  13.743 -0.0734 -0.0532 -0.3732
   40DOPE  H15X 5149   3.125   6.290  13.677 -0.6596  0.9369  0.6895
   40DOPE  H15Y 5150   3.282   6.350  13.722 -0.0151 -0.1415 -0.5359
   40DOPE  C316 5151   3.172   6.284  13.892  0.2968  0.9721  0.9096
   40DOPE  H16X 5152   3.243   6.222  13.952  1.1702 -0.5792 -1.5516
   40DOPE  H16Y 5153   3.069   6.244  13.903 -0.5315  2.8682  0.4003
   40DOPE  C317 5154   3.161   6.436  13.932  0.1360  0.1590  0.3165
   40DOPE  H17X 5155   3.263   6.480  13.928 -0.0594  0.6034  0.2059
   40DOPE  H17Y 5156   3.091   6.479  13.857 -0.6809  0.0884  1.0222
   40DOPE  C318 5157   3.121   6.457  14.075  0.1971  0.1473  0.0055
   40DOPE  H18X 5158   3.037   6.389  14.099 -0.5032  1.4066  1.2884
   40DOPE  H18Y 5159   3.206   6.431  14.143 -1.0727 -1.0378  1.1997
   40DOPE  H18Z 5160   3.087   6.559  14.101 -2.7427  0.0423 -2.8296
   41DOPE     N 5161   3.202   6.098  11.943  0.0592 -0.5661 -0.3337
   41DOPE   HN1 5162   3.305   6.101  11.928  0.1592 -0.6069  0.2987
   41DOPE   HN2 5163   3.158   6.175  11.888 -1.8905 -1.9140 -0.7692
   41DOPE   HN3 5164   3.192   6.115  12.045  0.4283 -1.0802 -0.2093
   41DOPE   C12 5165   3.142   5.967  11.901  0.4509  0.3296  0.1343
   41DOPE  H12A 5166   3.225   5.893  11.890  0.9609  0.6924  1.3922
   41DOPE  H12B 5167   3.091   5.980  11.804  2.1309  3.0773 -0.4810
   41DOPE   C11 5168   3.045   5.917  12.014 -0.1083  0.2830 -0.4643
   41DOPE  H11A 5169   3.096   5.900  12.112 -1.3973  2.0527  0.5688
   41DOPE  H11B 5170   3.010   5.814  11.990  1.6219 -0.9908  2.0275
   41DOPE     P 5171   2.803   5.990  11.962  0.4258  0.0291  0.1149
   41DOPE   O13 5172   2.734   5.874  12.022 -0.0402 -0.9067 -0.4020
   41DOPE   O14 5173   2.828   5.979  11.817 -0.1834 -0.0269 -0.5589
   41DOPE   O11 5174   2.716   6.119  11.989 -0.7156 -0.5751 -0.2955
   41DOPE   O12 5175   2.935   6.005  12.035  0.2887  0.2160 -0.1529
   41DOPE    C1 5176   2.751   6.206  12.101  0.2762 -0.2179  0.8720
   41DOPE    HA 5177   2.729   6.311  12.073 -0.7514 -0.5276  0.4668
   41DOPE    HB 5178   2.855   6.205  12.141  0.2841 -0.5450  0.8474
   41DOPE    C2 5179   2.668   6.184  12.229  0.6892 -0.6620 -0.3576
   41DOPE    HS 5180   2.682   6.264  12.305 -1.4767 -0.6033  0.0499
   41DOPE   O21 5181   2.699   6.049  12.279  0.1557 -0.1283 -0.3873
   41DOPE   C21 5182   2.808   6.046  12.350 -0.6907 -0.0746  0.5067
   41DOPE   O22 5183   2.872   6.146  12.387  0.5195 -0.5230 -0.2641
   41DOPE   C22 5184   2.850   5.901  12.385 -0.3141  0.3797  0.2731
   41DOPE   H2R 5185   2.930   5.877  12.310 -0.9092 -1.9564  0.3054
   41DOPE   H2S 5186   2.762   5.837  12.363 -0.2519 -0.5350  2.4393
   41DOPE    C3 5187   2.514   6.194  12.213 -0.2632 -1.0327 -0.0425
   41DOPE    HX 5188   2.480   6.100  12.163  0.4570 -0.5738 -1.4484
   41DOPE    HY 5189   2.499   6.280  12.145 -0.7742 -0.3819  0.8787
   41DOPE   O31 5190   2.456   6.212  12.347 -0.2221 -0.0736 -0.4117
   41DOPE   C31 5191   2.433   6.107  12.417  0.1012 -0.0179  0.0381
   41DOPE   O32 5192   2.453   5.993  12.382 -1.0231  0.0712  0.1597
   41DOPE   C32 5193   2.381   6.156  12.546  0.8698 -0.1983 -0.2320
   41DOPE   H2X 5194   2.336   6.257  12.532 -1.0638 -1.3955 -3.7192
   41DOPE   H2Y 5195   2.291   6.094  12.562  0.3421 -0.0965 -2.5065
   41DOPE   C23 5196   2.888   5.865  12.534 -0.7159  0.5578  0.4557
   41DOPE   H3R 5197   2.950   5.949  12.572 -0.7338  0.9707 -0.3882
   41DOPE   H3S 5198   2.953   5.775  12.544  0.9168  1.7641  1.2505
   41DOPE   C24 5199   2.772   5.842  12.625 -0.4095  0.4231 -0.5338
   41DOPE   H4R 5200   2.736   5.740  12.602  1.5261 -0.8315  1.6079
   41DOPE   H4S 5201   2.693   5.914  12.594 -3.0131 -2.0800 -0.0677
   41DOPE   C25 5202   2.803   5.868  12.774  0.2260  0.6611  0.2264
   41DOPE   H5R 5203   2.805   5.978  12.784  1.2329  0.7772 -1.0717
   41DOPE   H5S 5204   2.910   5.840  12.781 -0.2052 -1.5343 -0.9510
   41DOPE   C26 5205   2.719   5.793  12.878  0.8082  0.0345 -0.6634
   41DOPE   H6R 5206   2.630   5.772  12.815 -0.5500  0.8977  0.8738
   41DOPE   H6S 5207   2.692   5.862  12.961  0.2313 -2.7887  1.6940
   41DOPE   C27 5208   2.778   5.662  12.938  0.2995 -0.1799 -0.0272
   41DOPE   H7R 5209   2.882   5.684  12.969 -0.4848  2.3952  1.0094
   41DOPE   H7S 5210   2.777   5.581  12.861 -0.5067 -1.3516  1.1780
   41DOPE   C28 5211   2.699   5.598  13.052 -0.0448 -0.0865 -0.5098
   41DOPE   H8R 5212   2.603   5.572  13.002  0.2383  0.2477 -1.2442
   41DOPE   H8S 5213   2.698   5.667  13.138  0.6362  0.4838 -0.9454
   41DOPE   C29 5214   2.769   5.473  13.095 -0.2865  0.2266 -0.3714
   41DOPE   H9R 5215   2.793   5.407  13.011  1.1366  0.0206  0.1763
   41DOPE  C210 5216   2.808   5.441  13.222 -0.2708  0.1105  0.0764
   41DOPE  H10R 5217   2.855   5.342  13.231 -3.3381 -1.8330 -2.9937
   41DOPE  C211 5218   2.800   5.522  13.347  0.0471  0.6253 -0.1949
   41DOPE  H11R 5219   2.699   5.569  13.350 -1.1794 -1.7737 -1.4050
   41DOPE  H11S 5220   2.886   5.592  13.352  0.5950 -0.0513 -0.0476
   41DOPE  C212 5221   2.798   5.426  13.470  0.2731 -0.5462  0.9195
   41DOPE  H12R 5222   2.899   5.382  13.480  0.6437 -0.0892 -0.5975
   41DOPE  H12S 5223   2.719   5.350  13.451  0.4399 -0.1114 -1.9394
   41DOPE  C213 5224   2.777   5.507  13.595 -0.0121 -0.1172 -0.3133
   41DOPE  H13R 5225   2.683   5.567  13.597  1.4104  2.3046  2.2910
   41DOPE  H13S 5226   2.857   5.583  13.610 -0.5691  0.4636 -0.1970
   41DOPE  C214 5227   2.771   5.419  13.723  0.5397 -0.8824  0.3677
   41DOPE  H14R 5228   2.864   5.359  13.728  1.4686  0.5287  0.7612
   41DOPE  H14S 5229   2.682   5.355  13.708 -0.4182  0.7846 -1.6913
   41DOPE  C215 5230   2.770   5.505  13.854  0.5429  0.4139  0.4036
   41DOPE  H15R 5231   2.695   5.587  13.851  0.4903  0.4789  2.3050
   41DOPE  H15S 5232   2.865   5.561  13.868  0.0660  0.8444  2.1236
   41DOPE  C216 5233   2.746   5.417  13.980  0.0384 -0.1764 -0.4507
   41DOPE  H16R 5234   2.838   5.359  14.002 -0.4360 -0.3491  1.2892
   41DOPE  H16S 5235   2.655   5.355  13.966 -1.4132  1.1056  2.3510
   41DOPE  C217 5236   2.713   5.512  14.094  0.1803 -0.0631 -0.0713
   41DOPE  H17R 5237   2.619   5.563  14.064  0.0869  0.2216  0.6870
   41DOPE  H17S 5238   2.791   5.590  14.101  1.1000 -0.8571 -1.1692
   41DOPE  C218 5239   2.695   5.441  14.233  0.1207  0.1135 -0.4499
   41DOPE  H18R 5240   2.609   5.371  14.224 -0.5380  0.7987  0.4045
   41DOPE  H18S 5241   2.668   5.525  14.301  1.4446  1.2461 -1.2796
   41DOPE  H18T 5242   2.792   5.400  14.270  0.5482  2.3037  1.0196
   41DOPE   C33 5243   2.482   6.138  12.661 -0.5998  0.0866 -0.1848
   41DOPE   H3X 5244   2.560   6.216  12.648 -0.4185  0.3276  2.0124
   41DOPE   H3Y 5245   2.531   6.039  12.653  1.5380  0.9603  1.2723
   41DOPE   C34 5246   2.422   6.150  12.799  0.1425 -0.5275  0.1479
   41DOPE   H4X 5247   2.383   6.251  12.823  2.1025  0.0510  1.0924
   41DOPE   H4Y 5248   2.334   6.082  12.803  0.5103 -0.9738  0.7339
   41DOPE   C35 5249   2.515   6.109  12.918  0.1881 -0.3996 -0.2067
   41DOPE   H5X 5250   2.617   6.147  12.896 -0.0277  0.6434  0.5197
   41DOPE   H5Y 5251   2.525   6.000  12.940  2.7481  0.2046  2.2806
   41DOPE   C36 5252   2.464   6.178  13.049  0.4085 -0.5927 -0.4508
   41DOPE   H6X 5253   2.355   6.163  13.062  0.3344  1.0509  1.3870
   41DOPE   H6Y 5254   2.481   6.286  13.027  2.0245 -0.5116  1.0040
   41DOPE   C37 5255   2.534   6.135  13.169 -0.5598 -0.6773  0.1327
   41DOPE   H7X 5256   2.579   6.033  13.162  2.8687  0.7687 -0.9813
   41DOPE   H7Y 5257   2.625   6.194  13.190 -1.1911 -0.4524  2.5655
   41DOPE   C38 5258   2.452   6.160  13.306  0.2652 -1.0088  0.1457
   41DOPE   H8X 5259   2.357   6.103  13.294  0.0973 -0.9359  1.0152
   41DOPE   H8Y 5260   2.437   6.270  13.310 -0.4185 -1.0828 -0.2419
   41DOPE   C39 5261   2.517   6.109  13.427  0.5048 -0.2171  0.1484
   41DOPE   H9X 5262   2.586   6.025  13.411  2.1508  1.1607 -0.2466
   41DOPE  C310 5263   2.500   6.161  13.550 -0.3284  0.0628  0.7696
   41DOPE  H10X 5264   2.535   6.118  13.644 -1.6663 -0.7939  0.9118
   41DOPE  C311 5265   2.407   6.280  13.583 -0.1017 -0.6405  0.1739
   41DOPE  H11X 5266   2.472   6.367  13.603 -0.9117  0.0467 -0.0890
   41DOPE  H11Y 5267   2.336   6.308  13.502  0.1263 -1.0638 -0.1748
   41DOPE  C312 5268   2.326   6.255  13.713  0.0754  0.3402 -0.2601
   41DOPE  H12X 5269   2.388   6.199  13.786 -1.1752  0.8133  1.2237
   41DOPE  H12Y 5270   2.233   6.199  13.688 -0.1030  0.6899 -0.3845
   41DOPE  C313 5271   2.278   6.383  13.785  0.1731  0.4842 -0.3867
   41DOPE  H13X 5272   2.363   6.444  13.822 -0.1103  1.2207 -0.9413
   41DOPE  H13Y 5273   2.221   6.450  13.717 -0.0379 -0.6916 -1.4123
   41DOPE  C314 5274   2.208   6.349  13.918  0.1054 -0.5020 -0.0431
   41DOPE  H14X 5275   2.284   6.303  13.985 -1.0240  1.0006  2.4292
   41DOPE  H14Y 5276   2.126   6.275  13.912 -0.0397 -0.6066  2.2129
   41DOPE  C315 5277   2.160   6.474  13.995  0.6675 -0.0560 -0.1490
   41DOPE  H15X 5278   2.076   6.530  13.947 -0.1921 -1.2038 -0.0411
   41DOPE  H15Y 5279   2.245   6.542  14.015 -0.2633  0.8480  0.9545
   41DOPE  C316 5280   2.095   6.427  14.130 -0.2947 -0.6202 -0.5092
   41DOPE  H16X 5281   2.173   6.378  14.192  1.2355  0.5187 -1.4586
   41DOPE  H16Y 5282   2.018   6.350  14.106 -2.1275  1.1882 -0.7556
   41DOPE  C317 5283   2.028   6.538  14.214 -0.3459 -1.0202  0.0527
   41DOPE  H17X 5284   1.986   6.604  14.134  0.1647 -1.7011 -0.7969
   41DOPE  H17Y 5285   1.948   6.498  14.279 -1.4588  0.4280 -0.3588
   41DOPE  C318 5286   2.122   6.639  14.294  0.4165 -0.6595 -0.0509
   41DOPE  H18X 5287   2.196   6.591  14.362  0.5297  0.2902  0.5089
   41DOPE  H18Y 5288   2.175   6.709  14.226  0.1797  0.2954  0.7329
   41DOPE  H18Z 5289   2.068   6.712  14.358  0.8827 -1.1335  0.9075
   42DOPE     N 5290   1.714   4.581  11.836 -0.3578 -0.4359 -0.0856
   42DOPE   HN1 5291   1.642   4.592  11.761  2.1223  0.3508 -2.5147
   42DOPE   HN2 5292   1.803   4.588  11.784  0.5928 -1.0504  1.3895
   42DOPE   HN3 5293   1.700   4.489  11.883  0.5489 -0.2825  0.5004
   42DOPE   C12 5294   1.698   4.689  11.935  0.1121 -0.0741 -0.1664
   42DOPE  H12A 5295   1.802   4.706  11.970 -0.3321  1.5288  0.4424
   42DOPE  H12B 5296   1.633   4.659  12.021 -1.2252  0.7065 -0.8732
   42DOPE   C11 5297   1.637   4.820  11.873 -0.5563 -0.1855 -0.4037
   42DOPE  H11A 5298   1.689   4.862  11.784  1.5365 -3.0363 -0.6807
   42DOPE  H11B 5299   1.660   4.885  11.960  2.2514  0.2073 -1.3402
   42DOPE     P 5300   1.388   4.904  11.880  0.1772 -0.1591 -0.4776
   42DOPE   O13 5301   1.254   4.850  11.863  0.5983  0.4990  0.0294
   42DOPE   O14 5302   1.418   5.026  11.809  0.2759  0.0622  0.5925
   42DOPE   O11 5303   1.420   4.921  12.036 -0.2695  0.4213 -0.2017
   42DOPE   O12 5304   1.501   4.801  11.845 -0.6118  0.7313 -0.0165
   42DOPE    C1 5305   1.391   4.811  12.123  0.4058 -0.2043  0.3150
   42DOPE    HA 5306   1.419   4.716  12.073  0.1388 -0.1266  0.0216
   42DOPE    HB 5307   1.283   4.800  12.146  0.3619 -0.3339  0.0485
   42DOPE    C2 5308   1.472   4.828  12.259 -0.5332 -0.4336  0.0281
   42DOPE    HS 5309   1.572   4.781  12.247  1.2174  2.7730  0.7031
   42DOPE   O21 5310   1.404   4.766  12.367 -0.3084  0.3992 -0.7590
   42DOPE   C21 5311   1.414   4.637  12.369 -0.3209 -0.5416 -0.8967
   42DOPE   O22 5312   1.470   4.563  12.290 -0.1328  0.0487 -0.1554
   42DOPE   C22 5313   1.350   4.584  12.492 -0.2242 -0.3058  0.0750
   42DOPE   H2R 5314   1.349   4.473  12.482  0.5088 -0.2370 -0.8173
   42DOPE   H2S 5315   1.242   4.609  12.484 -0.1922  0.1567  0.9011
   42DOPE    C3 5316   1.494   4.974  12.295 -0.4984 -0.2530 -0.5702
   42DOPE    HX 5317   1.400   5.032  12.287 -0.5056  0.0950  1.4498
   42DOPE    HY 5318   1.566   5.017  12.222  0.8676  0.3353  1.0446
   42DOPE   O31 5319   1.534   4.994  12.434  0.1101  0.0612 -0.4625
   42DOPE   C31 5320   1.653   4.944  12.467 -0.3276 -0.7704  0.6688
   42DOPE   O32 5321   1.731   4.892  12.390 -0.0474  0.5924 -0.2238
   42DOPE   C32 5322   1.686   4.944  12.622 -0.2154 -0.0496 -0.4501
   42DOPE   H2X 5323   1.705   5.048  12.658  1.1235 -0.1413 -0.8275
   42DOPE   H2Y 5324   1.592   4.906  12.668 -0.5908  0.3811 -0.8502
   42DOPE   C23 5325   1.413   4.645  12.619 -0.5190 -0.2260  0.1443
   42DOPE   H3R 5326   1.420   4.756  12.617 -1.9581 -0.1232 -1.7856
   42DOPE   H3S 5327   1.521   4.620  12.627 -0.9675 -1.9551  1.3499
   42DOPE   C24 5328   1.352   4.596  12.747  0.2237 -0.3746  0.6027
   42DOPE   H4R 5329   1.357   4.486  12.729 -1.3135 -0.0333 -2.4569
   42DOPE   H4S 5330   1.244   4.620  12.752  0.1696 -0.3250 -0.6953
   42DOPE   C25 5331   1.430   4.637  12.874  0.1465  0.4202 -0.3594
   42DOPE   H5R 5332   1.431   4.747  12.888  2.4114  0.1901  2.2098
   42DOPE   H5S 5333   1.534   4.605  12.854  1.2483  3.3160  0.2491
   42DOPE   C26 5334   1.374   4.574  13.001  0.0977  0.2298 -0.7425
   42DOPE   H6R 5335   1.360   4.464  12.999 -0.8803  0.3068  0.5045
   42DOPE   H6S 5336   1.274   4.618  13.024  0.2841 -0.6401  2.1221
   42DOPE   C27 5337   1.460   4.607  13.129  0.5534  0.7087 -0.8862
   42DOPE   H7R 5338   1.467   4.718  13.134  2.7977  0.8797 -4.1867
   42DOPE   H7S 5339   1.560   4.562  13.115  0.5613 -0.3699  2.0526
   42DOPE   C28 5340   1.408   4.552  13.267  0.3506  0.2798 -0.2197
   42DOPE   H8R 5341   1.305   4.591  13.276  0.3679  0.9286 -2.3531
   42DOPE   H8S 5342   1.471   4.584  13.352 -0.7033  0.7409  0.3987
   42DOPE   C29 5343   1.416   4.402  13.273 -0.6339 -0.1248 -0.5811
   42DOPE   H9R 5344   1.473   4.339  13.204  0.4451 -1.0426  1.0770
   42DOPE  C210 5345   1.351   4.337  13.373  0.9740  0.0286  0.1456
   42DOPE  H10R 5346   1.353   4.227  13.371  2.0760  0.0442 -0.2394
   42DOPE  C211 5347   1.269   4.398  13.485  0.0723  0.2770  0.1088
   42DOPE  H11R 5348   1.160   4.376  13.489 -0.2069  1.5060 -0.4171
   42DOPE  H11S 5349   1.268   4.508  13.474 -0.0949  0.2399 -0.2659
   42DOPE  C212 5350   1.336   4.364  13.621 -0.2887 -0.1311 -0.3450
   42DOPE  H12R 5351   1.447   4.373  13.615 -0.0912 -2.4359 -1.3456
   42DOPE  H12S 5352   1.329   4.254  13.633 -0.5109 -0.1235 -0.4071
   42DOPE  C213 5353   1.284   4.438  13.744 -0.5574 -0.5661 -0.3796
   42DOPE  H13R 5354   1.338   4.381  13.822 -0.7351 -0.6668 -0.3299
   42DOPE  H13S 5355   1.175   4.434  13.764 -0.2318 -0.4520  1.6272
   42DOPE  C214 5356   1.323   4.586  13.758 -0.1136  0.4350 -0.1996
   42DOPE  H14R 5357   1.288   4.629  13.661  2.1229 -0.5229 -1.5237
   42DOPE  H14S 5358   1.433   4.586  13.769  0.0228 -0.4972 -1.3340
   42DOPE  C215 5359   1.261   4.645  13.889 -0.3647  0.2247  0.2678
   42DOPE  H15R 5360   1.157   4.607  13.900 -0.3473  0.2881  0.6617
   42DOPE  H15S 5361   1.254   4.756  13.896 -1.8730  0.1966 -0.4639
   42DOPE  C216 5362   1.342   4.602  14.012 -0.1078 -0.2544  0.7351
   42DOPE  H16R 5363   1.434   4.664  14.006  0.1358 -0.7178 -0.4714
   42DOPE  H16S 5364   1.387   4.501  14.014  0.6087  0.0598  1.0111
   42DOPE  C217 5365   1.278   4.637  14.141 -0.0149  0.0858 -0.5064
   42DOPE  H17R 5366   1.241   4.742  14.142 -3.7237 -1.0940 -1.2078
   42DOPE  H17S 5367   1.361   4.618  14.213  0.7498 -0.0469 -1.4074
   42DOPE  C218 5368   1.153   4.556  14.177 -0.0108 -0.1989 -0.0542
   42DOPE  H18R 5369   1.084   4.620  14.235  0.0197 -0.1592 -0.0625
   42DOPE  H18S 5370   1.166   4.457  14.225  1.4342  0.1140  0.2339
   42DOPE  H18T 5371   1.098   4.534  14.082  0.1182 -2.5492  0.3469
   42DOPE   C33 5372   1.800   4.840  12.647  0.7649  0.1853 -0.0437
   42DOPE   H3X 5373   1.906   4.863  12.621  1.8620 -3.7154  0.4101
   42DOPE   H3Y 5374   1.764   4.760  12.579 -1.8746  1.1176  0.1457
   42DOPE   C34 5375   1.799   4.793  12.797 -0.0694 -0.0037 -0.2942
   42DOPE   H4X 5376   1.695   4.757  12.811 -0.1898  0.8984  1.3500
   42DOPE   H4Y 5377   1.873   4.710  12.799 -2.8448 -2.6793 -1.5878
   42DOPE   C35 5378   1.834   4.908  12.898 -0.2922  0.0591  0.3052
   42DOPE   H5X 5379   1.787   5.004  12.868  1.6567  0.9185 -0.1675
   42DOPE   H5Y 5380   1.940   4.942  12.893 -1.2097  3.0874 -1.3827
   42DOPE   C36 5381   1.804   4.867  13.035 -1.2806  0.0501  0.1679
   42DOPE   H6X 5382   1.874   4.789  13.072 -0.3056  0.5558 -0.5753
   42DOPE   H6Y 5383   1.705   4.816  13.037 -0.5123 -1.4922  0.9477
   42DOPE   C37 5384   1.803   4.974  13.143  0.0023  0.1263 -0.2803
   42DOPE   H7X 5385   1.891   5.040  13.126 -0.0395  0.7914  1.8204
   42DOPE   H7Y 5386   1.723   5.051  13.134 -1.1331 -0.9261  0.4465
   42DOPE   C38 5387   1.805   4.917  13.287  0.3326  0.4780 -0.2732
   42DOPE   H8X 5388   1.827   4.993  13.365 -0.9701 -0.9971  1.6406
   42DOPE   H8Y 5389   1.895   4.855  13.305  0.9096  0.3488 -3.1470
   42DOPE   C39 5390   1.673   4.844  13.316 -0.0354 -0.4684 -0.5065
   42DOPE   H9X 5391   1.666   4.741  13.280 -0.5275 -0.7234  0.3012
   42DOPE  C310 5392   1.567   4.889  13.381  0.7690  0.0543  0.7326
   42DOPE  H10X 5393   1.473   4.834  13.371  0.9238 -0.1825  0.5887
   42DOPE  C311 5394   1.563   5.019  13.458 -0.4225 -0.3678  0.0967
   42DOPE  H11X 5395   1.620   5.096  13.402  1.0544  1.5465  3.8800
   42DOPE  H11Y 5396   1.461   5.052  13.483  0.2161  2.0546 -0.2283
   42DOPE  C312 5397   1.641   5.010  13.596  0.2286  0.5630  0.5768
   42DOPE  H12X 5398   1.675   5.110  13.630 -0.7055  1.1687 -0.2093
   42DOPE  H12Y 5399   1.733   4.948  13.597  0.5009  0.9512  0.2272
   42DOPE  C313 5400   1.554   4.955  13.709 -0.1454  0.6293 -0.0670
   42DOPE  H13X 5401   1.474   5.030  13.728  0.2210  2.0577 -3.4449
   42DOPE  H13Y 5402   1.502   4.861  13.681  0.3396  0.0611  0.8827
   42DOPE  C314 5403   1.627   4.921  13.838 -0.2770 -0.1960 -0.6825
   42DOPE  H14X 5404   1.730   4.880  13.829 -1.0065 -2.2815  0.0716
   42DOPE  H14Y 5405   1.563   4.842  13.880  1.0851  0.3517  2.7641
   42DOPE  C315 5406   1.622   5.043  13.932 -0.0223  0.5934 -0.9877
   42DOPE  H15X 5407   1.516   5.055  13.962 -0.4428 -2.7428 -0.7730
   42DOPE  H15Y 5408   1.655   5.135  13.880 -3.7920  1.2765 -2.5151
   42DOPE  C316 5409   1.702   5.015  14.067 -0.0274  0.5833  0.3839
   42DOPE  H16X 5410   1.683   5.104  14.131  0.7863  1.1509 -0.1433
   42DOPE  H16Y 5411   1.808   5.002  14.037 -0.2953  0.0993 -0.3704
   42DOPE  C317 5412   1.669   4.888  14.148  0.2368 -0.5184  0.0497
   42DOPE  H17X 5413   1.657   4.801  14.080 -2.9187 -0.1913  0.0593
   42DOPE  H17Y 5414   1.752   4.877  14.221 -0.5464  2.1104  1.4573
   42DOPE  C318 5415   1.540   4.908  14.219  0.2805  0.0563  0.6903
   42DOPE  H18X 5416   1.461   4.934  14.146  0.6259  1.4594  0.7872
   42DOPE  H18Y 5417   1.519   4.811  14.271  1.0773 -0.1324  0.6696
   42DOPE  H18Z 5418   1.542   4.993  14.291 -2.1369  1.1952 -0.4803
   43DOPE     N 5419   1.324   3.150  11.977 -0.4530 -0.5496  0.4603
   43DOPE   HN1 5420   1.362   3.221  11.911  3.4248 -0.8927  2.0212
   43DOPE   HN2 5421   1.382   3.065  11.961  0.4593  0.1090  0.1669
   43DOPE   HN3 5422   1.223   3.128  11.966 -0.2945 -0.0581 -3.0658
   43DOPE   C12 5423   1.358   3.203  12.116 -0.7461  0.0718 -0.5220
   43DOPE  H12A 5424   1.288   3.148  12.183 -0.3753 -1.3150 -1.2157
   43DOPE  H12B 5425   1.344   3.313  12.110 -0.4995  0.0356 -2.2738
   43DOPE   C11 5426   1.499   3.159  12.150 -0.3402  0.5065  0.0820
   43DOPE  H11A 5427   1.509   3.052  12.123 -0.7168  0.0199  1.7819
   43DOPE  H11B 5428   1.514   3.183  12.257  0.4844  2.0741 -0.3438
   43DOPE     P 5429   1.748   3.219  12.090 -0.0184  0.8361 -0.1593
   43DOPE   O13 5430   1.813   3.343  12.061 -0.0229 -0.0070  0.7483
   43DOPE   O14 5431   1.805   3.100  12.029 -0.4431 -0.1402  0.0514
   43DOPE   O11 5432   1.757   3.192  12.245  0.3303  0.5701  0.6751
   43DOPE   O12 5433   1.594   3.225  12.072  0.2854  0.9007  0.6727
   43DOPE    C1 5434   1.786   3.290  12.346  0.0142 -0.3278  0.4312
   43DOPE    HA 5435   1.718   3.291  12.434 -0.9251  0.4563 -0.2682
   43DOPE    HB 5436   1.764   3.394  12.312  1.6691  0.2299  0.9769
   43DOPE    C2 5437   1.937   3.287  12.380 -0.3065 -0.8306 -0.1866
   43DOPE    HS 5438   1.992   3.267  12.286 -2.7710 -4.3550 -1.0869
   43DOPE   O21 5439   1.963   3.194  12.486 -0.0913  0.9354  0.0891
   43DOPE   C21 5440   2.042   3.092  12.465 -1.2201  0.0328  1.0732
   43DOPE   O22 5441   2.088   3.058  12.355  0.0911 -0.0901  0.2565
   43DOPE   C22 5442   2.077   3.007  12.585  0.0942 -0.0901  1.1058
   43DOPE   H2R 5443   2.174   2.956  12.565  0.1078  0.6358 -0.9078
   43DOPE   H2S 5444   2.004   2.924  12.591  2.8146 -2.7612 -0.5395
   43DOPE    C3 5445   1.990   3.430  12.419 -0.3718  0.0918  0.2193
   43DOPE    HX 5446   1.966   3.498  12.334  1.7465  0.8960  0.2149
   43DOPE    HY 5447   2.100   3.426  12.428 -0.3149  1.0190  0.0484
   43DOPE   O31 5448   1.923   3.473  12.538 -0.6659 -0.3099 -0.4967
   43DOPE   C31 5449   1.991   3.478  12.654  0.4308  0.8651 -0.3524
   43DOPE   O32 5450   2.108   3.457  12.671  0.1584 -0.6980 -0.2042
   43DOPE   C32 5451   1.892   3.503  12.767 -0.4987  0.2686  0.1791
   43DOPE   H2X 5452   1.853   3.607  12.759 -0.2191  0.2937 -1.0902
   43DOPE   H2Y 5453   1.800   3.440  12.758 -1.4754  1.6065  0.4460
   43DOPE   C23 5454   2.074   3.084  12.718 -0.2592  0.2143 -0.9075
   43DOPE   H3R 5455   1.980   3.066  12.774 -0.5138  2.1721 -0.6097
   43DOPE   H3S 5456   2.079   3.193  12.695 -2.8239  0.5859 -0.0685
   43DOPE   C24 5457   2.207   3.062  12.790  1.0123 -0.4082  0.2223
   43DOPE   H4R 5458   2.288   3.083  12.717  1.6524  1.9451  1.5221
   43DOPE   H4S 5459   2.214   2.955  12.818 -1.1141 -0.4610  0.6993
   43DOPE   C25 5460   2.228   3.148  12.908  0.2543 -0.2741  0.0304
   43DOPE   H5R 5461   2.199   3.248  12.870  0.3655 -0.2595 -0.0175
   43DOPE   H5S 5462   2.332   3.142  12.948 -0.0147 -1.1990  0.6297
   43DOPE   C26 5463   2.140   3.117  13.033  0.4213 -0.3564  0.3099
   43DOPE   H6R 5464   2.172   3.020  13.077  1.4181 -0.5653 -0.8365
   43DOPE   H6S 5465   2.033   3.110  13.005  0.7339 -0.8917 -0.7750
   43DOPE   C27 5466   2.156   3.227  13.136 -0.3499  0.1636 -0.1193
   43DOPE   H7R 5467   2.115   3.312  13.077 -0.6267 -1.5967 -2.6549
   43DOPE   H7S 5468   2.262   3.244  13.164 -0.7608 -0.5266  1.9919
   43DOPE   C28 5469   2.080   3.211  13.272 -0.7912  0.4080 -0.3626
   43DOPE   H8R 5470   1.978   3.174  13.245  0.1895 -2.7816 -0.0835
   43DOPE   H8S 5471   2.068   3.316  13.306 -1.2886 -0.1085  1.1229
   43DOPE   C29 5472   2.156   3.130  13.373  0.4531  0.4397 -0.1625
   43DOPE   H9R 5473   2.200   3.036  13.339  0.5028  0.3034  0.2688
   43DOPE  C210 5474   2.177   3.164  13.507 -0.2624 -0.0660 -0.0755
   43DOPE  H10R 5475   2.216   3.087  13.574 -0.6221 -0.2939 -0.1295
   43DOPE  C211 5476   2.134   3.295  13.562 -0.1027  0.0847 -0.0438
   43DOPE  H11R 5477   2.028   3.318  13.540  0.6089  1.6318 -2.2307
   43DOPE  H11S 5478   2.193   3.380  13.522 -0.0106 -0.0345 -0.1612
   43DOPE  C212 5479   2.151   3.310  13.711 -0.0544 -0.1478 -0.1338
   43DOPE  H12R 5480   2.089   3.397  13.744 -1.3776 -0.6716 -1.1571
   43DOPE  H12S 5481   2.258   3.304  13.739 -0.1438 -0.6745  0.0941
   43DOPE  C213 5482   2.080   3.199  13.789  0.3206  0.2296 -0.7084
   43DOPE  H13R 5483   2.115   3.100  13.752 -1.1758 -0.3153 -0.7523
   43DOPE  H13S 5484   1.974   3.205  13.754 -0.5187 -2.6128  0.9927
   43DOPE  C214 5485   2.107   3.224  13.934  0.1749  0.1417 -0.1940
   43DOPE  H14R 5486   2.103   3.333  13.954 -1.7267  0.2238 -0.7631
   43DOPE  H14S 5487   2.209   3.198  13.969  1.2479  1.3672 -2.2063
   43DOPE  C215 5488   1.996   3.154  14.015  0.0900  0.2311 -0.0538
   43DOPE  H15R 5489   1.944   3.074  13.959  1.5159 -0.7942  0.0193
   43DOPE  H15S 5490   1.922   3.233  14.041 -0.1861 -0.2858  0.7454
   43DOPE  C216 5491   2.053   3.106  14.148 -0.4436  0.2245  0.2536
   43DOPE  H16R 5492   2.135   3.033  14.130  1.3960  2.0974  0.6758
   43DOPE  H16S 5493   1.978   3.050  14.208 -0.4779 -0.3034 -0.2632
   43DOPE  C217 5494   2.092   3.216  14.241 -0.1617  0.0139  0.6230
   43DOPE  H17R 5495   2.022   3.300  14.226  0.0558  0.4178  1.7545
   43DOPE  H17S 5496   2.188   3.253  14.198 -0.4258  1.5245  1.2825
   43DOPE  C218 5497   2.087   3.172  14.386 -0.3290 -0.1212  0.2388
   43DOPE  H18R 5498   1.986   3.132  14.410 -0.7423  1.1802  0.7550
   43DOPE  H18S 5499   2.101   3.259  14.453 -0.5182 -0.2701  0.4732
   43DOPE  H18T 5500   2.168   3.100  14.410 -2.2189 -1.8643  1.8806
   43DOPE   C33 5501   1.943   3.484  12.904  0.4402 -0.2611 -0.3446
   43DOPE   H3X 5502   2.045   3.524  12.925 -0.0677  0.2385  1.3515
   43DOPE   H3Y 5503   1.954   3.378  12.935 -0.7655  0.0844  1.4156
   43DOPE   C34 5504   1.855   3.555  13.011 -0.6167 -0.0720 -0.2175
   43DOPE   H4X 5505   1.837   3.661  12.985  0.5058  1.4015  4.1164
   43DOPE   H4Y 5506   1.757   3.503  13.015 -1.1259  0.8919  0.1604
   43DOPE   C35 5507   1.917   3.541  13.151  0.2265  0.8907  0.2638
   43DOPE   H5X 5508   2.011   3.600  13.161  1.0890 -0.5344  0.7625
   43DOPE   H5Y 5509   1.924   3.434  13.179 -2.6121  0.2158 -1.2428
   43DOPE   C36 5510   1.819   3.594  13.257 -0.1537 -0.2888 -0.5069
   43DOPE   H6X 5511   1.718   3.547  13.259  0.8989 -2.8734 -2.4868
   43DOPE   H6Y 5512   1.794   3.698  13.227  0.5942  0.0538  0.0214
   43DOPE   C37 5513   1.881   3.580  13.396 -0.0934 -0.3998  0.4061
   43DOPE   H7X 5514   1.905   3.476  13.428  2.6486 -1.2720 -3.7839
   43DOPE   H7Y 5515   1.982   3.624  13.383 -0.2853 -0.1056 -0.1121
   43DOPE   C38 5516   1.828   3.673  13.499  0.3151  0.4667 -0.1502
   43DOPE   H8X 5517   1.814   3.772  13.451  1.1189  1.0627  0.7977
   43DOPE   H8Y 5518   1.900   3.684  13.583 -1.1571  0.4538  1.1686
   43DOPE   C39 5519   1.698   3.605  13.539 -0.2833  1.0470 -0.4273
   43DOPE   H9X 5520   1.625   3.594  13.457  0.4200 -2.1258 -0.7516
   43DOPE  C310 5521   1.654   3.578  13.661 -0.4466 -0.4461 -0.3375
   43DOPE  H10X 5522   1.565   3.519  13.684 -0.0608 -0.7095  0.5640
   43DOPE  C311 5523   1.713   3.615  13.795  0.3505  0.2441 -0.0299
   43DOPE  H11X 5524   1.756   3.717  13.785  0.0043  0.3293 -0.6670
   43DOPE  H11Y 5525   1.632   3.646  13.864  1.0668 -0.9316  1.3904
   43DOPE  C312 5526   1.801   3.517  13.866  0.5082 -0.4508 -0.2796
   43DOPE  H12X 5527   1.880   3.464  13.808  0.1292 -1.2790 -0.0554
   43DOPE  H12Y 5528   1.735   3.441  13.912 -1.0128 -0.6471 -2.6277
   43DOPE  C313 5529   1.886   3.590  13.972 -0.1297 -0.0288  0.2416
   43DOPE  H13X 5530   1.926   3.505  14.033  1.6820 -0.2026 -1.1075
   43DOPE  H13Y 5531   1.974   3.644  13.930 -0.4164  0.9140  0.8371
   43DOPE  C314 5532   1.806   3.689  14.061 -0.5596 -0.2645  0.4348
   43DOPE  H14X 5533   1.723   3.633  14.109 -2.6518  3.4014  1.4705
   43DOPE  H14Y 5534   1.758   3.764  13.995  3.0284  2.0019  0.1204
   43DOPE  C315 5535   1.907   3.774  14.159 -0.1924 -0.1388  0.2132
   43DOPE  H15X 5536   1.998   3.806  14.104  0.3053 -0.6734  0.7116
   43DOPE  H15Y 5537   1.941   3.704  14.238  2.6529 -1.2722 -1.8441
   43DOPE  C316 5538   1.832   3.904  14.208  0.1794  0.3354  0.1242
   43DOPE  H16X 5539   1.733   3.877  14.250  0.4842  1.2480  1.4977
   43DOPE  H16Y 5540   1.810   3.969  14.120  2.3508 -0.0426 -0.7422
   43DOPE  C317 5541   1.919   3.971  14.309  0.0310  0.2165 -0.5793
   43DOPE  H17X 5542   1.947   3.887  14.377  1.2814  3.1176  2.7915
   43DOPE  H17Y 5543   2.012   4.005  14.260  0.5102 -2.1377 -1.4577
   43DOPE  C318 5544   1.847   4.081  14.392 -0.5233  0.6764 -0.4542
   43DOPE  H18X 5545   1.808   4.151  14.315  1.1792  0.7006 -1.3509
   43DOPE  H18Y 5546   1.757   4.042  14.444  0.4324 -1.3169 -0.1826
   43DOPE  H18Z 5547   1.909   4.140  14.462 -0.3558  0.4507 -0.4091
   44DOPE     N 5548   3.112   3.384  11.799  0.0060  0.0748 -0.0045
   44DOPE   HN1 5549   3.206   3.384  11.753  1.4323 -0.8295  2.6457
   44DOPE   HN2 5550   3.057   3.300  11.776 -0.5607  0.6320 -0.7174
   44DOPE   HN3 5551   3.060   3.472  11.778  2.4744  1.5760 -0.3297
   44DOPE   C12 5552   3.122   3.387  11.951 -0.1935 -0.2236  0.6029
   44DOPE  H12A 5553   3.110   3.281  11.982 -0.6349 -0.0508  1.0333
   44DOPE  H12B 5554   3.046   3.457  11.991 -0.9323 -0.4200 -0.4137
   44DOPE   C11 5555   3.260   3.446  12.001 -0.5001 -0.0400  0.0533
   44DOPE  H11A 5556   3.246   3.454  12.111  0.7277 -0.4200  0.2520
   44DOPE  H11B 5557   3.273   3.549  11.961  0.9282 -0.6603 -1.1813
   44DOPE     P 5558   3.440   3.259  12.048 -0.0747 -0.3250  0.2904
   44DOPE   O13 5559   3.590   3.277  12.029  0.4464  0.2157 -0.2880
   44DOPE   O14 5560   3.392   3.121  12.035  0.3451  0.3280  0.2439
   44DOPE   O11 5561   3.407   3.316  12.197 -0.0776  0.7209 -0.3369
   44DOPE   O12 5562   3.367   3.357  11.955 -0.4983  0.0256  0.4543
   44DOPE    C1 5563   3.508   3.314  12.302 -0.0926  0.0008  0.5602
   44DOPE    HA 5564   3.451   3.345  12.392 -0.8471  0.8373 -0.1984
   44DOPE    HB 5565   3.587   3.388  12.277 -1.7510  1.2841 -1.1158
   44DOPE    C2 5566   3.589   3.182  12.337 -0.5974  0.9381 -0.3335
   44DOPE    HS 5567   3.637   3.152  12.242  2.3394  1.8708  0.7345
   44DOPE   O21 5568   3.499   3.081  12.392 -0.2408  0.1836  0.2987
   44DOPE   C21 5569   3.538   2.955  12.392  0.5045 -0.4460  0.4868
   44DOPE   O22 5570   3.618   2.907  12.316  0.6110  0.2314  0.2983
   44DOPE   C22 5571   3.477   2.882  12.514 -0.3824 -1.1585  0.5287
   44DOPE   H2R 5572   3.374   2.850  12.487 -0.7333 -0.5170  1.0811
   44DOPE   H2S 5573   3.467   2.965  12.587  0.8295 -0.0030 -0.5759
   44DOPE    C3 5574   3.712   3.218  12.433 -0.6289  0.0906 -0.0838
   44DOPE    HX 5575   3.771   3.294  12.378 -0.1195 -1.0678 -1.1960
   44DOPE    HY 5576   3.772   3.124  12.439 -1.7224 -0.5748  0.7409
   44DOPE   O31 5577   3.674   3.275  12.559  0.8700  0.2484  0.1096
   44DOPE   C31 5578   3.662   3.191  12.664 -0.2401 -0.8665  0.1001
   44DOPE   O32 5579   3.699   3.073  12.666 -0.4908 -0.0694  0.5856
   44DOPE   C32 5580   3.635   3.268  12.793 -0.0114  0.6152 -0.2344
   44DOPE   H2X 5581   3.703   3.355  12.807  0.1269  0.5258 -0.3458
   44DOPE   H2Y 5582   3.538   3.320  12.782  0.4322  1.6016  0.3259
   44DOPE   C23 5583   3.572   2.784  12.576 -0.2240  0.0940  0.9592
   44DOPE   H3R 5584   3.665   2.837  12.606  0.6036 -0.3766 -0.6763
   44DOPE   H3S 5585   3.617   2.708  12.509  0.3564  2.2762 -1.2880
   44DOPE   C24 5586   3.501   2.710  12.694 -0.3184  0.2633  0.2133
   44DOPE   H4R 5587   3.446   2.620  12.658  0.1045 -1.2467  3.0775
   44DOPE   H4S 5588   3.424   2.775  12.741  0.4872 -0.4315  2.6175
   44DOPE   C25 5589   3.599   2.689  12.804 -0.0156 -0.3019 -0.0885
   44DOPE   H5R 5590   3.651   2.774  12.854  0.4495 -1.2476  1.0841
   44DOPE   H5S 5591   3.680   2.627  12.758  0.0277 -1.8970  1.9780
   44DOPE   C26 5592   3.531   2.614  12.925  0.0489 -0.8121  0.0931
   44DOPE   H6R 5593   3.602   2.550  12.980  1.8366 -0.4202 -1.6367
   44DOPE   H6S 5594   3.453   2.544  12.888  0.6505 -1.2739 -0.3092
   44DOPE   C27 5595   3.462   2.724  13.017 -0.2682 -0.1234 -0.4404
   44DOPE   H7R 5596   3.380   2.759  12.951 -0.6098  0.3134  0.1974
   44DOPE   H7S 5597   3.526   2.815  13.016 -0.5094  0.0667  0.2913
   44DOPE   C28 5598   3.422   2.678  13.158 -0.4737  0.2287  0.6372
   44DOPE   H8R 5599   3.380   2.762  13.217  2.5688  1.7269  0.8356
   44DOPE   H8S 5600   3.513   2.636  13.207 -1.5889 -2.0313  0.9118
   44DOPE   C29 5601   3.312   2.565  13.133 -0.3389 -0.1424 -0.4981
   44DOPE   H9R 5602   3.265   2.564  13.033 -1.6146 -1.3892  0.0968
   44DOPE  C210 5603   3.275   2.475  13.228 -0.6565 -0.1748  0.2351
   44DOPE  H10R 5604   3.207   2.391  13.207 -1.4481  0.8110 -1.3486
   44DOPE  C211 5605   3.327   2.486  13.369  0.1525  0.0035 -0.1696
   44DOPE  H11R 5606   3.398   2.571  13.384 -1.9766  1.9575 -0.6179
   44DOPE  H11S 5607   3.379   2.390  13.388 -0.0901 -0.2865 -0.9445
   44DOPE  C212 5608   3.216   2.505  13.473  0.6549  0.3370  0.2548
   44DOPE  H12R 5609   3.143   2.420  13.470  1.9098 -0.7577 -0.2093
   44DOPE  H12S 5610   3.156   2.593  13.442  1.2506  0.9653  0.8778
   44DOPE  C213 5611   3.280   2.531  13.612 -0.5680  1.1730  0.1505
   44DOPE  H13R 5612   3.332   2.629  13.602 -1.6599  1.8102  0.4761
   44DOPE  H13S 5613   3.351   2.452  13.643 -1.0615  1.1339  1.2260
   44DOPE  C214 5614   3.183   2.556  13.726 -0.6318 -0.0711  0.1471
   44DOPE  H14R 5615   3.142   2.455  13.749  1.3734 -0.7548  0.9270
   44DOPE  H14S 5616   3.101   2.625  13.695  0.1505  1.0998  0.6426
   44DOPE  C215 5617   3.240   2.627  13.854  0.7413 -0.2011 -0.5450
   44DOPE  H15R 5618   3.159   2.648  13.927  1.5317 -0.5828  0.4707
   44DOPE  H15S 5619   3.284   2.725  13.825 -1.3881  0.8437 -0.4175
   44DOPE  C216 5620   3.357   2.546  13.916 -0.4861  0.0541  0.7124
   44DOPE  H16R 5621   3.437   2.539  13.838 -0.3687  0.9294  0.7418
   44DOPE  H16S 5622   3.320   2.447  13.949  1.8711 -0.8606  0.8279
   44DOPE  C217 5623   3.424   2.620  14.029  0.1479 -0.2432 -0.1488
   44DOPE  H17R 5624   3.351   2.627  14.113 -1.1049 -1.0177 -1.1240
   44DOPE  H17S 5625   3.460   2.718  13.991  1.4153  0.2758  2.2016
   44DOPE  C218 5626   3.545   2.545  14.071 -0.0614 -0.7051  0.3214
   44DOPE  H18R 5627   3.625   2.539  13.994 -1.0816  2.1380 -1.1094
   44DOPE  H18S 5628   3.510   2.443  14.098 -2.4419  0.5063  2.2986
   44DOPE  H18T 5629   3.587   2.600  14.158 -2.0103  1.3547  0.0704
   44DOPE   C33 5630   3.644   3.183  12.923  0.1135 -0.5343 -0.4334
   44DOPE   H3X 5631   3.745   3.137  12.924  0.3051 -0.1162 -0.2525
   44DOPE   H3Y 5632   3.561   3.110  12.916 -0.8724  0.4607  0.4783
   44DOPE   C34 5633   3.624   3.266  13.044 -0.7026 -0.0401 -0.3191
   44DOPE   H4X 5634   3.710   3.335  13.050 -0.3856 -0.4634  0.0175
   44DOPE   H4Y 5635   3.534   3.332  13.046 -1.1649 -0.6500 -0.7588
   44DOPE   C35 5636   3.631   3.164  13.165  0.4708 -1.1236 -0.5232
   44DOPE   H5X 5637   3.727   3.112  13.143  2.4358  2.9245 -2.6778
   44DOPE   H5Y 5638   3.547   3.092  13.160  0.0086 -0.5601 -1.0010
   44DOPE   C36 5639   3.640   3.236  13.300  0.2928  0.6246 -1.0936
   44DOPE   H6X 5640   3.566   3.319  13.303  1.3315  1.7123 -3.1756
   44DOPE   H6Y 5641   3.739   3.286  13.305 -0.1312  1.4715 -0.9912
   44DOPE   C37 5642   3.641   3.133  13.425  0.1507  0.1449  0.1781
   44DOPE   H7X 5643   3.699   3.042  13.397 -0.2530 -1.1182  3.1487
   44DOPE   H7Y 5644   3.679   3.185  13.515 -1.0037  1.1246  0.1207
   44DOPE   C38 5645   3.496   3.090  13.460 -0.0265  0.5381 -0.0875
   44DOPE   H8X 5646   3.456   3.045  13.366  1.1707  0.5665 -0.6316
   44DOPE   H8Y 5647   3.433   3.177  13.487 -0.0900  1.0473 -1.7281
   44DOPE   C39 5648   3.496   2.974  13.557 -0.2160 -0.6378 -0.5628
   44DOPE   H9X 5649   3.457   2.880  13.514 -0.7096 -0.8780  0.3804
   44DOPE  C310 5650   3.515   2.987  13.690  0.3093  0.1389  0.1351
   44DOPE  H10X 5651   3.500   2.892  13.744 -0.7877 -0.8281 -1.7628
   44DOPE  C311 5652   3.548   3.108  13.771  0.1674 -0.2460 -0.2257
   44DOPE  H11X 5653   3.573   3.190  13.701 -3.0770 -0.5140 -1.8960
   44DOPE  H11Y 5654   3.451   3.144  13.813 -1.0594 -0.3985 -2.7299
   44DOPE  C312 5655   3.653   3.101  13.876  0.5734  0.0624 -0.2959
   44DOPE  H12X 5656   3.667   3.200  13.925  2.1190 -0.4361  0.3351
   44DOPE  H12Y 5657   3.748   3.077  13.823 -0.0927 -3.8524 -0.0226
   44DOPE  C313 5658   3.631   3.004  14.000  0.4307 -0.4026 -0.3137
   44DOPE  H13X 5659   3.625   2.898  13.967  2.8999 -0.2352 -1.5756
   44DOPE  H13Y 5660   3.723   3.015  14.061  0.0379  1.6473 -0.0180
   44DOPE  C314 5661   3.519   3.050  14.102 -0.1993  0.0422  0.0719
   44DOPE  H14X 5662   3.423   3.027  14.051 -0.4236  2.1414 -0.5417
   44DOPE  H14Y 5663   3.532   3.159  14.120 -1.0817 -0.1937  2.3571
   44DOPE  C315 5664   3.526   2.977  14.240 -0.2217  0.1187  0.1731
   44DOPE  H15X 5665   3.622   3.002  14.289  0.6155 -2.3481 -0.1039
   44DOPE  H15Y 5666   3.511   2.869  14.220  0.7227  0.5618 -3.7386
   44DOPE  C316 5667   3.403   3.008  14.329 -0.7901 -0.3532  0.3011
   44DOPE  H16X 5668   3.409   2.941  14.417 -1.0903 -2.2237 -1.0327
   44DOPE  H16Y 5669   3.308   2.983  14.276 -0.1758  0.2047 -1.1138
   44DOPE  C317 5670   3.386   3.156  14.375  0.4641 -0.6996 -0.2121
   44DOPE  H17X 5671   3.482   3.181  14.426 -0.8778  0.5720  1.8241
   44DOPE  H17Y 5672   3.381   3.220  14.284  1.4676  1.0081  0.8866
   44DOPE  C318 5673   3.265   3.180  14.459 -0.7216 -0.2999  0.5335
   44DOPE  H18X 5674   3.172   3.146  14.408 -1.5280  0.3124  1.5473
   44DOPE  H18Y 5675   3.270   3.125  14.556  0.2251 -0.4336  0.4162
   44DOPE  H18Z 5676   3.256   3.291  14.467 -1.6479 -0.3749  0.6737
   45DOPE     N 5677   3.753   1.268  12.035 -0.5853 -0.0112  0.0392
   45DOPE   HN1 5678   3.655   1.280  12.067 -0.2440  1.9390  0.4485
   45DOPE   HN2 5679   3.751   1.227  11.939 -0.6795 -0.5843  0.2799
   45DOPE   HN3 5680   3.805   1.208  12.103 -0.5476 -0.2312 -0.1804
   45DOPE   C12 5681   3.810   1.406  12.044  0.3557  0.3655  0.4799
   45DOPE  H12A 5682   3.908   1.400  11.991  0.8591  0.8520  1.3362
   45DOPE  H12B 5683   3.823   1.427  12.152  2.2420 -0.5193  0.4785
   45DOPE   C11 5684   3.726   1.505  11.955  0.3737 -0.0337 -0.4627
   45DOPE  H11A 5685   3.801   1.582  11.925  0.3331  0.5135  0.7536
   45DOPE  H11B 5686   3.647   1.555  12.014 -0.2109 -0.8139 -0.5620
   45DOPE     P 5687   3.532   1.482  11.759 -0.1986 -0.0844 -0.0460
   45DOPE   O13 5688   3.506   1.383  11.652  0.1281  0.1793  0.2592
   45DOPE   O14 5689   3.539   1.621  11.710 -0.0301 -0.1635  0.5785
   45DOPE   O11 5690   3.425   1.470  11.873 -0.3844 -0.0761  0.0022
   45DOPE   O12 5691   3.664   1.437  11.840 -0.1547 -0.0960  0.1140
   45DOPE    C1 5692   3.364   1.343  11.907 -0.6795  0.3470  0.4336
   45DOPE    HA 5693   3.447   1.269  11.915 -0.8990 -0.1423 -1.3061
   45DOPE    HB 5694   3.302   1.302  11.824  1.3793  1.1780 -1.6247
   45DOPE    C2 5695   3.272   1.353  12.034 -0.7832 -0.3966  0.3226
   45DOPE    HS 5696   3.183   1.400  11.988  0.2076  2.1221  0.8366
   45DOPE   O21 5697   3.332   1.438  12.126 -0.1786  0.1266  0.0795
   45DOPE   C21 5698   3.441   1.387  12.182  0.3379  0.2056  0.1135
   45DOPE   O22 5699   3.500   1.285  12.147  0.5295 -0.1097 -0.0022
   45DOPE   C22 5700   3.490   1.472  12.301 -1.0341  0.4710  0.1760
   45DOPE   H2R 5701   3.400   1.492  12.362 -1.0582 -1.2696  0.7662
   45DOPE   H2S 5702   3.542   1.565  12.269 -0.1888 -0.4879 -1.3981
   45DOPE    C3 5703   3.220   1.221  12.092  0.5389 -0.0493 -0.6539
   45DOPE    HX 5704   3.298   1.145  12.071  1.9847  0.9151  0.9700
   45DOPE    HY 5705   3.122   1.200  12.045  0.5133 -0.3091 -0.4933
   45DOPE   O31 5706   3.193   1.213  12.234  0.3272 -0.3241  0.2784
   45DOPE   C31 5707   3.089   1.279  12.283  0.4085  0.4004  0.1760
   45DOPE   O32 5708   3.013   1.350  12.223 -0.3371 -0.2724  0.4074
   45DOPE   C32 5709   3.075   1.248  12.433  0.4887 -0.0475  0.5236
   45DOPE   H2X 5710   2.964   1.255  12.443  0.6157  4.0152  0.5930
   45DOPE   H2Y 5711   3.099   1.144  12.463 -0.2895  0.0398  1.5426
   45DOPE   C23 5712   3.580   1.374  12.386 -0.2359 -0.6941 -0.7131
   45DOPE   H3R 5713   3.670   1.351  12.326  0.5010  2.6599 -1.0884
   45DOPE   H3S 5714   3.527   1.281  12.416 -0.0269  0.0589  2.3626
   45DOPE   C24 5715   3.625   1.446  12.510  0.1816  0.4537 -0.2695
   45DOPE   H4R 5716   3.556   1.451  12.596 -0.1937 -0.2928 -0.5197
   45DOPE   H4S 5717   3.643   1.554  12.489 -0.4131  0.2733 -1.8753
   45DOPE   C25 5718   3.761   1.387  12.552  0.0918  0.5463 -0.4307
   45DOPE   H5R 5719   3.835   1.395  12.470  0.2001 -1.1790 -0.5401
   45DOPE   H5S 5720   3.763   1.277  12.564  1.9264  0.6169  0.1329
   45DOPE   C26 5721   3.819   1.461  12.677  0.6501 -0.0884 -0.0476
   45DOPE   H6R 5722   3.789   1.568  12.677  0.8855 -0.0220 -0.2258
   45DOPE   H6S 5723   3.930   1.457  12.670  0.6905  2.2785 -2.2231
   45DOPE   C27 5724   3.771   1.400  12.814  0.5319  0.6515  1.1270
   45DOPE   H7R 5725   3.822   1.302  12.808 -0.6755 -0.0359  1.6210
   45DOPE   H7S 5726   3.662   1.376  12.815  0.5989  0.1113 -0.8170
   45DOPE   C28 5727   3.806   1.481  12.942 -0.2616  0.4994  0.3708
   45DOPE   H8R 5728   3.735   1.437  13.015  0.4424 -2.3619 -0.5419
   45DOPE   H8S 5729   3.790   1.590  12.922 -1.3359  0.2637 -0.1287
   45DOPE   C29 5730   3.946   1.467  12.983 -0.0494  0.5696  0.4772
   45DOPE   H9R 5731   4.018   1.440  12.904 -0.5618 -3.8777  1.2757
   45DOPE  C210 5732   3.997   1.470  13.111 -0.9767  0.1501  0.2747
   45DOPE  H10R 5733   4.103   1.495  13.127 -0.9626 -1.3236  3.3912
   45DOPE  C211 5734   3.926   1.484  13.239 -0.1521 -0.1104 -0.2489
   45DOPE  H11R 5735   3.821   1.449  13.233 -0.1492 -0.6104  1.8254
   45DOPE  H11S 5736   3.920   1.589  13.276  1.3179  0.2618 -0.9975
   45DOPE  C212 5737   3.988   1.399  13.351 -0.1894  0.0460  0.5065
   45DOPE  H12R 5738   4.099   1.398  13.341 -0.2236  0.7428  0.0094
   45DOPE  H12S 5739   3.945   1.297  13.345 -0.5522  0.2662 -0.9562
   45DOPE  C213 5740   3.965   1.460  13.489  0.2339 -0.2468  1.0311
   45DOPE  H13R 5741   3.855   1.467  13.492  0.3000  2.9002  0.2906
   45DOPE  H13S 5742   4.010   1.562  13.488 -0.8595  0.2973 -2.0435
   45DOPE  C214 5743   4.033   1.383  13.598 -0.2284  0.0573  0.7032
   45DOPE  H14R 5744   4.068   1.452  13.678  0.2754 -1.0348  1.4476
   45DOPE  H14S 5745   4.125   1.333  13.562 -1.1840 -2.2879  1.2780
   45DOPE  C215 5746   3.942   1.277  13.660 -0.0736  0.6851 -0.1357
   45DOPE  H15R 5747   3.945   1.176  13.614  0.4932 -0.5134  2.3517
   45DOPE  H15S 5748   3.837   1.314  13.652  0.3290  1.9805  0.2043
   45DOPE  C216 5749   3.953   1.265  13.816 -0.1979  0.9751 -0.1118
   45DOPE  H16R 5750   3.938   1.369  13.852 -2.4087  0.9029 -0.6221
   45DOPE  H16S 5751   4.051   1.223  13.843 -0.3548  0.2967 -0.5816
   45DOPE  C217 5752   3.849   1.167  13.879  0.0118 -0.3351 -0.4176
   45DOPE  H17R 5753   3.831   1.090  13.801  1.6081 -1.9121  0.7119
   45DOPE  H17S 5754   3.753   1.218  13.902  0.3683  0.4174 -0.5367
   45DOPE  C218 5755   3.899   1.095  14.009 -0.2234  0.1520  0.1460
   45DOPE  H18R 5756   3.992   1.039  13.987 -0.6092 -0.0055 -1.1448
   45DOPE  H18S 5757   3.825   1.026  14.056  0.0559 -0.1460  0.1497
   45DOPE  H18T 5758   3.933   1.174  14.080 -2.9868  0.0863  1.6982
   45DOPE   C33 5759   3.142   1.355  12.529 -0.9087  0.2092  0.2012
   45DOPE   H3X 5760   3.139   1.455  12.481  0.2354 -0.8751 -2.3093
   45DOPE   H3Y 5761   3.251   1.333  12.536 -0.4254  2.7798  2.9223
   45DOPE   C34 5762   3.082   1.362  12.668  0.0524 -0.1451  0.5965
   45DOPE   H4X 5763   2.971   1.363  12.662  0.0151 -2.6057 -0.4629
   45DOPE   H4Y 5764   3.111   1.283  12.741 -1.1084  0.3660  1.6475
   45DOPE   C35 5765   3.117   1.489  12.748  0.1294  0.4692  0.5295
   45DOPE   H5X 5766   3.072   1.578  12.698  1.9150  0.9193 -0.3399
   45DOPE   H5Y 5767   3.227   1.501  12.747  0.2537 -0.5907 -0.5395
   45DOPE   C36 5768   3.070   1.481  12.897 -0.9816 -0.6715 -0.0262
   45DOPE   H6X 5769   3.116   1.399  12.955 -0.4983 -0.6424 -0.3566
   45DOPE   H6Y 5770   2.962   1.455  12.901 -0.9092 -0.7571  1.8418
   45DOPE   C37 5771   3.090   1.617  12.964  0.2137  0.4476 -0.8012
   45DOPE   H7X 5772   3.194   1.628  13.000  0.4344  1.7712 -1.7784
   45DOPE   H7Y 5773   3.050   1.695  12.896 -1.3177  2.2729  2.0157
   45DOPE   C38 5774   2.995   1.643  13.085  0.0515  0.2313  0.4502
   45DOPE   H8X 5775   2.889   1.627  13.056  0.7446  0.8430 -2.8162
   45DOPE   H8Y 5776   3.008   1.751  13.105  0.7275  0.1394  0.5123
   45DOPE   C39 5777   3.039   1.571  13.213 -0.6024  0.2603 -0.5974
   45DOPE   H9X 5778   3.059   1.464  13.200 -2.4332 -0.1876 -0.0936
   45DOPE  C310 5779   3.056   1.617  13.338  0.1464 -0.1158  0.1993
   45DOPE  H10X 5780   3.108   1.543  13.401  1.2358 -0.6052 -1.2205
   45DOPE  C311 5781   3.029   1.755  13.391 -0.5042 -0.4120  0.3111
   45DOPE  H11X 5782   3.119   1.815  13.365 -0.3671 -1.2067 -1.1746
   45DOPE  H11Y 5783   2.951   1.817  13.341  0.0862  1.9998  2.1893
   45DOPE  C312 5784   3.010   1.749  13.548  1.0168  0.4585 -0.1046
   45DOPE  H12X 5785   2.985   1.846  13.597  1.3267  0.2579  0.4586
   45DOPE  H12Y 5786   3.103   1.709  13.592 -0.2676  0.4491  2.8601
   45DOPE  C313 5787   2.909   1.651  13.608 -0.2913  0.1067  0.5614
   45DOPE  H13X 5788   2.828   1.634  13.534  1.3525 -1.5582 -0.9648
   45DOPE  H13Y 5789   2.964   1.557  13.631  0.7044  0.8016  1.0889
   45DOPE  C314 5790   2.864   1.704  13.744  0.4257 -0.7644 -0.6310
   45DOPE  H14X 5791   2.804   1.622  13.788 -1.0485 -0.7648 -2.5259
   45DOPE  H14Y 5792   2.790   1.786  13.751  1.4950  0.0875  2.4693
   45DOPE  C315 5793   2.978   1.743  13.845  0.1239 -0.6486  1.1016
   45DOPE  H15X 5794   3.065   1.787  13.792  0.7013 -0.9092  1.8266
   45DOPE  H15Y 5795   3.025   1.651  13.885  0.5328 -1.1187 -0.3943
   45DOPE  C316 5796   2.931   1.850  13.947 -0.0551  0.5510  0.7023
   45DOPE  H16X 5797   2.880   1.926  13.883 -1.0356 -1.1008 -0.5619
   45DOPE  H16Y 5798   3.020   1.894  13.997  1.0967 -1.8510  0.8912
   45DOPE  C317 5799   2.825   1.811  14.054 -0.4798  0.2603  0.0229
   45DOPE  H17X 5800   2.809   1.896  14.124 -1.7779  1.0123 -1.1336
   45DOPE  H17Y 5801   2.724   1.796  14.010 -1.0997  1.2140  1.0612
   45DOPE  C318 5802   2.873   1.698  14.150 -0.5612  0.3073 -0.3839
   45DOPE  H18X 5803   2.945   1.735  14.226 -0.4576 -0.0632 -0.3010
   45DOPE  H18Y 5804   2.790   1.647  14.203  0.0687  0.1110  0.4350
   45DOPE  H18Z 5805   2.916   1.616  14.089 -0.1255  0.6988 -0.6116
   46DOPE     N 5806   3.826   0.260  11.989 -0.6779 -0.6264  0.2322
   46DOPE   HN1 5807   3.801   0.301  12.081  1.4101  0.4404  0.3869
   46DOPE   HN2 5808   3.923   0.285  11.959 -0.1302 -0.8905  1.7073
   46DOPE   HN3 5809   3.759   0.289  11.915 -0.8106 -3.3755 -0.8585
   46DOPE   C12 5810   3.819   0.113  11.987  0.7972  0.2371 -0.0190
   46DOPE  H12A 5811   3.914   0.068  12.024 -0.7778 -2.7704  0.7494
   46DOPE  H12B 5812   3.814   0.092  11.878 -1.9930 -2.4233  0.4764
   46DOPE   C11 5813   3.694   0.059  12.061  0.0345  0.3818  0.2854
   46DOPE  H11A 5814   3.715   0.075  12.169  0.2718 -0.8275  0.4267
   46DOPE  H11B 5815   3.672  -0.047  12.039 -1.4200  1.0480 -1.7434
   46DOPE     P 5816   3.455   0.082  11.951  0.0192 -0.1313 -0.0105
   46DOPE   O13 5817   3.509   0.044  11.813  0.0998  0.2605 -0.2982
   46DOPE   O14 5818   3.343   0.183  11.951 -0.1047  0.2345  0.6295
   46DOPE   O11 5819   3.415  -0.040  12.044 -0.0472 -0.3580  0.0866
   46DOPE   O12 5820   3.579   0.139  12.023 -0.7663 -0.2709 -0.8094
   46DOPE    C1 5821   3.279  -0.091  12.049 -0.4076  0.2510 -0.1586
   46DOPE    HA 5822   3.289  -0.190  11.999  1.6253  1.1004 -1.5422
   46DOPE    HB 5823   3.216  -0.030  11.981  0.1371  0.0670 -0.8408
   46DOPE    C2 5824   3.217  -0.101  12.194 -0.0234  0.6713  0.6145
   46DOPE    HS 5825   3.196   0.002  12.229 -1.5239  0.6599 -0.1969
   46DOPE   O21 5826   3.303  -0.169  12.290  1.0093  0.1540  0.3165
   46DOPE   C21 5827   3.310  -0.120  12.412 -0.0125 -0.9166  0.6795
   46DOPE   O22 5828   3.246  -0.023  12.448 -0.3171 -0.1433  0.3832
   46DOPE   C22 5829   3.409  -0.198  12.493 -0.2163 -0.3443  0.2196
   46DOPE   H2R 5830   3.475  -0.256  12.425 -1.4270  1.6772 -2.9228
   46DOPE   H2S 5831   3.346  -0.270  12.549 -1.0037 -0.8988 -1.3273
   46DOPE    C3 5832   3.074  -0.177  12.181  0.0311 -0.3962  0.3819
   46DOPE    HX 5833   3.085  -0.276  12.134 -2.0731 -0.4991  0.0405
   46DOPE    HY 5834   3.019  -0.105  12.117  0.6962 -0.7330 -0.5799
   46DOPE   O31 5835   3.005  -0.176  12.312 -0.0156 -0.4914  0.1436
   46DOPE   C31 5836   3.042  -0.273  12.396  0.5717 -0.8760 -0.7923
   46DOPE   O32 5837   3.125  -0.354  12.368  0.2601 -0.0090 -0.6001
   46DOPE   C32 5838   2.974  -0.265  12.533  0.4649  0.0335  0.7282
   46DOPE   H2X 5839   2.986  -0.158  12.563  3.1307  0.8012 -2.5394
   46DOPE   H2Y 5840   2.870  -0.286  12.500  0.3967  0.0328  0.9411
   46DOPE   C23 5841   3.504  -0.106  12.579 -0.1186 -0.4062  0.0215
   46DOPE   H3R 5842   3.563  -0.042  12.510 -2.4085  1.1235 -0.6659
   46DOPE   H3S 5843   3.575  -0.172  12.632  1.8760  1.3183 -0.3909
   46DOPE   C24 5844   3.439  -0.036  12.696  0.5245  0.9251 -0.1754
   46DOPE   H4R 5845   3.348   0.015  12.657 -0.3407 -0.2331  0.2383
   46DOPE   H4S 5846   3.510   0.033  12.747 -0.8025  2.3695 -0.1917
   46DOPE   C25 5847   3.389  -0.147  12.802  0.1876 -0.1017  0.2707
   46DOPE   H5R 5848   3.473  -0.217  12.824  1.1425  1.4042  1.6145
   46DOPE   H5S 5849   3.301  -0.201  12.761  0.3436 -0.9090  0.9588
   46DOPE   C26 5850   3.335  -0.092  12.932  0.5943  0.8229 -0.8697
   46DOPE   H6R 5851   3.277  -0.004  12.896  0.9135  1.3323 -0.1686
   46DOPE   H6S 5852   3.419  -0.051  12.991  1.4866 -0.3954 -1.2516
   46DOPE   C27 5853   3.244  -0.174  13.018 -0.2113 -0.5588  0.2618
   46DOPE   H7R 5854   3.290  -0.271  13.045 -1.0328 -1.6478 -2.0306
   46DOPE   H7S 5855   3.159  -0.186  12.948 -0.3235  0.2843  0.2432
   46DOPE   C28 5856   3.194  -0.094  13.144  0.0299 -0.2082 -0.3530
   46DOPE   H8R 5857   3.135  -0.007  13.108 -0.3420 -0.6989 -0.9608
   46DOPE   H8S 5858   3.283  -0.048  13.192 -0.6583  0.0530  0.7037
   46DOPE   C29 5859   3.095  -0.181  13.225  0.5669 -0.0234  0.9802
   46DOPE   H9R 5860   2.995  -0.185  13.180  0.4757  0.6980  1.1017
   46DOPE  C210 5861   3.117  -0.249  13.336 -0.4636  0.1377 -0.1106
   46DOPE  H10R 5862   3.038  -0.309  13.384 -0.9385  2.0402  1.6002
   46DOPE  C211 5863   3.247  -0.249  13.406  0.2210  0.2509  0.5250
   46DOPE  H11R 5864   3.321  -0.213  13.332 -0.4050  0.7342  0.1263
   46DOPE  H11S 5865   3.277  -0.353  13.428  2.3627  1.1275  2.1262
   46DOPE  C212 5866   3.269  -0.152  13.525 -0.5878  0.5602 -0.1316
   46DOPE  H12R 5867   3.365  -0.198  13.557 -0.3956  1.2817  0.3542
   46DOPE  H12S 5868   3.194  -0.164  13.606  0.2531 -0.9472  0.4765
   46DOPE  C213 5869   3.281   0.001  13.503 -1.2087 -0.5715 -0.0118
   46DOPE  H13R 5870   3.178   0.040  13.493 -0.6282  1.3923  1.1725
   46DOPE  H13S 5871   3.341   0.029  13.414 -0.9068 -0.8207  0.1108
   46DOPE  C214 5872   3.345   0.076  13.626  0.4812  0.3244  0.6249
   46DOPE  H14R 5873   3.287   0.031  13.710 -1.7990  1.9883  0.0501
   46DOPE  H14S 5874   3.314   0.183  13.621 -0.9905 -0.0680  0.7600
   46DOPE  C215 5875   3.491   0.053  13.655 -0.5496 -0.2747 -0.6236
   46DOPE  H15R 5876   3.535   0.096  13.562 -0.6346  1.1258 -0.0306
   46DOPE  H15S 5877   3.517  -0.056  13.652  2.9095  0.4107 -0.2301
   46DOPE  C216 5878   3.545   0.111  13.786 -0.6568 -0.1024 -0.0627
   46DOPE  H16R 5879   3.557   0.222  13.784 -0.2210 -0.1335  0.7097
   46DOPE  H16S 5880   3.649   0.072  13.793 -0.9372 -0.5633  1.8835
   46DOPE  C217 5881   3.482   0.062  13.923  0.4777  0.7751 -0.2150
   46DOPE  H17R 5882   3.478  -0.048  13.916 -0.7302  0.6534  1.7167
   46DOPE  H17S 5883   3.378   0.100  13.934 -0.2770 -1.6646  2.0358
   46DOPE  C218 5884   3.550   0.090  14.059 -0.0605  0.0719 -0.3485
   46DOPE  H18R 5885   3.620   0.008  14.085  0.4922 -0.3696 -2.9467
   46DOPE  H18S 5886   3.480   0.095  14.145  2.3942 -2.2970  1.9736
   46DOPE  H18T 5887   3.596   0.191  14.050  0.9130 -0.2785  0.5045
   46DOPE   C33 5888   3.009  -0.372  12.641 -0.4882  0.4809 -0.2538
   46DOPE   H3X 5889   3.110  -0.348  12.681 -0.6638  1.4208 -0.3493
   46DOPE   H3Y 5890   3.015  -0.474  12.597 -2.6784 -0.0895  0.6217
   46DOPE   C34 5891   2.902  -0.396  12.751  0.3034 -0.0940  0.7546
   46DOPE   H4X 5892   2.870  -0.297  12.791 -1.1545  1.0329 -2.7770
   46DOPE   H4Y 5893   2.816  -0.446  12.701  0.9379  0.8426 -1.3858
   46DOPE   C35 5894   2.955  -0.491  12.869  0.1981 -0.0893  0.4297
   46DOPE   H5X 5895   3.042  -0.431  12.905 -0.0238  0.3652  0.2083
   46DOPE   H5Y 5896   2.987  -0.593  12.836  1.0700 -0.0560  1.1339
   46DOPE   C36 5897   2.872  -0.501  12.992  0.0278 -0.2973 -0.3816
   46DOPE   H6X 5898   2.778  -0.553  12.965 -0.7023  1.4022 -1.2681
   46DOPE   H6Y 5899   2.831  -0.403  13.026 -0.6749 -0.3862 -0.9630
   46DOPE   C37 5900   2.956  -0.585  13.100  0.0489 -0.5105  0.2902
   46DOPE   H7X 5901   2.962  -0.688  13.058 -0.5458  0.1282 -1.4865
   46DOPE   H7Y 5902   3.061  -0.552  13.104  0.5835 -1.9995 -0.5675
   46DOPE   C38 5903   2.894  -0.597  13.251  0.0497 -0.5344 -0.0706
   46DOPE   H8X 5904   2.804  -0.661  13.261 -0.8553  0.8362  0.9915
   46DOPE   H8Y 5905   2.849  -0.496  13.263  0.7069 -0.0023 -1.7252
   46DOPE   C39 5906   2.992  -0.609  13.365 -0.1783  0.1292 -0.2367
   46DOPE   H9X 5907   3.073  -0.534  13.365  1.6481 -1.7652  0.2568
   46DOPE  C310 5908   2.989  -0.693  13.473  0.2327  0.7726 -0.0825
   46DOPE  H10X 5909   3.064  -0.700  13.553  0.5373  1.0516 -0.3386
   46DOPE  C311 5910   2.883  -0.801  13.498  0.2613  0.6171 -0.4222
   46DOPE  H11X 5911   2.818  -0.809  13.409  0.9977  1.1526 -1.0240
   46DOPE  H11Y 5912   2.926  -0.903  13.500  2.6905  1.5795  0.1623
   46DOPE  C312 5913   2.782  -0.769  13.615  0.4618 -0.2071 -0.8810
   46DOPE  H12X 5914   2.691  -0.828  13.589  1.0636 -1.4417 -0.2579
   46DOPE  H12Y 5915   2.753  -0.662  13.605 -1.0780 -0.3795  1.0864
   46DOPE  C313 5916   2.840  -0.789  13.758  0.0301  0.6327 -1.1542
   46DOPE  H13X 5917   2.860  -0.898  13.766 -0.3092  0.4164 -2.9421
   46DOPE  H13Y 5918   2.938  -0.737  13.763  0.9253 -0.9870 -1.2374
   46DOPE  C314 5919   2.753  -0.739  13.867 -0.0236  0.2211 -0.0618
   46DOPE  H14X 5920   2.661  -0.799  13.883 -2.0778  2.6364 -1.9208
   46DOPE  H14Y 5921   2.725  -0.632  13.854  1.2664  0.2985 -2.8078
   46DOPE  C315 5922   2.820  -0.745  14.010 -0.2909  0.6939 -0.2195
   46DOPE  H15X 5923   2.846  -0.852  14.025 -1.3514  0.7615  2.5952
   46DOPE  H15Y 5924   2.739  -0.723  14.082  0.1295 -1.0440  0.8618
   46DOPE  C316 5925   2.945  -0.664  14.029 -0.2320 -0.1539  0.3467
   46DOPE  H16X 5926   2.932  -0.559  13.995  0.2573 -0.2438 -0.1298
   46DOPE  H16Y 5927   3.022  -0.703  13.960  1.0203  0.2881  1.4526
   46DOPE  C317 5928   2.993  -0.668  14.172 -0.0222  0.4513  0.5780
   46DOPE  H17X 5929   2.913  -0.633  14.241 -1.1458 -1.4331  0.3125
   46DOPE  H17Y 5930   2.998  -0.774  14.204  0.5675  0.6713  1.2207
   46DOPE  C318 5931   3.119  -0.583  14.203 -0.5677  0.3432 -0.1370
   46DOPE  H18X 5932   3.100  -0.478  14.172  1.1939  1.4272  2.1883
   46DOPE  H18Y 5933   3.139  -0.579  14.312  0.2133 -0.9174 -0.2112
   46DOPE  H18Z 5934   3.212  -0.614  14.151  0.1385  0.8788  0.7904
   47DOPE     N 5935   1.392   5.887  11.511  0.5494 -0.4966 -0.4061
   47DOPE   HN1 5936   1.399   5.937  11.420  2.2636  0.7305  0.3617
   47DOPE   HN2 5937   1.309   5.918  11.565  1.2262  1.1862 -0.2759
   47DOPE   HN3 5938   1.474   5.907  11.572  1.0865 -0.0839 -1.2396
   47DOPE   C12 5939   1.383   5.738  11.485  0.0544  0.2968  0.1188
   47DOPE  H12A 5940   1.467   5.716  11.416 -1.1330 -2.1848 -0.6362
   47DOPE  H12B 5941   1.284   5.716  11.439 -0.1381  2.3902 -0.5861
   47DOPE   C11 5942   1.387   5.683  11.629 -0.5284  0.3772  0.3264
   47DOPE  H11A 5943   1.379   5.573  11.613  1.5432  0.4188 -1.6118
   47DOPE  H11B 5944   1.297   5.725  11.678 -2.2322 -4.2692  1.6831
   47DOPE     P 5945   1.564   5.637  11.825  0.0256  0.2471 -0.1510
   47DOPE   O13 5946   1.676   5.704  11.887 -0.5195 -0.4816  0.3655
   47DOPE   O14 5947   1.588   5.499  11.782  0.5265 -0.2048  0.4396
   47DOPE   O11 5948   1.441   5.648  11.924  0.3067  0.1828 -0.5268
   47DOPE   O12 5949   1.510   5.717  11.696  0.2095  0.6261  0.1880
   47DOPE    C1 5950   1.407   5.767  11.987  0.2443  0.7371 -0.0511
   47DOPE    HA 5951   1.297   5.787  11.984  0.3610  1.3631 -0.4534
   47DOPE    HB 5952   1.456   5.857  11.944  0.9398  0.4681  0.1738
   47DOPE    C2 5953   1.429   5.762  12.135  0.2534  0.1613  0.5039
   47DOPE    HS 5954   1.540   5.750  12.143  0.2075 -2.0282 -1.0984
   47DOPE   O21 5955   1.357   5.660  12.205  0.1002 -0.2332 -0.5887
   47DOPE   C21 5956   1.440   5.557  12.250 -0.3132  0.8734 -1.3464
   47DOPE   O22 5957   1.560   5.546  12.232  0.0481 -0.1848 -0.4181
   47DOPE   C22 5958   1.347   5.455  12.320 -0.1602 -0.0146 -0.2254
   47DOPE   H2R 5959   1.314   5.399  12.230  1.7224 -0.5762 -0.6221
   47DOPE   H2S 5960   1.273   5.517  12.374  0.3527  0.1743  0.2721
   47DOPE    C3 5961   1.395   5.897  12.196 -0.1822  0.2141  0.2423
   47DOPE    HX 5962   1.302   5.939  12.153 -0.4554  0.6263  1.1996
   47DOPE    HY 5963   1.486   5.954  12.167  1.2804 -1.7826  0.6799
   47DOPE   O31 5964   1.365   5.899  12.342 -0.4548  0.5420  0.6285
   47DOPE   C31 5965   1.475   5.878  12.416  0.2445  0.0960 -0.2539
   47DOPE   O32 5966   1.583   5.845  12.377  0.1611  0.3434 -0.4500
   47DOPE   C32 5967   1.429   5.877  12.560 -0.2373 -0.0944  0.8337
   47DOPE   H2X 5968   1.515   5.917  12.618  0.5430 -1.1320  0.4203
   47DOPE   H2Y 5969   1.338   5.940  12.576 -0.3942 -0.5141  1.6663
   47DOPE   C23 5970   1.414   5.349  12.411  0.4669 -0.2435  0.2517
   47DOPE   H3R 5971   1.523   5.344  12.392 -0.0140  0.4608 -3.5211
   47DOPE   H3S 5972   1.371   5.252  12.377 -1.5745  1.0103 -0.9687
   47DOPE   C24 5973   1.374   5.371  12.557 -1.5711 -0.9031  0.1345
   47DOPE   H4R 5974   1.264   5.360  12.558 -1.4181 -3.3668 -1.6063
   47DOPE   H4S 5975   1.408   5.468  12.598 -0.0588 -0.4868 -1.9397
   47DOPE   C25 5976   1.437   5.258  12.637 -0.2124  0.0218  0.5223
   47DOPE   H5R 5977   1.545   5.258  12.610 -0.6718  1.5745 -1.5816
   47DOPE   H5S 5978   1.396   5.162  12.598  0.6006  0.0048 -0.3274
   47DOPE   C26 5979   1.419   5.286  12.784  0.2613 -0.6990 -0.7054
   47DOPE   H6R 5980   1.314   5.279  12.818  1.5440  1.2292  4.6357
   47DOPE   H6S 5981   1.469   5.381  12.815 -0.3639  0.5000 -3.1518
   47DOPE   C27 5982   1.495   5.178  12.859 -0.2137 -0.5675 -0.3019
   47DOPE   H7R 5983   1.595   5.172  12.811 -0.7313  0.5197 -1.5857
   47DOPE   H7S 5984   1.442   5.086  12.825 -0.3471 -0.7917  0.4969
   47DOPE   C28 5985   1.488   5.187  13.014  0.0965  0.3728  0.0575
   47DOPE   H8R 5986   1.529   5.090  13.050 -0.8671 -0.9735 -2.2702
   47DOPE   H8S 5987   1.385   5.190  13.054 -0.6215 -3.6756 -1.0402
   47DOPE   C29 5988   1.572   5.306  13.058  0.0879 -0.3669 -0.4361
   47DOPE   H9R 5989   1.670   5.318  13.011  0.7104  0.0801  0.9225
   47DOPE  C210 5990   1.529   5.406  13.144 -0.0189 -0.1927  0.3051
   47DOPE  H10R 5991   1.601   5.488  13.157 -1.7350  1.5546 -0.5751
   47DOPE  C211 5992   1.397   5.407  13.214 -0.0299 -0.3261 -0.1270
   47DOPE  H11R 5993   1.327   5.324  13.190  0.3325 -0.2323 -1.6196
   47DOPE  H11S 5994   1.342   5.499  13.182  2.2513  0.9832 -0.5057
   47DOPE  C212 5995   1.441   5.408  13.362  0.1493  0.5254 -0.1937
   47DOPE  H12R 5996   1.460   5.514  13.389  0.2429 -0.2329  3.0475
   47DOPE  H12S 5997   1.538   5.362  13.389  0.1764  1.1240  0.7695
   47DOPE  C213 5998   1.333   5.364  13.469  0.3319 -0.7366  0.5377
   47DOPE  H13R 5999   1.276   5.276  13.433 -0.6212 -1.3294  3.2663
   47DOPE  H13S 6000   1.261   5.448  13.473 -0.7201 -1.6865  2.9976
   47DOPE  C214 6001   1.392   5.323  13.603  0.1460  0.2750  0.4144
   47DOPE  H14R 6002   1.465   5.400  13.637  2.7540 -2.2661  0.9553
   47DOPE  H14S 6003   1.462   5.237  13.595  1.8048  1.6857 -1.0658
   47DOPE  C215 6004   1.294   5.303  13.717 -0.0455 -0.3525 -0.3563
   47DOPE  H15R 6005   1.243   5.207  13.695  0.1005 -1.0797  2.1760
   47DOPE  H15S 6006   1.215   5.381  13.703 -0.0530 -0.4960 -1.1530
   47DOPE  C216 6007   1.359   5.314  13.851 -0.4094 -0.0994 -0.2676
   47DOPE  H16R 6008   1.413   5.411  13.863 -0.1028 -0.3125  0.0806
   47DOPE  H16S 6009   1.439   5.237  13.853 -1.5446 -1.2937  0.4339
   47DOPE  C217 6010   1.266   5.274  13.966 -0.3988 -0.8686  0.3059
   47DOPE  H17R 6011   1.225   5.176  13.934  0.0821 -1.6712  2.0074
   47DOPE  H17S 6012   1.178   5.342  13.980  0.2722 -0.0507  0.6431
   47DOPE  C218 6013   1.330   5.264  14.109 -0.4231 -0.0119  0.3638
   47DOPE  H18R 6014   1.242   5.262  14.176 -0.3911  3.0142  0.6364
   47DOPE  H18S 6015   1.395   5.350  14.134  0.9047 -0.9681  0.2959
   47DOPE  H18T 6016   1.395   5.173  14.112 -0.9488 -0.4662 -0.9836
   47DOPE   C33 6017   1.383   5.740  12.608 -0.5184 -0.8657 -0.8093
   47DOPE   H3X 6018   1.477   5.681  12.620  0.3949  1.0508  3.3167
   47DOPE   H3Y 6019   1.326   5.698  12.522  0.1018 -0.1608 -1.5863
   47DOPE   C34 6020   1.292   5.742  12.736  0.1828  0.4788 -0.0704
   47DOPE   H4X 6021   1.192   5.784  12.713 -0.3946 -0.5026  0.5350
   47DOPE   H4Y 6022   1.280   5.636  12.768 -0.3226 -0.3390 -2.6858
   47DOPE   C35 6023   1.328   5.825  12.853 -0.5115  0.0797  0.2110
   47DOPE   H5X 6024   1.363   5.928  12.830  0.1278  0.0939  1.1705
   47DOPE   H5Y 6025   1.413   5.775  12.904  0.2706  1.2311  0.0836
   47DOPE   C36 6026   1.213   5.830  12.956 -0.4736  0.3076 -0.1313
   47DOPE   H6X 6027   1.189   5.724  12.983  2.5478 -0.4054  0.1563
   47DOPE   H6Y 6028   1.125   5.878  12.910  0.9642  2.2555 -0.9531
   47DOPE   C37 6029   1.249   5.908  13.082  0.1599 -0.2790 -0.2040
   47DOPE   H7X 6030   1.311   5.998  13.060 -0.7760 -0.1347 -2.4919
   47DOPE   H7Y 6031   1.158   5.941  13.137  1.8838 -0.8548  3.3117
   47DOPE   C38 6032   1.331   5.834  13.182  0.5730  0.5288 -0.2467
   47DOPE   H8X 6033   1.411   5.780  13.126  0.2397 -2.0900  1.6214
   47DOPE   H8Y 6034   1.275   5.752  13.232  0.7874 -0.7406 -1.9843
   47DOPE   C39 6035   1.389   5.935  13.279 -0.0533  0.2052 -0.3700
   47DOPE   H9X 6036   1.438   6.024  13.236 -0.5554 -0.0529 -1.5114
   47DOPE  C310 6037   1.380   5.927  13.412  0.1043 -0.1337  0.3962
   47DOPE  H10X 6038   1.418   6.003  13.482 -0.7322  0.5419  0.1397
   47DOPE  C311 6039   1.320   5.812  13.486 -0.0112  0.0879  0.5620
   47DOPE  H11X 6040   1.217   5.844  13.514  0.1961  1.5461 -0.2392
   47DOPE  H11Y 6041   1.315   5.726  13.417  0.9547 -0.0678  0.6790
   47DOPE  C312 6042   1.385   5.766  13.619  0.0589 -0.6222 -0.2144
   47DOPE  H12X 6043   1.495   5.758  13.612  0.0643  0.2967 -1.4833
   47DOPE  H12Y 6044   1.341   5.667  13.643  0.2092 -1.1134 -1.8289
   47DOPE  C313 6045   1.343   5.853  13.737 -0.2319 -0.4722 -0.3734
   47DOPE  H13X 6046   1.416   5.936  13.743 -0.8543  0.2523 -2.1898
   47DOPE  H13Y 6047   1.239   5.888  13.719  0.2302  0.0930 -2.0327
   47DOPE  C314 6048   1.333   5.784  13.874 -0.4956 -0.5263  0.6243
   47DOPE  H14X 6049   1.404   5.700  13.890 -2.7240 -2.5337  0.5754
   47DOPE  H14Y 6050   1.231   5.740  13.871 -0.3481 -0.8567  0.3634
   47DOPE  C315 6051   1.333   5.901  13.979  0.7131 -0.2696 -0.0663
   47DOPE  H15X 6052   1.274   5.984  13.934  0.5889 -0.6895 -0.6948
   47DOPE  H15Y 6053   1.434   5.940  14.002 -0.3713  3.0038 -0.3200
   47DOPE  C316 6054   1.266   5.872  14.122 -0.1467  0.1705  0.2478
   47DOPE  H16X 6055   1.311   5.778  14.162 -0.5469  1.3203  3.6444
   47DOPE  H16Y 6056   1.159   5.855  14.097 -0.0620  1.1268 -0.8950
   47DOPE  C317 6057   1.274   5.980  14.228  0.3384 -0.3671  0.0627
   47DOPE  H17X 6058   1.272   5.934  14.328  1.9294 -1.8348 -0.5287
   47DOPE  H17Y 6059   1.377   6.023  14.226  0.3238 -0.2729  1.1258
   47DOPE  C318 6060   1.172   6.093  14.208  0.6070  0.3276 -0.2544
   47DOPE  H18X 6061   1.192   6.133  14.107  0.9168  1.1066  0.1077
   47DOPE  H18Y 6062   1.063   6.070  14.210 -0.0810  2.8339 -2.6691
   47DOPE  H18Z 6063   1.190   6.173  14.282  2.0165 -0.7623  0.6254
   48DOPE     N 6064   0.003   0.679  11.931 -0.7960 -0.0418 -0.5599
   48DOPE   HN1 6065  -0.074   0.627  11.884  0.9381 -1.8345 -1.5714
   48DOPE   HN2 6066   0.081   0.665  11.863 -1.4451 -2.3362 -0.9430
   48DOPE   HN3 6067   0.024   0.635  12.023 -0.3727 -0.7503 -0.9825
   48DOPE   C12 6068  -0.039   0.824  11.930 -0.6156  0.7260 -0.3657
   48DOPE  H12A 6069  -0.074   0.854  11.829 -2.6976  2.0500  0.6819
   48DOPE  H12B 6070   0.056   0.880  11.947  0.7857 -2.2666  3.0143
   48DOPE   C11 6071  -0.137   0.849  12.054 -0.1326 -0.6856  0.1547
   48DOPE  H11A 6072  -0.215   0.770  12.058  0.5967 -1.6218 -2.0802
   48DOPE  H11B 6073  -0.187   0.947  12.037  0.7590 -0.6212 -2.7021
   48DOPE     P 6074   0.008   0.990  12.235 -0.0853 -0.1998  0.1351
   48DOPE   O13 6075   0.079   1.057  12.122 -0.3410  0.4812  0.1091
   48DOPE   O14 6076   0.090   0.950  12.351 -0.2086 -0.5118 -0.3585
   48DOPE   O11 6077  -0.108   1.080  12.289 -0.3389  0.2733  0.0444
   48DOPE   O12 6078  -0.067   0.859  12.179 -0.4678  0.4258 -0.0988
   48DOPE    C1 6079  -0.208   1.018  12.365  0.3939  0.2056  0.1381
   48DOPE    HA 6080  -0.193   0.910  12.382 -0.3822  0.1065  0.2262
   48DOPE    HB 6081  -0.305   1.028  12.313  0.6877  1.1874 -0.2472
   48DOPE    C2 6082  -0.240   1.095  12.501  0.1261  0.0407  0.0783
   48DOPE    HS 6083  -0.342   1.078  12.542 -0.5017  2.8330 -0.1166
   48DOPE   O21 6084  -0.213   1.236  12.476  0.3483  0.5954 -0.6066
   48DOPE   C21 6085  -0.261   1.319  12.572 -0.5581 -0.0120  0.3170
   48DOPE   O22 6086  -0.342   1.299  12.657 -0.0204 -0.8397  0.5267
   48DOPE   C22 6087  -0.197   1.451  12.535  0.4579 -0.3134  0.3101
   48DOPE   H2R 6088  -0.252   1.471  12.440  0.5233 -2.2527 -0.1823
   48DOPE   H2S 6089  -0.090   1.425  12.523  0.6376  0.1352  0.9501
   48DOPE    C3 6090  -0.137   1.042  12.608 -0.4519  0.3074  0.5295
   48DOPE    HX 6091  -0.033   1.054  12.570  0.3225 -2.8681  1.3368
   48DOPE    HY 6092  -0.157   0.933  12.614  1.7027 -0.1439  0.1840
   48DOPE   O31 6093  -0.130   1.110  12.738 -0.3364 -0.4042  0.3112
   48DOPE   C31 6094  -0.219   1.070  12.823 -0.3514 -0.0250  0.3491
   48DOPE   O32 6095  -0.295   0.977  12.808  0.2066 -0.9132 -0.3393
   48DOPE   C32 6096  -0.207   1.174  12.931  0.4755  0.2925 -0.9871
   48DOPE   H2X 6097  -0.185   1.276  12.891 -1.1651  1.3990  0.7528
   48DOPE   H2Y 6098  -0.308   1.183  12.978  0.2665  1.3214 -1.5897
   48DOPE   C23 6099  -0.209   1.559  12.641  0.7123 -0.5055 -0.3912
   48DOPE   H3R 6100  -0.307   1.573  12.693 -0.2609 -0.2129 -2.2249
   48DOPE   H3S 6101  -0.189   1.651  12.584  0.8273 -1.6973 -2.3529
   48DOPE   C24 6102  -0.107   1.546  12.752 -0.2154  0.5941  0.6866
   48DOPE   H4R 6103  -0.005   1.570  12.715  0.0340 -0.8040  0.3991
   48DOPE   H4S 6104  -0.100   1.442  12.792  2.8984 -0.3639 -1.9569
   48DOPE   C25 6105  -0.132   1.643  12.870  0.4862  0.6179 -0.3647
   48DOPE   H5R 6106  -0.191   1.729  12.834  0.6437  0.5420 -0.8098
   48DOPE   H5S 6107  -0.039   1.687  12.912  1.0165 -0.8838  0.0938
   48DOPE   C26 6108  -0.205   1.567  12.987 -0.3449 -0.2944 -0.2424
   48DOPE   H6R 6109  -0.148   1.477  13.015  2.8786  1.0986 -1.8605
   48DOPE   H6S 6110  -0.310   1.540  12.959 -0.0462  0.9327 -2.8401
   48DOPE   C27 6111  -0.224   1.665  13.110  0.5396  0.4965 -0.6967
   48DOPE   H7R 6112  -0.300   1.621  13.179  0.2329  3.0536  0.7347
   48DOPE   H7S 6113  -0.287   1.753  13.083 -0.7397 -0.2864 -0.3630
   48DOPE   C28 6114  -0.101   1.700  13.199  1.1643  0.3976 -0.3081
   48DOPE   H8R 6115  -0.136   1.775  13.274  1.0435 -0.7450  0.8243
   48DOPE   H8S 6116  -0.021   1.755  13.144  1.8410 -1.0526 -0.8043
   48DOPE   C29 6117  -0.047   1.581  13.270 -0.2500 -0.3614  0.0844
   48DOPE   H9R 6118  -0.022   1.505  13.194 -2.7552  0.1515 -1.3480
   48DOPE  C210 6119  -0.018   1.560  13.399 -0.7523 -0.4522  0.5106
   48DOPE  H10R 6120   0.024   1.462  13.427 -2.5064 -1.2959  0.3296
   48DOPE  C211 6121  -0.037   1.656  13.510 -0.0457 -0.5340 -0.0010
   48DOPE  H11R 6122  -0.060   1.756  13.468 -1.6247 -1.2365 -0.8530
   48DOPE  H11S 6123   0.057   1.671  13.569 -0.3332 -1.6420  0.7609
   48DOPE  C212 6124  -0.136   1.629  13.620 -0.0729 -0.4453  0.4515
   48DOPE  H12R 6125  -0.139   1.520  13.639  0.4273 -0.8245 -1.4510
   48DOPE  H12S 6126  -0.232   1.662  13.574  0.2335 -0.1333  0.0344
   48DOPE  C213 6127  -0.116   1.694  13.761 -0.0339  0.5244  0.0711
   48DOPE  H13R 6128  -0.210   1.685  13.820 -1.7567  0.3990 -2.5558
   48DOPE  H13S 6129  -0.097   1.803  13.747 -0.5609  0.3762 -2.1742
   48DOPE  C214 6130  -0.007   1.616  13.834  0.1924  0.0727  0.4882
   48DOPE  H14R 6131   0.095   1.633  13.793  0.5025 -4.9059 -1.4086
   48DOPE  H14S 6132  -0.028   1.507  13.840  1.5136 -0.1320  2.1782
   48DOPE  C215 6133  -0.008   1.651  13.986  0.4730 -0.1739  0.7428
   48DOPE  H15R 6134  -0.106   1.613  14.022 -0.3649  0.5443 -0.6850
   48DOPE  H15S 6135  -0.002   1.760  14.010  1.2051 -0.5481  2.3907
   48DOPE  C216 6136   0.103   1.573  14.056 -0.6331  0.1703  0.2347
   48DOPE  H16R 6137   0.205   1.592  14.015 -0.0875 -0.5385  1.2393
   48DOPE  H16S 6138   0.078   1.467  14.036  0.5229 -0.5923  2.5150
   48DOPE  C217 6139   0.092   1.599  14.207  0.2170  0.0387  0.3227
   48DOPE  H17R 6140   0.131   1.517  14.271  0.9077 -0.7530 -1.0720
   48DOPE  H17S 6141  -0.015   1.610  14.237  0.1695 -0.9217  0.5354
   48DOPE  C218 6142   0.153   1.726  14.243  0.0800  0.6039  0.0966
   48DOPE  H18R 6143   0.140   1.801  14.163 -0.9075  0.2565 -0.0780
   48DOPE  H18S 6144   0.259   1.704  14.269 -0.2086  0.8483  1.5718
   48DOPE  H18T 6145   0.106   1.767  14.335 -2.7927 -0.8422 -0.6213
   48DOPE   C33 6146  -0.110   1.137  13.046  1.0312  0.0651 -0.1437
   48DOPE   H3X 6147  -0.070   1.226  13.099 -0.8515  0.3937  0.8290
   48DOPE   H3Y 6148  -0.020   1.085  13.006  0.3694 -0.8311 -0.5117
   48DOPE   C34 6149  -0.180   1.051  13.151  0.5743  0.6079  0.0099
   48DOPE   H4X 6150  -0.272   1.107  13.178 -0.5328 -0.1338 -2.0756
   48DOPE   H4Y 6151  -0.220   0.961  13.101  1.9188 -0.0157 -0.0048
   48DOPE   C35 6152  -0.088   1.008  13.268 -0.5617 -0.3443  0.0986
   48DOPE   H5X 6153   0.009   0.967  13.232 -0.6012  1.9992 -3.1245
   48DOPE   H5Y 6154  -0.123   0.915  13.320 -0.9169 -0.5981 -0.5815
   48DOPE   C36 6155  -0.057   1.117  13.368  0.1300 -0.4168 -0.9520
   48DOPE   H6X 6156  -0.144   1.183  13.391  1.1363  1.2279 -1.6680
   48DOPE   H6Y 6157   0.018   1.188  13.328  0.8937 -0.9283 -0.4568
   48DOPE   C37 6158   0.006   1.073  13.501  0.1549 -0.3474 -0.3017
   48DOPE   H7X 6159   0.090   1.003  13.480 -0.2300 -1.3247  1.2687
   48DOPE   H7Y 6160   0.053   1.157  13.555  0.7929 -1.2709  0.6031
   48DOPE   C38 6161  -0.103   1.006  13.602  0.1518 -0.1886  0.6695
   48DOPE   H8X 6162  -0.060   0.948  13.686 -1.3903 -0.4470  1.3195
   48DOPE   H8Y 6163  -0.168   0.934  13.547 -0.8567 -0.3346  2.0192
   48DOPE   C39 6164  -0.184   1.124  13.651  0.6357 -0.5395 -0.7274
   48DOPE   H9X 6165  -0.264   1.149  13.580  1.3882  1.9024 -0.8252
   48DOPE  C310 6166  -0.170   1.193  13.762  0.0675 -0.0136  0.5086
   48DOPE  H10X 6167  -0.244   1.269  13.791  0.2065  1.4424 -2.5623
   48DOPE  C311 6168  -0.052   1.179  13.856 -0.3984  0.0699  1.0339
   48DOPE  H11X 6169   0.037   1.130  13.811  0.2349  0.3516  1.9584
   48DOPE  H11Y 6170  -0.017   1.282  13.883 -2.0794  1.4747 -1.6663
   48DOPE  C312 6171  -0.084   1.095  13.984  0.1684  0.2159 -0.1490
   48DOPE  H12X 6172   0.015   1.074  14.030  0.8064  0.1116 -1.5326
   48DOPE  H12Y 6173  -0.117   0.993  13.957  1.8820  0.3241 -3.1069
   48DOPE  C313 6174  -0.174   1.177  14.080 -0.0238  1.1351 -0.1848
   48DOPE  H13X 6175  -0.121   1.262  14.129  1.6664  0.0381 -0.0222
   48DOPE  H13Y 6176  -0.246   1.217  14.005 -1.2452 -1.5695 -0.5877
   48DOPE  C314 6177  -0.237   1.104  14.198  0.3606  0.2758  0.0883
   48DOPE  H14X 6178  -0.323   1.156  14.247  0.9717 -0.3136  1.8592
   48DOPE  H14Y 6179  -0.159   1.088  14.275  1.3449 -0.1832 -0.9763
   48DOPE  C315 6180  -0.301   0.970  14.167 -0.8828 -0.2658  0.2361
   48DOPE  H15X 6181  -0.239   0.893  14.116 -0.7899  0.6102 -1.0394
   48DOPE  H15Y 6182  -0.380   0.996  14.094  1.2689 -1.3405 -2.6795
   48DOPE  C316 6183  -0.370   0.918  14.287  0.4043 -0.1307  0.4099
   48DOPE  H16X 6184  -0.449   0.985  14.326 -0.4877 -1.8806  1.7897
   48DOPE  H16Y 6185  -0.292   0.913  14.366 -0.6014  0.5606  1.4813
   48DOPE  C317 6186  -0.432   0.776  14.273 -0.5602  0.0484  0.5607
   48DOPE  H17X 6187  -0.349   0.701  14.280  0.3227  0.8271 -1.0026
   48DOPE  H17Y 6188  -0.503   0.754  14.355  0.4410 -0.0762  1.4086
   48DOPE  C318 6189  -0.498   0.745  14.145 -0.0116  0.0513  0.0768
   48DOPE  H18X 6190  -0.426   0.718  14.064  1.1978  1.0795  0.7729
   48DOPE  H18Y 6191  -0.567   0.658  14.150 -0.7315  0.5649 -0.7485
   48DOPE  H18Z 6192  -0.557   0.834  14.114  0.3124 -0.1058 -1.0557
   49DOPE     N 6193   1.703   0.733  11.595 -0.1551 -0.7327 -0.8806
   49DOPE   HN1 6194   1.717   0.739  11.492  1.5807  2.0031 -0.6030
   49DOPE   HN2 6195   1.701   0.828  11.637  0.3893 -1.2578  0.3891
   49DOPE   HN3 6196   1.772   0.670  11.640  0.5826  0.6299 -0.0063
   49DOPE   C12 6197   1.564   0.689  11.626  0.2230 -0.1268 -0.8285
   49DOPE  H12A 6198   1.484   0.734  11.563 -1.7316  0.1042  1.6471
   49DOPE  H12B 6199   1.554   0.698  11.737 -3.0267 -2.6197 -0.7515
   49DOPE   C11 6200   1.557   0.535  11.610  0.2700  0.0846  0.1740
   49DOPE  H11A 6201   1.584   0.509  11.505 -0.9791 -1.8232  0.2625
   49DOPE  H11B 6202   1.453   0.505  11.638  0.8335 -1.2262  0.9462
   49DOPE     P 6203   1.804   0.421  11.672  0.2376 -0.3488  0.0001
   49DOPE   O13 6204   1.894   0.534  11.662  0.1403 -0.1086  0.4560
   49DOPE   O14 6205   1.794   0.314  11.564  0.5198 -0.0224 -0.7942
   49DOPE   O11 6206   1.839   0.345  11.808  0.5658 -0.0830 -0.5152
   49DOPE   O12 6207   1.656   0.472  11.700 -0.1746 -0.4164 -0.3662
   49DOPE    C1 6208   1.728   0.292  11.883  0.4775 -0.0183 -0.3815
   49DOPE    HA 6209   1.763   0.203  11.940 -1.2054 -1.9714 -2.2262
   49DOPE    HB 6210   1.637   0.264  11.827  0.6573 -2.4707  0.4437
   49DOPE    C2 6211   1.681   0.381  12.004 -0.4726  0.5064 -0.5831
   49DOPE    HS 6212   1.647   0.475  11.954 -1.1453  0.4212 -0.2834
   49DOPE   O21 6213   1.784   0.411  12.102 -0.2098  0.2905 -0.0651
   49DOPE   C21 6214   1.767   0.508  12.194 -0.7345  1.1893  0.8999
   49DOPE   O22 6215   1.677   0.585  12.198  0.3685 -0.0241  0.6154
   49DOPE   C22 6216   1.883   0.485  12.298  0.3366 -0.3298 -0.5657
   49DOPE   H2R 6217   1.930   0.583  12.315 -0.6364 -0.1219  1.1298
   49DOPE   H2S 6218   1.956   0.405  12.273  3.0801  0.8522  2.8326
   49DOPE    C3 6219   1.557   0.325  12.071  0.3414 -0.7173 -0.7643
   49DOPE    HX 6220   1.480   0.297  11.996  1.9998 -3.1146 -1.7050
   49DOPE    HY 6221   1.516   0.411  12.128 -0.3223 -1.4940 -0.0493
   49DOPE   O31 6222   1.593   0.222  12.165 -0.0900  0.1622  0.0443
   49DOPE   C31 6223   1.489   0.185  12.246 -0.1535 -0.0472 -0.4257
   49DOPE   O32 6224   1.378   0.234  12.242 -0.2284 -0.4084  0.6371
   49DOPE   C32 6225   1.515   0.063  12.324  0.1420 -0.4468 -0.2556
   49DOPE   H2X 6226   1.425  -0.001  12.320  0.3495 -0.7193 -0.6990
   49DOPE   H2Y 6227   1.608   0.014  12.287  0.9171  0.1882  0.7927
   49DOPE   C23 6228   1.815   0.450  12.425 -0.0488  0.8608 -0.1638
   49DOPE   H3R 6229   1.794   0.340  12.423  0.2599  0.8068 -1.7462
   49DOPE   H3S 6230   1.721   0.500  12.457 -1.3146 -2.5630  2.0822
   49DOPE   C24 6231   1.910   0.472  12.542  0.2384 -0.2049  0.2556
   49DOPE   H4R 6232   1.916   0.580  12.565 -1.7729  0.2826 -1.2074
   49DOPE   H4S 6233   2.011   0.428  12.527  0.1824 -0.7985  1.5209
   49DOPE   C25 6234   1.864   0.404  12.670 -0.4425  0.2998 -0.2996
   49DOPE   H5R 6235   1.871   0.293  12.662  0.8366  0.3208  0.2551
   49DOPE   H5S 6236   1.758   0.433  12.687 -1.3144 -2.1319 -1.1741
   49DOPE   C26 6237   1.947   0.442  12.803 -0.3965  0.0404  0.1680
   49DOPE   H6R 6238   1.949   0.551  12.820  3.1207 -0.1538  1.9924
   49DOPE   H6S 6239   2.051   0.406  12.785 -0.2679  0.4785  0.0141
   49DOPE   C27 6240   1.887   0.380  12.928 -0.1318  0.2876 -0.5979
   49DOPE   H7R 6241   1.820   0.296  12.898 -1.0957  0.9982 -0.4863
   49DOPE   H7S 6242   1.819   0.442  12.990  1.0112  0.5328  0.4458
   49DOPE   C28 6243   1.997   0.334  13.030  0.8711  0.7056  0.7412
   49DOPE   H8R 6244   2.063   0.255  12.989  0.2308  0.6072 -0.1066
   49DOPE   H8S 6245   1.952   0.289  13.121  0.1050  0.8481  0.4324
   49DOPE   C29 6246   2.085   0.451  13.081  0.3369  0.5535  0.2742
   49DOPE   H9R 6247   2.151   0.495  13.005  1.4114 -0.5824  0.5202
   49DOPE  C210 6248   2.083   0.501  13.202 -0.2667  0.0188 -0.0389
   49DOPE  H10R 6249   2.152   0.585  13.220 -1.5440  1.4945 -1.7129
   49DOPE  C211 6250   2.005   0.477  13.333  0.2548 -0.1902  0.5986
   49DOPE  H11R 6251   1.985   0.368  13.340  0.8962 -0.4392 -1.0249
   49DOPE  H11S 6252   1.908   0.532  13.337  0.2802 -0.1440  0.5794
   49DOPE  C212 6253   2.080   0.524  13.456 -0.5137 -0.2645 -0.9004
   49DOPE  H12R 6254   2.084   0.634  13.446 -1.5540 -0.1653 -0.3187
   49DOPE  H12S 6255   2.190   0.504  13.461 -0.5345 -0.4519 -1.1637
   49DOPE  C213 6256   2.008   0.490  13.590  1.1321 -0.2454 -0.3006
   49DOPE  H13R 6257   2.017   0.380  13.600  2.9672 -0.0561  0.6541
   49DOPE  H13S 6258   1.905   0.525  13.569  1.6513  0.6716 -1.4343
   49DOPE  C214 6259   2.071   0.560  13.701  0.2268  0.1660 -0.6434
   49DOPE  H14R 6260   2.044   0.667  13.683  0.0258  0.5097  1.4083
   49DOPE  H14S 6261   2.179   0.538  13.689  0.5882  0.8697  1.0120
   49DOPE  C215 6262   2.008   0.523  13.840 -0.4987 -0.6635  0.0433
   49DOPE  H15R 6263   2.034   0.416  13.858 -0.9681 -0.7782  0.0395
   49DOPE  H15S 6264   1.898   0.523  13.827 -0.2720 -0.8454 -2.5800
   49DOPE  C216 6265   2.063   0.610  13.952  0.0551  0.3933 -0.3124
   49DOPE  H16R 6266   2.028   0.714  13.936  0.7763  0.6804 -0.0705
   49DOPE  H16S 6267   2.174   0.607  13.957  0.0183 -0.1108  0.3723
   49DOPE  C217 6268   2.011   0.573  14.088 -0.1615  0.7693 -0.3753
   49DOPE  H17R 6269   2.038   0.468  14.112 -0.5076  0.9312  0.7967
   49DOPE  H17S 6270   1.900   0.570  14.081 -0.2784 -1.7446  1.4221
   49DOPE  C218 6271   2.070   0.664  14.194  0.4004  0.0741 -0.1555
   49DOPE  H18R 6272   2.042   0.768  14.167  0.0856 -0.5205 -2.3376
   49DOPE  H18S 6273   2.181   0.662  14.183  0.3201 -2.5012 -1.2117
   49DOPE  H18T 6274   2.044   0.636  14.298  0.1927 -1.2988 -0.5602
   49DOPE   C33 6275   1.537   0.089  12.475  0.4407  0.1725  0.0325
   49DOPE   H3X 6276   1.610   0.171  12.490  3.7212 -2.6090  0.6046
   49DOPE   H3Y 6277   1.583   0.001  12.525  2.4105  2.0726  1.7922
   49DOPE   C34 6278   1.408   0.097  12.556 -0.3471 -0.1133  0.7078
   49DOPE   H4X 6279   1.340   0.170  12.507  0.1047 -0.1338  0.0339
   49DOPE   H4Y 6280   1.361  -0.003  12.567  3.3671 -1.9862  0.9546
   49DOPE   C35 6281   1.446   0.151  12.694 -0.2441  0.6573 -0.4329
   49DOPE   H5X 6282   1.351   0.191  12.735 -2.0253 -3.5657  0.0345
   49DOPE   H5Y 6283   1.518   0.234  12.676  0.1470 -0.0272 -2.2031
   49DOPE   C36 6284   1.507   0.049  12.796 -0.1859  0.0113  0.7128
   49DOPE   H6X 6285   1.595   0.008  12.742 -0.4036  1.4000 -0.7577
   49DOPE   H6Y 6286   1.439  -0.037  12.811 -0.3395 -0.1216 -0.6560
   49DOPE   C37 6287   1.546   0.109  12.935  0.1439  0.1713  0.4552
   49DOPE   H7X 6288   1.640   0.166  12.922  1.1119 -1.2024  1.1218
   49DOPE   H7Y 6289   1.459   0.172  12.963  1.1299  1.0411  1.6627
   49DOPE   C38 6290   1.571  -0.008  13.033 -0.2821 -0.0420 -0.2552
   49DOPE   H8X 6291   1.674  -0.047  13.019  0.3495  0.7778  1.6916
   49DOPE   H8Y 6292   1.501  -0.089  13.004  0.7665 -0.8606 -0.5582
   49DOPE   C39 6293   1.538   0.032  13.173 -0.5075  0.1676  0.2271
   49DOPE   H9X 6294   1.432   0.051  13.193  0.0140  1.7560  1.7570
   49DOPE  C310 6295   1.622   0.063  13.278  0.4924 -0.4463 -0.0191
   49DOPE  H10X 6296   1.572   0.085  13.374 -4.3205 -0.9015 -2.0975
   49DOPE  C311 6297   1.768   0.050  13.275 -0.3516 -0.3116 -0.3837
   49DOPE  H11X 6298   1.788  -0.029  13.199 -0.4180  0.2788 -1.0214
   49DOPE  H11Y 6299   1.823   0.140  13.241 -0.2086 -0.3055 -0.1407
   49DOPE  C312 6300   1.822   0.005  13.416 -0.5071 -0.2664  0.0383
   49DOPE  H12X 6301   1.927  -0.018  13.389 -0.1482  1.3985 -0.1180
   49DOPE  H12Y 6302   1.763  -0.086  13.440 -0.9812  0.0168 -0.0301
   49DOPE  C313 6303   1.823   0.113  13.524  0.0638 -0.2078 -0.0952
   49DOPE  H13X 6304   1.899   0.194  13.519 -0.6808  0.6073  1.3402
   49DOPE  H13Y 6305   1.729   0.171  13.518  0.5267  0.6047  0.3675
   49DOPE  C314 6306   1.831   0.062  13.664 -1.0443  0.2987  0.0140
   49DOPE  H14X 6307   1.935   0.036  13.695 -0.8414  1.3330  0.2324
   49DOPE  H14Y 6308   1.754  -0.016  13.686 -0.6953 -1.3540 -3.8332
   49DOPE  C315 6309   1.801   0.172  13.768 -0.2132 -0.5110  0.2749
   49DOPE  H15X 6310   1.701   0.219  13.757  0.8864  2.4737  1.7981
   49DOPE  H15Y 6311   1.863   0.264  13.753  1.2344 -1.3760  0.7015
   49DOPE  C316 6312   1.818   0.116  13.911  0.0837 -0.3625  0.1766
   49DOPE  H16X 6313   1.922   0.088  13.935 -0.4132 -2.6968 -0.0991
   49DOPE  H16Y 6314   1.761   0.020  13.917 -0.7783  0.1868  1.2221
   49DOPE  C317 6315   1.769   0.208  14.017  0.3357 -0.0232  0.1740
   49DOPE  H17X 6316   1.837   0.296  14.008  1.7904 -1.2987 -2.3360
   49DOPE  H17Y 6317   1.668   0.252  14.006  0.8765  1.4177  0.6535
   49DOPE  C318 6318   1.790   0.173  14.167 -0.8367 -0.2462  0.5381
   49DOPE  H18X 6319   1.755   0.073  14.200 -2.7216  0.6664  1.4140
   49DOPE  H18Y 6320   1.896   0.185  14.199 -1.1805 -1.0371  2.1007
   49DOPE  H18Z 6321   1.735   0.242  14.234  0.8735 -0.0144  1.7937
   50DOPE     N 6322   2.016   4.330  11.991 -0.4733  0.1893  0.0492
   50DOPE   HN1 6323   2.111   4.291  11.977 -0.1109  1.3869 -1.0268
   50DOPE   HN2 6324   1.960   4.320  11.904 -1.6177  1.9735  0.5205
   50DOPE   HN3 6325   2.032   4.431  12.013  1.0573  0.2542 -1.2619
   50DOPE   C12 6326   1.932   4.269  12.106 -0.5216 -0.1444  0.6893
   50DOPE  H12A 6327   1.996   4.275  12.196 -1.2255 -0.3769  1.2112
   50DOPE  H12B 6328   1.912   4.163  12.080 -1.6227  0.6585 -2.1356
   50DOPE   C11 6329   1.797   4.352  12.117 -0.3508  0.0360 -0.4503
   50DOPE  H11A 6330   1.825   4.456  12.144 -0.5655  0.1170 -0.5311
   50DOPE  H11B 6331   1.742   4.315  12.206  0.7438  0.0034  0.2223
   50DOPE     P 6332   1.619   4.230  11.971  0.0532 -0.0041 -0.1840
   50DOPE   O13 6333   1.679   4.092  11.959 -0.5154 -0.7563 -0.6406
   50DOPE   O14 6334   1.533   4.272  11.860 -0.4913 -0.0861 -0.3619
   50DOPE   O11 6335   1.540   4.257  12.104  0.1725 -0.1942 -0.8167
   50DOPE   O12 6336   1.729   4.342  11.989  0.2367 -0.0740 -0.1211
   50DOPE    C1 6337   1.472   4.153  12.168  0.1100  0.1786 -0.0608
   50DOPE    HA 6338   1.497   4.052  12.130 -0.6441  0.2942 -0.8946
   50DOPE    HB 6339   1.367   4.164  12.134 -1.1462 -1.8939  2.7291
   50DOPE    C2 6340   1.467   4.155  12.326 -0.3480  0.4883 -0.2590
   50DOPE    HS 6341   1.424   4.256  12.345 -0.3040  0.1468  1.8358
   50DOPE   O21 6342   1.602   4.147  12.375 -0.0174 -1.2656 -0.1394
   50DOPE   C21 6343   1.609   4.225  12.491  0.0666  0.1939  0.4442
   50DOPE   O22 6344   1.528   4.265  12.563 -0.2315 -0.6296  0.2143
   50DOPE   C22 6345   1.759   4.233  12.511 -0.0612 -0.1589  1.1950
   50DOPE   H2R 6346   1.807   4.262  12.415 -0.5312  1.3800  1.3957
   50DOPE   H2S 6347   1.776   4.128  12.543 -1.5805  0.1914  3.3621
   50DOPE    C3 6348   1.375   4.055  12.388 -0.1025  0.4098 -0.2739
   50DOPE    HX 6349   1.388   4.042  12.498 -1.4040 -0.2691 -0.1890
   50DOPE    HY 6350   1.393   3.950  12.359 -2.7167 -0.8116  2.1234
   50DOPE   O31 6351   1.239   4.086  12.358  0.3402  0.1251 -0.2947
   50DOPE   C31 6352   1.178   4.171  12.442 -0.0219 -0.1715 -0.0607
   50DOPE   O32 6353   1.220   4.198  12.554 -0.0926 -0.8697  0.2076
   50DOPE   C32 6354   1.049   4.225  12.372  0.4103 -0.5778  0.6082
   50DOPE   H2X 6355   1.069   4.282  12.278 -1.5370 -0.9831 -0.0900
   50DOPE   H2Y 6356   0.994   4.134  12.341  1.6927 -1.0655 -0.3693
   50DOPE   C23 6357   1.797   4.333  12.626 -0.5205 -0.8422  0.0163
   50DOPE   H3R 6358   1.738   4.427  12.624 -0.8042 -1.0258 -1.3401
   50DOPE   H3S 6359   1.902   4.363  12.609 -0.6135 -0.2613  0.4421
   50DOPE   C24 6360   1.779   4.289  12.769  0.0445 -0.1233 -0.1377
   50DOPE   H4R 6361   1.824   4.189  12.787  1.0093  0.1784 -0.8010
   50DOPE   H4S 6362   1.668   4.284  12.778  0.0804 -0.9530 -0.0462
   50DOPE   C25 6363   1.831   4.395  12.872 -0.1357 -0.8263  0.4138
   50DOPE   H5R 6364   1.785   4.493  12.852  0.5351 -0.6508 -0.3344
   50DOPE   H5S 6365   1.942   4.400  12.874 -0.0488 -1.6961 -1.0352
   50DOPE   C26 6366   1.788   4.362  13.018 -0.8234  0.0385 -0.6708
   50DOPE   H6R 6367   1.844   4.270  13.043 -0.7829  0.0418 -0.7497
   50DOPE   H6S 6368   1.678   4.351  13.018 -1.0789  2.1610 -0.8263
   50DOPE   C27 6369   1.826   4.469  13.116 -0.0903 -0.0161  1.3553
   50DOPE   H7R 6370   1.768   4.558  13.087  0.9669 -0.3856 -2.3518
   50DOPE   H7S 6371   1.930   4.505  13.098 -0.1896  0.6192  1.9949
   50DOPE   C28 6372   1.815   4.433  13.262  0.1269 -0.8488 -0.4048
   50DOPE   H8R 6373   1.870   4.340  13.287  3.5912  0.6924 -1.5445
   50DOPE   H8S 6374   1.706   4.418  13.276 -0.6002 -0.3814 -4.3841
   50DOPE   C29 6375   1.866   4.543  13.354 -0.2440  0.7296  0.7411
   50DOPE   H9R 6376   1.920   4.623  13.301 -0.3473 -0.1660 -0.7664
   50DOPE  C210 6377   1.864   4.525  13.484 -0.5354  0.6969 -0.7626
   50DOPE  H10R 6378   1.914   4.602  13.545  1.5840 -0.1843 -1.2837
   50DOPE  C211 6379   1.794   4.409  13.559  0.2925  0.0456 -0.4567
   50DOPE  H11R 6380   1.869   4.331  13.583 -0.8141 -0.3747  1.8898
   50DOPE  H11S 6381   1.707   4.367  13.503 -0.4791  1.6727 -0.5264
   50DOPE  C212 6382   1.718   4.451  13.686 -0.8021  0.1372 -0.3679
   50DOPE  H12R 6383   1.649   4.369  13.717  0.3017 -0.3116  1.0218
   50DOPE  H12S 6384   1.659   4.540  13.655  0.1565  1.2307  0.7969
   50DOPE  C213 6385   1.816   4.491  13.793 -0.0756  0.0405  0.0002
   50DOPE  H13R 6386   1.880   4.576  13.762  0.0753 -0.5254 -1.3265
   50DOPE  H13S 6387   1.882   4.405  13.819  1.7000  0.6132 -2.3383
   50DOPE  C214 6388   1.744   4.527  13.924 -0.4324 -0.0840  0.1148
   50DOPE  H14R 6389   1.685   4.620  13.913  3.1945  2.3118 -1.0228
   50DOPE  H14S 6390   1.828   4.543  13.995 -0.2450 -2.1814  0.4275
   50DOPE  C215 6391   1.663   4.412  13.992  0.5332  0.4537 -0.2801
   50DOPE  H15R 6392   1.720   4.318  13.976 -0.7996 -0.4874  0.2771
   50DOPE  H15S 6393   1.567   4.394  13.937 -0.2441 -1.2059  1.4889
   50DOPE  C216 6394   1.647   4.428  14.142 -0.5805 -0.3533 -0.1068
   50DOPE  H16R 6395   1.591   4.519  14.174  0.8426  0.1281  1.1219
   50DOPE  H16S 6396   1.740   4.441  14.201 -0.7851  3.2391 -0.3178
   50DOPE  C217 6397   1.556   4.318  14.190  0.0841  0.8423 -0.1712
   50DOPE  H17R 6398   1.604   4.220  14.170 -0.4043  0.5509  0.0810
   50DOPE  H17S 6399   1.471   4.318  14.118  0.3971 -0.6815 -0.5774
   50DOPE  C218 6400   1.517   4.333  14.337 -0.1347 -0.1786 -0.2406
   50DOPE  H18R 6401   1.478   4.434  14.362 -0.0694 -0.5496  1.4990
   50DOPE  H18S 6402   1.606   4.315  14.403 -1.1066 -1.9412  0.6699
   50DOPE  H18T 6403   1.448   4.253  14.370  2.4362 -2.0507  0.9663
   50DOPE   C33 6404   0.975   4.334  12.458  0.4670 -0.1663  0.0480
   50DOPE   H3X 6405   0.904   4.385  12.390  0.5851 -1.9837 -1.5242
   50DOPE   H3Y 6406   1.049   4.414  12.481 -0.7788  0.9400  0.2987
   50DOPE   C34 6407   0.903   4.278  12.572  0.7266  0.0360 -0.1409
   50DOPE   H4X 6408   0.814   4.224  12.532 -0.3481  0.7907  1.1399
   50DOPE   H4Y 6409   0.964   4.201  12.623 -0.8098 -1.8385 -1.0024
   50DOPE   C35 6410   0.856   4.378  12.682 -0.3115 -0.4327  0.1227
   50DOPE   H5X 6411   0.777   4.331  12.744 -1.7608  1.2452 -0.3568
   50DOPE   H5Y 6412   0.829   4.469  12.623 -0.0439 -1.6399 -1.9510
   50DOPE   C36 6413   0.965   4.422  12.784 -0.0437  0.1310  0.2367
   50DOPE   H6X 6414   1.042   4.476  12.725  0.1411 -1.0168 -0.5838
   50DOPE   H6Y 6415   1.022   4.332  12.816 -0.9055 -0.7477 -0.6531
   50DOPE   C37 6416   0.891   4.507  12.883 -0.5632  0.3064 -0.9375
   50DOPE   H7X 6417   0.867   4.600  12.828  1.4080 -0.4366 -3.2209
   50DOPE   H7Y 6418   0.799   4.452  12.913  0.7626 -1.6523 -0.2351
   50DOPE   C38 6419   0.978   4.548  13.009  0.3927 -0.2624  0.0688
   50DOPE   H8X 6420   0.921   4.613  13.079  0.7986 -1.1168  1.2232
   50DOPE   H8Y 6421   1.053   4.620  12.969  0.6297  1.2964  3.0444
   50DOPE   C39 6422   1.043   4.441  13.092  0.6134 -0.1442  0.2729
   50DOPE   H9X 6423   1.148   4.444  13.057 -0.2938  1.3193 -2.6532
   50DOPE  C310 6424   0.987   4.359  13.189  0.2161 -0.4353  0.1481
   50DOPE  H10X 6425   1.042   4.277  13.237 -0.1850  0.2691  1.8943
   50DOPE  C311 6426   0.840   4.354  13.227  0.1445  0.0877 -0.4516
   50DOPE  H11X 6427   0.788   4.438  13.175  1.5674  2.1236  1.1948
   50DOPE  H11Y 6428   0.798   4.261  13.185  0.6031  0.4411 -1.7320
   50DOPE  C312 6429   0.802   4.365  13.377 -0.2195  0.5556  0.2631
   50DOPE  H12X 6430   0.844   4.277  13.430  0.1299  1.3383  1.3312
   50DOPE  H12Y 6431   0.692   4.364  13.394 -0.3683 -1.0311 -0.6392
   50DOPE  C313 6432   0.859   4.501  13.431  0.1974  0.0478  0.3812
   50DOPE  H13X 6433   0.969   4.495  13.423  0.0419 -2.1973 -0.9779
   50DOPE  H13Y 6434   0.827   4.585  13.365  2.8729 -0.4250 -1.6834
   50DOPE  C314 6435   0.821   4.524  13.574 -0.1071 -0.2132 -0.1442
   50DOPE  H14X 6436   0.711   4.525  13.586  0.0613  1.4054  1.7969
   50DOPE  H14Y 6437   0.860   4.624  13.602 -0.5703 -0.3859  1.1838
   50DOPE  C315 6438   0.871   4.412  13.671 -0.6860  0.2093 -0.3170
   50DOPE  H15X 6439   0.982   4.407  13.667 -0.7334 -2.9055 -0.7003
   50DOPE  H15Y 6440   0.840   4.306  13.658  1.6186 -0.7070  0.9728
   50DOPE  C316 6441   0.839   4.456  13.814  0.5178  0.3757  0.2078
   50DOPE  H16X 6442   0.737   4.497  13.801  0.0209 -0.8554  0.0759
   50DOPE  H16Y 6443   0.907   4.537  13.848  1.1506  0.5090 -1.3137
   50DOPE  C317 6444   0.865   4.354  13.929  0.1560 -0.3338  0.4032
   50DOPE  H17X 6445   0.826   4.254  13.901  0.3728 -1.3375  3.4157
   50DOPE  H17Y 6446   0.973   4.336  13.947  0.4185  0.3080 -0.4455
   50DOPE  C318 6447   0.807   4.410  14.060 -0.2442  0.3757  0.3260
   50DOPE  H18X 6448   0.864   4.379  14.150 -1.1567 -0.0914  0.7526
   50DOPE  H18Y 6449   0.823   4.520  14.066  0.9115  0.1521  1.7447
   50DOPE  H18Z 6450   0.697   4.400  14.075 -0.3536  0.4211 -0.4198
   51DOPE     N 6451   3.284   0.429  11.810  0.3505 -0.1023 -0.7529
   51DOPE   HN1 6452   3.313   0.333  11.838 -0.6460 -0.8306 -2.1149
   51DOPE   HN2 6453   3.189   0.435  11.768  0.6048  0.9335 -1.1962
   51DOPE   HN3 6454   3.348   0.462  11.735  1.8976 -1.4094 -0.0725
   51DOPE   C12 6455   3.290   0.529  11.920  0.2852  0.0003  0.6853
   51DOPE  H12A 6456   3.198   0.503  11.978 -1.2595  0.3789 -1.4501
   51DOPE  H12B 6457   3.276   0.633  11.882 -3.6266 -1.3228 -2.1683
   51DOPE   C11 6458   3.428   0.519  11.989  0.9088 -0.0855  0.6757
   51DOPE  H11A 6459   3.441   0.414  12.021 -1.3371 -1.3206 -1.9535
   51DOPE  H11B 6460   3.425   0.594  12.071 -3.7140  1.3184 -0.4365
   51DOPE     P 6461   3.663   0.523  11.861  0.0651  0.1643  0.0668
   51DOPE   O13 6462   3.735   0.618  11.769  0.0448  0.7699  0.2366
   51DOPE   O14 6463   3.656   0.388  11.816  0.5495  0.6295  0.8197
   51DOPE   O11 6464   3.729   0.519  12.004 -0.3035 -0.2551 -0.1604
   51DOPE   O12 6465   3.521   0.579  11.899 -0.1950 -0.2111  0.0595
   51DOPE    C1 6466   3.740   0.638  12.083 -0.0289 -0.0097 -0.4627
   51DOPE    HA 6467   3.646   0.692  12.107  0.6265  0.3288  1.5490
   51DOPE    HB 6468   3.806   0.715  12.037  1.8727 -0.3684  1.4799
   51DOPE    C2 6469   3.803   0.613  12.230 -0.1033 -0.8016  0.7234
   51DOPE    HS 6470   3.895   0.551  12.218  0.7047  0.3044  1.0107
   51DOPE   O21 6471   3.701   0.552  12.313  0.2427 -0.2668 -0.1307
   51DOPE   C21 6472   3.679   0.421  12.297 -0.4107 -0.3075 -0.8205
   51DOPE   O22 6473   3.759   0.345  12.240  0.8748 -0.0962  0.0649
   51DOPE   C22 6474   3.544   0.378  12.363 -0.3899 -0.3797  0.1605
   51DOPE   H2R 6475   3.482   0.355  12.274  0.4263 -1.3999 -0.1807
   51DOPE   H2S 6476   3.503   0.467  12.414  0.1792  1.8232 -2.9508
   51DOPE    C3 6477   3.837   0.750  12.288 -0.6061  0.7711 -0.2897
   51DOPE    HX 6478   3.744   0.810  12.279 -1.0962 -0.0684 -0.9683
   51DOPE    HY 6479   3.915   0.798  12.224 -0.3512  0.8463  0.0712
   51DOPE   O31 6480   3.874   0.741  12.424  0.2410 -0.4113  0.0129
   51DOPE   C31 6481   3.854   0.850  12.492  0.2567  0.0580  0.0632
   51DOPE   O32 6482   3.852   0.962  12.444 -0.0461  0.1109 -0.6772
   51DOPE   C32 6483   3.833   0.814  12.636 -0.6677  0.5510 -0.3171
   51DOPE   H2X 6484   3.730   0.773  12.642  0.1870 -1.9173 -1.2868
   51DOPE   H2Y 6485   3.900   0.733  12.671  1.6214  2.4702 -0.0459
   51DOPE   C23 6486   3.554   0.262  12.452 -0.3869  0.2496 -0.0699
   51DOPE   H3R 6487   3.585   0.173  12.394 -1.9131 -0.7696  0.6226
   51DOPE   H3S 6488   3.452   0.242  12.493 -0.3863  1.3518  0.5243
   51DOPE   C24 6489   3.643   0.288  12.575 -0.6270 -0.4864 -0.3232
   51DOPE   H4R 6490   3.752   0.288  12.555 -0.0272 -0.0816  2.4510
   51DOPE   H4S 6491   3.623   0.202  12.643 -0.5037 -1.3159 -1.2994
   51DOPE   C25 6492   3.616   0.419  12.649 -0.1124  0.0616  0.0061
   51DOPE   H5R 6493   3.506   0.427  12.659  0.1346  1.4552  2.3102
   51DOPE   H5S 6494   3.644   0.508  12.589  1.5728 -0.3535  0.1234
   51DOPE   C26 6495   3.697   0.440  12.783  0.6417 -0.0692  0.0672
   51DOPE   H6R 6496   3.698   0.544  12.821 -0.9174 -0.4782  1.3267
   51DOPE   H6S 6497   3.799   0.401  12.761  0.3754 -1.2091  0.7930
   51DOPE   C27 6498   3.632   0.355  12.896 -0.4621  0.1723  0.2671
   51DOPE   H7R 6499   3.708   0.343  12.976  0.9744  0.5223 -1.0071
   51DOPE   H7S 6500   3.621   0.252  12.857  2.1734 -0.0557 -0.0368
   51DOPE   C28 6501   3.505   0.404  12.961 -0.2082  0.1198  0.5185
   51DOPE   H8R 6502   3.466   0.312  13.007 -0.0293 -0.7622 -1.0159
   51DOPE   H8S 6503   3.437   0.432  12.877 -0.3027  0.4179  0.6915
   51DOPE   C29 6504   3.528   0.524  13.046 -0.5282 -0.0597 -0.1759
   51DOPE   H9R 6505   3.567   0.614  12.996  0.7132 -0.7407 -0.4949
   51DOPE  C210 6506   3.521   0.521  13.184 -0.1490 -0.1317  1.1984
   51DOPE  H10R 6507   3.557   0.611  13.236 -1.0117  1.0207 -0.1239
   51DOPE  C211 6508   3.482   0.402  13.271 -0.9368  0.6826 -0.0316
   51DOPE  H11R 6509   3.452   0.312  13.213 -1.9983  0.6359  0.5547
   51DOPE  H11S 6510   3.399   0.436  13.337 -0.2659  2.9880 -0.2826
   51DOPE  C212 6511   3.592   0.363  13.378 -0.2201  0.2368  0.6142
   51DOPE  H12R 6512   3.685   0.347  13.320  0.5931  1.5119  1.5088
   51DOPE  H12S 6513   3.568   0.267  13.428  0.5430 -0.9824 -1.2352
   51DOPE  C213 6514   3.631   0.471  13.479  0.1475 -0.1308 -0.8600
   51DOPE  H13R 6515   3.644   0.557  13.410  0.5158 -1.3528 -2.3821
   51DOPE  H13S 6516   3.734   0.457  13.518  0.4729 -2.0650 -2.2456
   51DOPE  C214 6517   3.533   0.483  13.602 -0.7161  0.3661  0.3669
   51DOPE  H14R 6518   3.600   0.463  13.688  0.0867 -1.7839 -0.6863
   51DOPE  H14S 6519   3.458   0.400  13.598  0.3577 -0.5878 -1.1331
   51DOPE  C215 6520   3.463   0.620  13.613 -0.0820 -0.5809  0.6042
   51DOPE  H15R 6521   3.385   0.620  13.692 -2.1276  1.2433 -1.2463
   51DOPE  H15S 6522   3.393   0.631  13.527  1.8814  0.9834 -0.8975
   51DOPE  C216 6523   3.548   0.751  13.646  0.2203  0.0938  0.3827
   51DOPE  H16R 6524   3.632   0.739  13.574  0.6606  2.1889  0.5041
   51DOPE  H16S 6525   3.586   0.728  13.747  1.3983 -3.0463 -0.6324
   51DOPE  C217 6526   3.475   0.884  13.623  0.6106  0.0983 -0.2549
   51DOPE  H17R 6527   3.377   0.872  13.673  0.4091 -2.7351 -1.1548
   51DOPE  H17S 6528   3.444   0.884  13.516  1.9484 -4.3206 -0.8665
   51DOPE  C218 6529   3.548   1.006  13.674  0.3147  0.4640  0.1193
   51DOPE  H18R 6530   3.480   1.094  13.672 -0.7428 -0.3125  0.6074
   51DOPE  H18S 6531   3.639   1.020  13.612  0.6265  2.2566  0.9076
   51DOPE  H18T 6532   3.591   0.988  13.775  2.0957  1.7503 -0.3507
   51DOPE   C33 6533   3.846   0.920  12.747 -0.1581 -0.3393  0.4568
   51DOPE   H3X 6534   3.756   0.985  12.744 -0.9598 -1.4036  0.9796
   51DOPE   H3Y 6535   3.932   0.990  12.740 -1.2215  1.0819  0.9364
   51DOPE   C34 6536   3.842   0.863  12.894  0.0681  0.3733 -0.3623
   51DOPE   H4X 6537   3.750   0.801  12.892 -1.7740  2.8778 -3.3704
   51DOPE   H4Y 6538   3.940   0.816  12.917 -0.0586 -0.5705 -1.6260
   51DOPE   C35 6539   3.829   0.978  12.998  1.0689  0.9003  0.0081
   51DOPE   H5X 6540   3.739   1.031  12.960  0.9484  0.4547 -0.3341
   51DOPE   H5Y 6541   3.914   1.049  12.994  1.3119  0.5523 -1.8893
   51DOPE   C36 6542   3.806   0.932  13.151  0.4874 -0.4822  0.9610
   51DOPE   H6X 6543   3.727   0.855  13.163  0.1922 -0.2440  0.5706
   51DOPE   H6Y 6544   3.776   1.014  13.219 -0.0670 -0.7376  1.0242
   51DOPE   C37 6545   3.929   0.849  13.201  0.2990 -0.2125  0.4542
   51DOPE   H7X 6546   3.943   0.766  13.129  3.1213  0.7379 -0.1934
   51DOPE   H7Y 6547   4.026   0.902  13.194  1.4325 -2.2362  0.2629
   51DOPE   C38 6548   3.900   0.783  13.336 -0.4274  0.2345 -0.4266
   51DOPE   H8X 6549   3.984   0.720  13.374 -0.1898  1.7683  1.7615
   51DOPE   H8Y 6550   3.820   0.706  13.331 -0.6575  0.4102  0.3853
   51DOPE   C39 6551   3.865   0.883  13.445  0.6533  0.0985 -0.5595
   51DOPE   H9X 6552   3.791   0.959  13.418  0.0939 -0.2760 -0.0928
   51DOPE  C310 6553   3.905   0.884  13.569 -0.5437 -0.3791  0.7716
   51DOPE  H10X 6554   3.865   0.961  13.637 -0.5743 -0.4726  0.8603
   51DOPE  C311 6555   3.995   0.792  13.638  0.1588  0.3217 -0.3705
   51DOPE  H11X 6556   4.057   0.728  13.571 -0.0252  0.1620 -0.3907
   51DOPE  H11Y 6557   4.069   0.843  13.703 -0.1104 -0.8752  0.9355
   51DOPE  C312 6558   3.915   0.699  13.727  0.0927 -0.3085  0.2533
   51DOPE  H12X 6559   3.965   0.600  13.737 -1.0084 -0.9180 -0.0184
   51DOPE  H12Y 6560   3.817   0.677  13.679  0.3312  2.8009 -1.9294
   51DOPE  C313 6561   3.866   0.751  13.861 -0.4324  0.1529 -0.1934
   51DOPE  H13X 6562   3.958   0.792  13.909 -0.4027  0.6232 -0.6389
   51DOPE  H13Y 6563   3.793   0.835  13.858 -1.4937 -0.6383  2.0454
   51DOPE  C314 6564   3.817   0.640  13.958 -0.0641  0.3168  0.0078
   51DOPE  H14X 6565   3.879   0.548  13.952  1.3331  1.0840  1.7982
   51DOPE  H14Y 6566   3.719   0.609  13.914 -0.5101 -1.1536  1.9253
   51DOPE  C315 6567   3.795   0.697  14.103  0.3997 -0.0528  0.4858
   51DOPE  H15X 6568   3.742   0.792  14.082 -1.3477 -1.4787 -2.2166
   51DOPE  H15Y 6569   3.893   0.714  14.151  0.8475  0.4266 -0.5663
   51DOPE  C316 6570   3.726   0.603  14.206  0.7023  0.5890  0.0954
   51DOPE  H16X 6571   3.722   0.663  14.299  2.7504  0.0129  0.6016
   51DOPE  H16Y 6572   3.787   0.512  14.224 -1.6591 -1.2831 -0.7354
   51DOPE  C317 6573   3.583   0.555  14.163  0.1378 -0.1962 -0.6859
   51DOPE  H17X 6574   3.517   0.643  14.145 -0.4902 -0.6084 -0.4320
   51DOPE  H17Y 6575   3.576   0.504  14.064 -0.4681 -0.1290 -0.6815
   51DOPE  C318 6576   3.520   0.470  14.276  0.3318  0.4460 -0.6800
   51DOPE  H18X 6577   3.514   0.507  14.380  0.2126 -0.9629 -0.1626
   51DOPE  H18Y 6578   3.423   0.431  14.238  0.0033  0.6630 -0.0644
   51DOPE  H18Z 6579   3.589   0.383  14.279  2.0139  1.7602  0.1770
   52DOPE     N 6580   1.044   4.677  11.883  0.2710 -0.2579  0.1009
   52DOPE   HN1 6581   0.980   4.709  11.809 -1.0353 -3.4127 -0.2651
   52DOPE   HN2 6582   0.997   4.695  11.974  0.2754 -1.1031  0.2763
   52DOPE   HN3 6583   1.126   4.742  11.883 -0.0733  0.1819 -0.9144
   52DOPE   C12 6584   1.089   4.535  11.870  0.1417 -0.3213  0.8348
   52DOPE  H12A 6585   1.018   4.471  11.926 -0.7027 -0.8494 -0.7784
   52DOPE  H12B 6586   1.184   4.527  11.928  0.3903  1.1858  0.6996
   52DOPE   C11 6587   1.120   4.503  11.730  0.3618 -0.0252 -0.6994
   52DOPE  H11A 6588   1.172   4.405  11.726 -1.5799 -1.1035 -1.1018
   52DOPE  H11B 6589   1.180   4.577  11.673 -0.3876 -0.3346 -1.9208
   52DOPE     P 6590   0.916   4.357  11.633  0.2857 -0.0025 -0.2074
   52DOPE   O13 6591   1.018   4.249  11.627  0.7406 -0.1572  0.0391
   52DOPE   O14 6592   0.835   4.377  11.515  0.3922 -0.2431  0.2852
   52DOPE   O11 6593   0.832   4.354  11.766  0.1001 -0.2694 -0.3155
   52DOPE   O12 6594   1.001   4.487  11.655  0.5773  0.0470 -0.4577
   52DOPE    C1 6595   0.725   4.444  11.798 -0.1533 -0.4537  0.0565
   52DOPE    HA 6596   0.631   4.410  11.750 -1.2166  1.3496  0.7518
   52DOPE    HB 6597   0.740   4.541  11.746 -0.8607  0.0467  0.7678
   52DOPE    C2 6598   0.717   4.484  11.946 -0.1779  0.2692 -0.7836
   52DOPE    HS 6599   0.818   4.528  11.960 -0.8256  2.2369 -1.7836
   52DOPE   O21 6600   0.689   4.368  12.019 -0.1179 -0.4792 -0.1284
   52DOPE   C21 6601   0.735   4.354  12.135 -0.4258 -1.0318  0.0898
   52DOPE   O22 6602   0.820   4.429  12.182  0.3752  0.2459 -0.7631
   52DOPE   C22 6603   0.678   4.226  12.196  0.0229 -0.0731  0.0028
   52DOPE   H2R 6604   0.766   4.164  12.225  1.0468  0.4231 -1.9079
   52DOPE   H2S 6605   0.617   4.177  12.117 -0.7754 -1.1283  1.2212
   52DOPE    C3 6606   0.601   4.584  11.961  0.3003 -0.0330  0.5688
   52DOPE    HX 6607   0.502   4.533  11.952 -0.1707  0.7488  1.2500
   52DOPE    HY 6608   0.613   4.662  11.883  2.8681  1.2749  2.1183
   52DOPE   O31 6609   0.613   4.668  12.077  0.6135  0.3103 -0.2143
   52DOPE   C31 6610   0.711   4.744  12.096 -0.7907 -0.3631 -0.3537
   52DOPE   O32 6611   0.820   4.734  12.041 -0.2389  0.5259 -0.3011
   52DOPE   C32 6612   0.676   4.832  12.213  0.3830  0.3594 -0.3618
   52DOPE   H2X 6613   0.745   4.919  12.210 -0.8878  1.4024 -0.1467
   52DOPE   H2Y 6614   0.571   4.857  12.189  0.6809  0.3779 -1.7421
   52DOPE   C23 6615   0.575   4.260  12.306  0.4472  0.1940 -0.5057
   52DOPE   H3R 6616   0.632   4.322  12.379  1.6697  0.2637 -1.4766
   52DOPE   H3S 6617   0.538   4.170  12.359  0.3332 -0.4333 -1.6228
   52DOPE   C24 6618   0.447   4.322  12.253  0.3079  0.7388  0.0653
   52DOPE   H4R 6619   0.393   4.257  12.181  0.3009 -0.9863  1.5437
   52DOPE   H4S 6620   0.462   4.419  12.201 -0.4308  1.3687  1.0011
   52DOPE   C25 6621   0.346   4.349  12.364 -0.8337  0.0394 -0.6771
   52DOPE   H5R 6622   0.331   4.257  12.425 -0.8126  1.3823  1.4723
   52DOPE   H5S 6623   0.245   4.367  12.321 -1.9092 -3.1090  0.2687
   52DOPE   C26 6624   0.389   4.454  12.467  0.8646  0.7016  0.1915
   52DOPE   H6R 6625   0.406   4.548  12.411  0.4277  1.4283  1.2504
   52DOPE   H6S 6626   0.492   4.439  12.507  1.9883 -1.1895 -3.0907
   52DOPE   C27 6627   0.290   4.466  12.587 -0.4094 -0.3384 -0.1173
   52DOPE   H7R 6628   0.248   4.365  12.604  1.5029 -1.2789 -0.6917
   52DOPE   H7S 6629   0.217   4.548  12.574  1.9140  1.7175 -0.9826
   52DOPE   C28 6630   0.363   4.523  12.701  0.0330 -1.1611 -0.2129
   52DOPE   H8R 6631   0.294   4.557  12.781 -0.8620 -1.3912 -0.8736
   52DOPE   H8S 6632   0.418   4.614  12.669 -0.2714 -1.4593 -1.6308
   52DOPE   C29 6633   0.452   4.415  12.762  0.3403  0.0036 -0.1773
   52DOPE   H9R 6634   0.499   4.340  12.698 -0.1113  0.6185 -1.2496
   52DOPE  C210 6635   0.473   4.401  12.898 -0.7072 -0.1024 -0.0922
   52DOPE  H10R 6636   0.551   4.334  12.936 -0.4183 -0.4892 -1.3122
   52DOPE  C211 6637   0.404   4.480  13.007 -0.1543 -0.0761  0.3676
   52DOPE  H11R 6638   0.294   4.460  13.007 -0.6290  2.2383  0.6555
   52DOPE  H11S 6639   0.420   4.589  12.992  0.9176 -0.1569  0.8868
   52DOPE  C212 6640   0.455   4.431  13.135  0.1692  0.1818  0.7897
   52DOPE  H12R 6641   0.558   4.471  13.145 -0.0201  0.2351  2.9001
   52DOPE  H12S 6642   0.455   4.320  13.141 -2.3573 -0.1957 -2.8600
   52DOPE  C213 6643   0.369   4.479  13.247 -0.1465  0.3446 -0.0186
   52DOPE  H13R 6644   0.270   4.436  13.224 -0.2957  1.5438 -1.8698
   52DOPE  H13S 6645   0.344   4.587  13.234 -1.4465  0.1444  0.6853
   52DOPE  C214 6646   0.416   4.459  13.385 -0.1215 -0.3004  0.2706
   52DOPE  H14R 6647   0.507   4.520  13.401 -0.1541  0.6368 -2.5609
   52DOPE  H14S 6648   0.443   4.352  13.400  1.4885 -0.1317 -1.1916
   52DOPE  C215 6649   0.320   4.510  13.498 -0.2394  0.7440  0.4429
   52DOPE  H15R 6650   0.273   4.605  13.467  0.2052  1.1334  0.9434
   52DOPE  H15S 6651   0.390   4.539  13.579  0.2044  1.5304 -0.2171
   52DOPE  C216 6652   0.219   4.401  13.545 -0.1148  0.5577 -0.5713
   52DOPE  H16R 6653   0.147   4.358  13.472  0.4123 -2.4362  0.5413
   52DOPE  H16S 6654   0.159   4.458  13.618  0.8728 -0.5944  1.2158
   52DOPE  C217 6655   0.286   4.284  13.609 -0.2620  0.2439  0.2471
   52DOPE  H17R 6656   0.361   4.231  13.546  0.5862 -1.6751  2.6887
   52DOPE  H17S 6657   0.200   4.214  13.624 -1.5290  1.9912  1.4996
   52DOPE  C218 6658   0.354   4.312  13.743 -0.2502  0.3634 -0.2670
   52DOPE  H18R 6659   0.369   4.223  13.808  0.7129  0.0072 -0.9591
   52DOPE  H18S 6660   0.458   4.353  13.739 -0.1617  0.3672  1.2385
   52DOPE  H18T 6661   0.293   4.388  13.797  0.2699  0.8340 -0.3226
   52DOPE   C33 6662   0.677   4.755  12.347  0.1526  0.6747  0.4144
   52DOPE   H3X 6663   0.774   4.722  12.390 -1.8036 -0.5308  4.4760
   52DOPE   H3Y 6664   0.605   4.670  12.347  1.6742 -0.6692  0.8426
   52DOPE   C34 6665   0.635   4.854  12.455  0.2288 -0.1578  0.6978
   52DOPE   H4X 6666   0.691   4.946  12.430  2.3649 -1.1255  1.7052
   52DOPE   H4Y 6667   0.527   4.871  12.435  0.9698  2.0741 -1.8282
   52DOPE   C35 6668   0.662   4.800  12.593 -0.2243  0.6413  0.3704
   52DOPE   H5X 6669   0.769   4.775  12.608 -0.1147 -0.1906 -1.4825
   52DOPE   H5Y 6670   0.604   4.706  12.598  2.3176 -1.0216  0.3524
   52DOPE   C36 6671   0.603   4.883  12.706  0.2487 -0.2028 -0.3254
   52DOPE   H6X 6672   0.498   4.908  12.678 -0.0466 -0.5385  0.4398
   52DOPE   H6Y 6673   0.664   4.976  12.715  0.0682 -0.1831  0.9202
   52DOPE   C37 6674   0.597   4.804  12.844 -0.6158 -0.2309 -0.3058
   52DOPE   H7X 6675   0.526   4.721  12.823  0.2800 -0.3422 -3.3508
   52DOPE   H7Y 6676   0.691   4.752  12.872  0.2950  2.3198  1.8150
   52DOPE   C38 6677   0.555   4.889  12.961  0.4188  0.1422 -0.2634
   52DOPE   H8X 6678   0.510   4.823  13.039  0.7799  0.8210  0.5360
   52DOPE   H8Y 6679   0.478   4.960  12.925 -0.6430  0.5170  2.5110
   52DOPE   C39 6680   0.681   4.948  13.020  0.0669 -0.6029 -0.4982
   52DOPE   H9X 6681   0.727   5.023  12.955  0.9602 -1.1983 -0.5712
   52DOPE  C310 6682   0.728   4.932  13.148 -0.3012  0.0563  0.2434
   52DOPE  H10X 6683   0.815   4.990  13.182  0.3649 -1.7574  1.7947
   52DOPE  C311 6684   0.680   4.835  13.256  0.4473 -0.6758 -0.7702
   52DOPE  H11X 6685   0.605   4.761  13.220  0.0725  0.6223 -2.8490
   52DOPE  H11Y 6686   0.766   4.777  13.294  1.3165  2.1813  2.1900
   52DOPE  C312 6687   0.622   4.918  13.372  0.6019  0.3180  0.1302
   52DOPE  H12X 6688   0.521   4.951  13.337  2.0989  2.5184 -2.5109
   52DOPE  H12Y 6689   0.682   5.006  13.402  1.6310  0.1546 -1.3451
   52DOPE  C313 6690   0.604   4.827  13.492 -0.4535  0.9985  0.0552
   52DOPE  H13X 6691   0.552   4.732  13.470 -0.7201  0.5646  2.2853
   52DOPE  H13Y 6692   0.703   4.796  13.531 -1.0034 -1.9045 -0.6379
   52DOPE  C314 6693   0.519   4.896  13.602 -0.1191 -0.5855  0.4632
   52DOPE  H14X 6694   0.417   4.908  13.562  0.5938  1.1101 -0.9659
   52DOPE  H14Y 6695   0.563   4.998  13.602  1.4984 -1.2301 -1.0848
   52DOPE  C315 6696   0.534   4.823  13.733 -0.4015 -0.7124  0.0348
   52DOPE  H15X 6697   0.643   4.816  13.754  0.2447  0.9980 -2.3013
   52DOPE  H15Y 6698   0.496   4.722  13.707  0.0375 -1.3075  1.5777
   52DOPE  C316 6699   0.461   4.884  13.854 -0.4867  0.0082  0.5780
   52DOPE  H16X 6700   0.354   4.885  13.823  0.7109 -0.6604 -4.5096
   52DOPE  H16Y 6701   0.510   4.983  13.870  3.1854 -1.7885  1.4199
   52DOPE  C317 6702   0.487   4.809  13.985  0.1658 -0.2344 -0.4324
   52DOPE  H17X 6703   0.472   4.699  13.988  0.6933 -0.3063 -0.2940
   52DOPE  H17Y 6704   0.598   4.817  13.997  0.2267 -0.1658 -1.0253
   52DOPE  C318 6705   0.409   4.876  14.105  0.2743  0.7087  0.4518
   52DOPE  H18X 6706   0.443   4.981  14.109  1.2153  0.3967  0.9674
   52DOPE  H18Y 6707   0.300   4.868  14.082  0.5103  0.0776 -0.5032
   52DOPE  H18Z 6708   0.425   4.822  14.200  1.9208 -0.5001 -0.4564
   53DOPE     N 6709   5.483   1.135  11.975 -0.1483 -0.9130 -1.0125
   53DOPE   HN1 6710   5.522   1.051  11.926  0.5336 -1.1447 -0.1053
   53DOPE   HN2 6711   5.550   1.208  11.945 -0.1588  1.0827  3.0492
   53DOPE   HN3 6712   5.488   1.132  12.079 -0.9288  0.9823 -0.8937
   53DOPE   C12 6713   5.347   1.176  11.919 -0.0574  0.2616  0.3150
   53DOPE  H12A 6714   5.353   1.176  11.808  1.0288 -1.2586  0.3457
   53DOPE  H12B 6715   5.340   1.282  11.953  1.4438  0.2287  0.7939
   53DOPE   C11 6716   5.246   1.081  11.981  0.1722 -0.4294  0.0552
   53DOPE  H11A 6717   5.148   1.126  11.956  0.9388 -0.0533 -2.4769
   53DOPE  H11B 6718   5.251   1.082  12.092 -2.0887 -0.7975  0.2109
   53DOPE     P 6719   5.153   0.873  11.829  0.0216 -0.0895 -0.3560
   53DOPE   O13 6720   5.205   0.737  11.825  0.4627  0.6877  0.2645
   53DOPE   O14 6721   5.129   0.941  11.706 -0.4559  0.2556  0.0345
   53DOPE   O11 6722   5.021   0.875  11.912  0.5135 -0.8196  0.7861
   53DOPE   O12 6723   5.260   0.952  11.917  0.0483  0.4080  0.8793
   53DOPE    C1 6724   4.960   0.769  11.982 -0.1804 -0.5589  0.1407
   53DOPE    HA 6725   4.953   0.676  11.921  5.0797 -1.3794  0.3167
   53DOPE    HB 6726   4.854   0.800  11.995  0.1868  0.9706 -0.3063
   53DOPE    C2 6727   5.020   0.743  12.123  0.6023  0.5251 -0.3792
   53DOPE    HS 6728   5.126   0.716  12.104  0.6146 -0.8467  1.3613
   53DOPE   O21 6729   4.943   0.639  12.194 -0.0743 -0.4924 -0.6741
   53DOPE   C21 6730   5.011   0.524  12.211  1.0081  0.4026 -0.5036
   53DOPE   O22 6731   5.111   0.486  12.150 -0.1563 -0.3652  0.3272
   53DOPE   C22 6732   4.952   0.451  12.330 -0.4534  0.0009  0.0106
   53DOPE   H2R 6733   4.908   0.353  12.302  0.9069 -0.8042  0.5929
   53DOPE   H2S 6734   4.870   0.513  12.373 -0.5751 -0.8890  1.1172
   53DOPE    C3 6735   5.022   0.878  12.207  0.3187  0.1982  0.1826
   53DOPE    HX 6736   4.915   0.905  12.217  0.1562  0.0587 -1.1055
   53DOPE    HY 6737   5.071   0.947  12.135  0.0477 -0.6746 -0.8551
   53DOPE   O31 6738   5.103   0.875  12.325 -0.3586 -0.3844 -0.3529
   53DOPE   C31 6739   5.035   0.860  12.441 -0.2302  0.3757 -0.3711
   53DOPE   O32 6740   4.917   0.837  12.451 -0.0073 -0.3475 -0.0515
   53DOPE   C32 6741   5.140   0.871  12.563  0.7150  0.7248  0.6544
   53DOPE   H2X 6742   5.226   0.803  12.545  1.1657  1.8689 -2.0279
   53DOPE   H2Y 6743   5.167   0.978  12.562 -1.3475  1.3447  2.7276
   53DOPE   C23 6744   5.059   0.429  12.436 -0.4776  0.2413 -0.6827
   53DOPE   H3R 6745   5.130   0.514  12.448  0.8247 -0.4094 -3.0683
   53DOPE   H3S 6746   5.132   0.347  12.418  1.5282  1.5207  1.0801
   53DOPE   C24 6747   5.000   0.405  12.583 -0.0377  0.7919 -0.0026
   53DOPE   H4R 6748   4.936   0.315  12.574  0.6750  0.4863 -3.8193
   53DOPE   H4S 6749   4.935   0.489  12.614 -0.3626  0.6452 -0.2848
   53DOPE   C25 6750   5.110   0.384  12.693 -0.2854 -0.3614 -0.1910
   53DOPE   H5R 6751   5.176   0.473  12.694 -0.7386 -0.0056 -1.1205
   53DOPE   H5S 6752   5.170   0.294  12.667  0.0095  0.2089 -1.5467
   53DOPE   C26 6753   5.037   0.373  12.837  0.1798 -0.1506  0.6296
   53DOPE   H6R 6754   4.977   0.279  12.844 -0.1551 -0.2242 -2.2320
   53DOPE   H6S 6755   4.973   0.460  12.862  0.0341 -0.2634  0.6535
   53DOPE   C27 6756   5.153   0.364  12.946 -0.2886  0.0776 -0.9608
   53DOPE   H7R 6757   5.219   0.454  12.945  0.8532 -0.5580  2.5556
   53DOPE   H7S 6758   5.219   0.279  12.921  1.3316  0.8376  0.4755
   53DOPE   C28 6759   5.101   0.328  13.088 -0.7100 -0.6619  0.0012
   53DOPE   H8R 6760   5.034   0.243  13.065 -0.4446 -0.6775 -0.7382
   53DOPE   H8S 6761   5.031   0.411  13.110 -0.0868  0.0719 -0.7087
   53DOPE   C29 6762   5.196   0.319  13.204  0.3532  0.1241 -0.3358
   53DOPE   H9R 6763   5.285   0.384  13.202  0.8044 -0.4987 -1.3581
   53DOPE  C210 6764   5.183   0.240  13.317  0.5233  0.4411 -0.0375
   53DOPE  H10R 6765   5.261   0.246  13.394  1.6848 -0.7291 -1.0888
   53DOPE  C211 6766   5.062   0.141  13.346 -0.0330 -0.2539  0.4514
   53DOPE  H11R 6767   5.109   0.041  13.331  0.4674 -0.3047  2.1217
   53DOPE  H11S 6768   4.983   0.148  13.269  1.0075 -0.1680 -0.6356
   53DOPE  C212 6769   5.022   0.148  13.501 -0.2020  0.3222 -0.4743
   53DOPE  H12R 6770   5.117   0.135  13.557 -0.0605 -1.4764 -1.0894
   53DOPE  H12S 6771   4.965   0.058  13.532  0.0773  0.1310 -0.5227
   53DOPE  C213 6772   4.951   0.270  13.548 -0.3458 -0.0881 -0.0898
   53DOPE  H13R 6773   4.865   0.298  13.483 -1.8524 -1.3023  1.2863
   53DOPE  H13S 6774   5.026   0.351  13.538  0.6203 -0.8182  0.9600
   53DOPE  C214 6775   4.899   0.242  13.690  0.2380  0.1746 -0.2449
   53DOPE  H14R 6776   4.978   0.206  13.759 -1.2022 -1.9762  0.3940
   53DOPE  H14S 6777   4.817   0.169  13.671  0.8160 -0.1924 -1.5001
   53DOPE  C215 6778   4.855   0.368  13.752  0.0504 -0.0850  0.6058
   53DOPE  H15R 6779   4.781   0.420  13.687  0.4414 -0.2203  0.0446
   53DOPE  H15S 6780   4.943   0.435  13.764  0.2529 -0.3676  0.7152
   53DOPE  C216 6781   4.809   0.351  13.896 -0.0736  0.4257  0.6063
   53DOPE  H16R 6782   4.754   0.255  13.906  1.4431 -0.4328  1.0004
   53DOPE  H16S 6783   4.733   0.428  13.923  0.0772  1.0889 -0.7144
   53DOPE  C217 6784   4.921   0.352  14.013  0.0733  0.1710  0.2113
   53DOPE  H17R 6785   4.989   0.265  13.998  0.8294  0.4409  1.8076
   53DOPE  H17S 6786   4.860   0.332  14.104  0.0503  2.7284  0.8315
   53DOPE  C218 6787   4.999   0.486  14.036  0.8672  0.2919  0.2539
   53DOPE  H18R 6788   4.923   0.566  14.018  1.7179  0.6954 -1.8812
   53DOPE  H18S 6789   5.082   0.498  13.963 -0.4815 -0.2886 -1.4619
   53DOPE  H18T 6790   5.050   0.490  14.135  2.1835 -1.0875 -0.3352
   53DOPE   C33 6791   5.066   0.836  12.698  0.0469  0.2897  0.6615
   53DOPE   H3X 6792   5.032   0.730  12.700 -0.8689  0.5320 -0.8165
   53DOPE   H3Y 6793   4.982   0.899  12.733  0.4775  0.0795  2.1676
   53DOPE   C34 6794   5.163   0.848  12.811  0.0012 -0.1519 -0.6079
   53DOPE   H4X 6795   5.244   0.775  12.790  1.8976  1.8719 -0.7244
   53DOPE   H4Y 6796   5.213   0.947  12.816  0.4948 -0.4551  1.2628
   53DOPE   C35 6797   5.090   0.827  12.948  0.8035  0.4935 -0.4481
   53DOPE   H5X 6798   5.023   0.740  12.929  0.4556  1.2529 -3.1151
   53DOPE   H5Y 6799   5.017   0.905  12.977 -0.7960 -1.3252  0.6506
   53DOPE   C36 6800   5.193   0.794  13.060 -0.4165 -0.0469  0.3330
   53DOPE   H6X 6801   5.261   0.882  13.055  0.4750 -0.6197  1.7138
   53DOPE   H6Y 6802   5.258   0.705  13.044  0.3988  0.7280 -0.7645
   53DOPE   C37 6803   5.121   0.783  13.197  0.2271 -0.0018  0.1892
   53DOPE   H7X 6804   5.050   0.866  13.217  0.6395  0.2526  0.6052
   53DOPE   H7Y 6805   5.068   0.686  13.194  0.3990 -0.0950 -2.4106
   53DOPE   C38 6806   5.221   0.791  13.318 -0.2036 -1.0966 -0.3778
   53DOPE   H8X 6807   5.299   0.716  13.296  0.1632 -1.6461  2.5037
   53DOPE   H8Y 6808   5.162   0.746  13.400 -1.2743 -0.2576 -0.6538
   53DOPE   C39 6809   5.280   0.928  13.349 -0.2975 -0.7814  0.6263
   53DOPE   H9X 6810   5.298   0.982  13.254 -1.3945 -0.0196  0.8325
   53DOPE  C310 6811   5.283   0.994  13.469 -0.6023  0.8110  0.3059
   53DOPE  H10X 6812   5.336   1.090  13.471 -1.0957  1.0820  0.7950
   53DOPE  C311 6813   5.242   0.925  13.593 -0.3131  0.1463  0.2902
   53DOPE  H11X 6814   5.137   0.889  13.593 -0.9554  1.9316  0.0896
   53DOPE  H11Y 6815   5.302   0.836  13.622 -1.8375 -1.2108 -0.5817
   53DOPE  C312 6816   5.257   1.033  13.702 -0.0232 -0.6687  0.4532
   53DOPE  H12X 6817   5.183   1.112  13.676 -0.9611 -2.4190 -2.8827
   53DOPE  H12Y 6818   5.359   1.074  13.712 -0.4450  0.1806  1.4743
   53DOPE  C313 6819   5.233   0.976  13.848  0.4946  0.5856  0.4095
   53DOPE  H13X 6820   5.170   0.885  13.851 -0.7874  1.4754  1.9217
   53DOPE  H13Y 6821   5.332   0.934  13.878 -0.2605 -0.9610  0.8512
   53DOPE  C314 6822   5.184   1.080  13.949  0.0475 -0.1868  0.4695
   53DOPE  H14X 6823   5.075   1.096  13.941  0.3368  2.7340  1.1604
   53DOPE  H14Y 6824   5.239   1.174  13.928  2.5529 -1.8334 -0.8661
   53DOPE  C315 6825   5.222   1.036  14.090  0.5500  0.6832  0.3347
   53DOPE  H15X 6826   5.209   1.123  14.157  1.7980  0.1370  1.3210
   53DOPE  H15Y 6827   5.329   1.007  14.082 -0.1044 -1.4232 -2.1114
   53DOPE  C316 6828   5.141   0.912  14.142  0.4285 -0.0870 -0.5245
   53DOPE  H16X 6829   5.138   0.824  14.074  0.1991 -0.8993  0.5058
   53DOPE  H16Y 6830   5.036   0.940  14.165  1.0910  1.2174  1.0531
   53DOPE  C317 6831   5.211   0.850  14.271 -0.1679  0.5107 -0.4080
   53DOPE  H17X 6832   5.317   0.832  14.242 -0.7850 -1.0417 -1.9034
   53DOPE  H17Y 6833   5.203   0.928  14.350  2.9317 -1.5228  2.1719
   53DOPE  C318 6834   5.146   0.718  14.311  0.1994  0.2070 -0.8350
   53DOPE  H18X 6835   5.038   0.717  14.337  0.7917 -4.1607  2.5189
   53DOPE  H18Y 6836   5.175   0.638  14.240  0.0232 -1.4971  0.9615
   53DOPE  H18Z 6837   5.193   0.680  14.404 -1.0273  0.7321  0.0326
   54DOPE     N 6838   0.775   2.876  11.847 -0.0788  0.2803 -0.0665
   54DOPE   HN1 6839   0.700   2.893  11.917 -1.0478 -0.1990 -0.9565
   54DOPE   HN2 6840   0.780   2.961  11.787 -0.1905  0.3888  0.0796
   54DOPE   HN3 6841   0.749   2.795  11.787 -1.1008  0.8829 -0.4661
   54DOPE   C12 6842   0.900   2.854  11.927  0.8602  0.1488 -0.4616
   54DOPE  H12A 6843   0.992   2.869  11.866  0.7160 -0.2131 -0.7658
   54DOPE  H12B 6844   0.894   2.746  11.952  0.1603 -0.1804 -1.9504
   54DOPE   C11 6845   0.897   2.935  12.058  0.4615 -0.1708 -0.7102
   54DOPE  H11A 6846   0.993   2.923  12.112 -0.3957  0.3670  1.0185
   54DOPE  H11B 6847   0.818   2.892  12.123 -0.7989  1.5656 -1.0010
   54DOPE     P 6848   0.956   3.200  12.017 -0.4268  0.0356  0.0619
   54DOPE   O13 6849   0.885   3.326  11.999 -0.0374 -0.0202  0.4394
   54DOPE   O14 6850   1.055   3.158  11.915  0.0232 -0.4706 -0.4296
   54DOPE   O11 6851   1.032   3.203  12.150  0.0721  0.1340 -0.5813
   54DOPE   O12 6852   0.855   3.077  12.044 -0.3046 -0.6737  0.5258
   54DOPE    C1 6853   0.955   3.218  12.278  0.0841  0.0785  1.2047
   54DOPE    HA 6854   0.861   3.159  12.285 -0.0063  0.2939  1.8916
   54DOPE    HB 6855   0.934   3.326  12.291 -0.7166  0.0663  0.1906
   54DOPE    C2 6856   1.034   3.160  12.394 -0.5001 -0.1636 -0.3007
   54DOPE    HS 6857   0.963   3.180  12.477  0.0034  1.7786 -0.2973
   54DOPE   O21 6858   1.164   3.225  12.404  0.5868 -0.1365  0.1406
   54DOPE   C21 6859   1.163   3.327  12.471  0.2137  0.1510 -0.0211
   54DOPE   O22 6860   1.074   3.371  12.538 -0.7567 -0.5299 -0.0933
   54DOPE   C22 6861   1.304   3.393  12.463 -0.3302 -0.2485  0.8617
   54DOPE   H2R 6862   1.298   3.495  12.421  1.5232 -0.8206 -0.9729
   54DOPE   H2S 6863   1.353   3.331  12.385 -2.0013 -0.2564 -0.2303
   54DOPE    C3 6864   1.068   3.014  12.385  0.2849  0.0480 -0.4238
   54DOPE    HX 6865   1.139   2.997  12.302  0.7162  0.4425 -0.1424
   54DOPE    HY 6866   0.980   2.950  12.364 -0.5384  1.5567 -1.7585
   54DOPE   O31 6867   1.129   2.956  12.506 -0.0013 -0.2557 -0.2631
   54DOPE   C31 6868   1.042   2.954  12.610  0.3651  0.2456 -0.4208
   54DOPE   O32 6869   0.924   2.986  12.604 -0.3747  0.3676 -0.3976
   54DOPE   C32 6870   1.109   2.900  12.738  0.6648  0.1671  0.2273
   54DOPE   H2X 6871   1.089   2.791  12.741 -2.0474  0.3820 -3.2019
   54DOPE   H2Y 6872   1.219   2.915  12.739  0.4372  2.2377 -0.4799
   54DOPE   C23 6873   1.377   3.381  12.598  0.2281  0.1443  0.5921
   54DOPE   H3R 6874   1.484   3.400  12.573 -0.1018 -0.6505 -1.6567
   54DOPE   H3S 6875   1.381   3.274  12.627  1.9997 -0.3224 -1.1699
   54DOPE   C24 6876   1.317   3.476  12.702 -1.0556 -0.5776 -0.4055
   54DOPE   H4R 6877   1.207   3.472  12.712 -0.9913  0.2591  0.9229
   54DOPE   H4S 6878   1.338   3.582  12.675 -3.5220  0.2920  0.8390
   54DOPE   C25 6879   1.391   3.470  12.838  0.2536  0.6992  0.4402
   54DOPE   H5R 6880   1.501   3.484  12.827  0.7881 -2.6878  0.2798
   54DOPE   H5S 6881   1.361   3.369  12.874 -0.7709  1.4683  1.8551
   54DOPE   C26 6882   1.315   3.564  12.939  0.0609  0.4927  0.8216
   54DOPE   H6R 6883   1.205   3.549  12.935 -0.0259  0.9422  1.5228
   54DOPE   H6S 6884   1.336   3.666  12.900  0.2765  0.2113  0.1879
   54DOPE   C27 6885   1.354   3.542  13.081  0.2290  1.1328 -0.4479
   54DOPE   H7R 6886   1.465   3.543  13.089  0.1972  1.4454 -0.0585
   54DOPE   H7S 6887   1.324   3.443  13.121  2.9842  0.3039 -0.2078
   54DOPE   C28 6888   1.309   3.658  13.173 -0.1882  0.6521  0.2986
   54DOPE   H8R 6889   1.202   3.644  13.201 -0.3471  1.8730  0.3556
   54DOPE   H8S 6890   1.322   3.751  13.115  0.3753  0.6329  0.3937
   54DOPE   C29 6891   1.392   3.653  13.302 -0.8819  0.1457  0.4971
   54DOPE   H9R 6892   1.487   3.705  13.284 -2.5196  2.5970 -1.7737
   54DOPE  C210 6893   1.359   3.594  13.413  0.2609  0.3944 -0.1067
   54DOPE  H10R 6894   1.422   3.591  13.503 -1.4052 -0.5565  1.0976
   54DOPE  C211 6895   1.224   3.528  13.438 -1.0158  0.3311  0.3833
   54DOPE  H11R 6896   1.246   3.419  13.436  0.5541  0.6309  0.1390
   54DOPE  H11S 6897   1.146   3.542  13.360  0.0601 -2.2806 -1.3244
   54DOPE  C212 6898   1.157   3.568  13.575 -0.1075  0.3926  0.0416
   54DOPE  H12R 6899   1.072   3.498  13.588  1.9359 -2.1670  0.4224
   54DOPE  H12S 6900   1.128   3.675  13.575  0.0729  0.4972  2.6333
   54DOPE  C213 6901   1.251   3.550  13.693 -0.1887  0.5419 -0.5827
   54DOPE  H13R 6902   1.333   3.623  13.704 -0.5788  0.9964 -0.6807
   54DOPE  H13S 6903   1.312   3.457  13.680  1.0429  1.4532 -1.5165
   54DOPE  C214 6904   1.166   3.542  13.826 -0.5449 -0.1827  0.4101
   54DOPE  H14R 6905   1.106   3.449  13.821  1.2703 -1.3378 -0.7598
   54DOPE  H14S 6906   1.105   3.635  13.827 -0.2223  0.0304  1.0911
   54DOPE  C215 6907   1.263   3.535  13.947 -0.7168 -0.5949 -0.2817
   54DOPE  H15R 6908   1.318   3.629  13.921 -1.4224 -0.0657  0.0966
   54DOPE  H15S 6909   1.329   3.447  13.946 -0.3326 -0.3131  0.2277
   54DOPE  C216 6910   1.194   3.538  14.086  0.0624 -0.1411 -0.7332
   54DOPE  H16R 6911   1.131   3.447  14.100  0.4193 -0.2664  0.1200
   54DOPE  H16S 6912   1.125   3.624  14.092  0.5146  0.3989 -2.6987
   54DOPE  C217 6913   1.296   3.546  14.203 -0.5197 -0.4002 -0.6144
   54DOPE  H17R 6914   1.376   3.469  14.196  0.4653  0.1685  2.8366
   54DOPE  H17S 6915   1.238   3.533  14.297  1.5569 -4.2735  0.3288
   54DOPE  C218 6916   1.369   3.685  14.206 -0.5577  0.3642 -0.3246
   54DOPE  H18R 6917   1.419   3.702  14.304  0.2871  1.5334 -0.9389
   54DOPE  H18S 6918   1.292   3.761  14.181 -0.5593  0.6604  0.5493
   54DOPE  H18T 6919   1.441   3.685  14.122 -1.9175  4.5163 -1.7531
   54DOPE   C33 6920   1.059   2.973  12.864 -0.1569  0.3893  0.6712
   54DOPE   H3X 6921   1.088   2.904  12.946 -0.8561 -0.7099  0.0173
   54DOPE   H3Y 6922   0.950   2.991  12.875 -0.7709 -1.7790 -1.1553
   54DOPE   C34 6923   1.146   3.102  12.879 -0.4405 -0.2348  0.1492
   54DOPE   H4X 6924   1.250   3.079  12.849 -0.2143  0.7168  0.1745
   54DOPE   H4Y 6925   1.110   3.174  12.802  0.4472 -3.2410 -3.3663
   54DOPE   C35 6926   1.134   3.163  13.020 -0.1092  0.1507 -0.2197
   54DOPE   H5X 6927   1.027   3.146  13.047  0.0996  0.2920  0.7456
   54DOPE   H5Y 6928   1.157   3.271  13.012  1.5017 -0.2534 -1.7091
   54DOPE   C36 6929   1.239   3.098  13.114  0.4691 -0.4149 -0.2210
   54DOPE   H6X 6930   1.344   3.104  13.077  0.8529 -2.4040  0.4249
   54DOPE   H6Y 6931   1.221   2.989  13.127 -1.6120  0.0374  1.1380
   54DOPE   C37 6932   1.239   3.171  13.246  0.5340 -0.4189 -0.1068
   54DOPE   H7X 6933   1.334   3.229  13.249  0.8151 -0.8781  0.0460
   54DOPE   H7Y 6934   1.164   3.253  13.243 -0.1899 -1.0638 -2.8982
   54DOPE   C38 6935   1.241   3.088  13.373 -0.0396  0.0518  0.2725
   54DOPE   H8X 6936   1.269   3.162  13.451 -1.0040  1.6925 -0.8815
   54DOPE   H8Y 6937   1.315   3.007  13.356 -1.1796 -0.9154 -0.2290
   54DOPE   C39 6938   1.110   3.024  13.396 -0.1912  0.5104  0.8384
   54DOPE   H9X 6939   1.066   2.961  13.317 -0.8111  1.6481  0.2463
   54DOPE  C310 6940   1.024   3.061  13.499 -0.0967  0.2100 -0.1889
   54DOPE  H10X 6941   0.936   2.997  13.517  0.2972 -0.0468  0.8891
   54DOPE  C311 6942   1.051   3.156  13.608 -0.6590  0.6968  0.2626
   54DOPE  H11X 6943   1.150   3.206  13.601 -0.6857  0.6715 -0.3044
   54DOPE  H11Y 6944   0.980   3.240  13.613 -0.4172  0.9121  0.1132
   54DOPE  C312 6945   1.040   3.089  13.751  0.0672 -1.0113  0.2720
   54DOPE  H12X 6946   1.125   3.024  13.780  0.7709  0.5380  1.7810
   54DOPE  H12Y 6947   0.947   3.028  13.748 -1.0786  0.6709  0.0737
   54DOPE  C313 6948   1.029   3.200  13.863  0.1924  0.0270 -0.0423
   54DOPE  H13X 6949   1.119   3.264  13.860  1.3147 -1.3317  2.2322
   54DOPE  H13Y 6950   0.947   3.266  13.826  0.6355  0.3653 -0.4385
   54DOPE  C314 6951   0.982   3.153  14.004 -0.1867 -0.1349 -0.0813
   54DOPE  H14X 6952   0.893   3.088  13.991 -1.1655  0.8011  1.5566
   54DOPE  H14Y 6953   0.944   3.237  14.067  1.7967  1.1958 -0.5838
   54DOPE  C315 6954   1.089   3.074  14.088  0.8244  0.1994 -0.4685
   54DOPE  H15X 6955   1.168   3.037  14.020 -0.6397 -3.1065 -0.5400
   54DOPE  H15Y 6956   1.041   2.987  14.137  1.0861  0.9037  1.0939
   54DOPE  C316 6957   1.148   3.157  14.201  0.3404  0.5976  0.3238
   54DOPE  H16X 6958   1.064   3.204  14.257  1.0663  0.2762  1.7174
   54DOPE  H16Y 6959   1.208   3.241  14.158  1.8487 -0.2529  0.7092
   54DOPE  C317 6960   1.232   3.061  14.292 -0.1972 -0.1740  0.1438
   54DOPE  H17X 6961   1.171   2.973  14.319  0.3517 -0.0940  1.7235
   54DOPE  H17Y 6962   1.310   3.020  14.225  0.5108 -0.0852  0.9011
   54DOPE  C318 6963   1.296   3.110  14.425  0.0143 -0.8001 -0.2662
   54DOPE  H18X 6964   1.343   3.024  14.476  2.0320  0.1591 -0.3943
   54DOPE  H18Y 6965   1.376   3.183  14.398  1.9759 -2.1652  1.5078
   54DOPE  H18Z 6966   1.222   3.155  14.496  0.8536  0.8609 -0.3909
   55DOPE     N 6967   0.833   5.532  11.529 -0.1288  0.3971  0.1729
   55DOPE   HN1 6968   0.935   5.545  11.549  0.6278 -1.9920 -1.5780
   55DOPE   HN2 6969   0.778   5.544  11.616  0.2700  0.1371  0.4669
   55DOPE   HN3 6970   0.816   5.440  11.484  0.7833 -0.3094  1.2100
   55DOPE   C12 6971   0.809   5.653  11.444 -0.0350  0.5679 -0.0700
   55DOPE  H12A 6972   0.702   5.646  11.418  0.0680  1.6864 -0.8575
   55DOPE  H12B 6973   0.858   5.641  11.345 -0.5732  0.1150 -0.2845
   55DOPE   C11 6974   0.833   5.784  11.511  0.2135 -1.0209  0.3991
   55DOPE  H11A 6975   0.785   5.796  11.610 -0.5429  2.2480 -0.2281
   55DOPE  H11B 6976   0.779   5.861  11.451  1.2253  0.2468  1.0765
   55DOPE     P 6977   1.005   5.948  11.601 -0.3849 -0.5059  0.1745
   55DOPE   O13 6978   0.931   6.066  11.537 -0.1496  0.6319 -0.1037
   55DOPE   O14 6979   1.155   5.956  11.623  0.0184 -0.4095  0.0545
   55DOPE   O11 6980   0.940   5.910  11.735 -0.4297 -0.3516 -0.7667
   55DOPE   O12 6981   0.971   5.821  11.519  0.9850  0.4479  0.1427
   55DOPE    C1 6982   1.018   5.941  11.854 -0.2234 -0.1597 -0.3445
   55DOPE    HA 6983   1.040   6.050  11.859 -0.6425 -0.0709 -0.3794
   55DOPE    HB 6984   1.114   5.886  11.861 -0.1569 -0.0305 -0.2329
   55DOPE    C2 6985   0.932   5.901  11.976  0.5136  0.3291 -0.3366
   55DOPE    HS 6986   0.878   5.994  12.007 -1.5835 -1.4862  1.9138
   55DOPE   O21 6987   1.017   5.852  12.080 -0.7064 -0.4580 -0.0267
   55DOPE   C21 6988   0.981   5.901  12.202 -0.4274 -0.8004  0.7304
   55DOPE   O22 6989   0.921   6.004  12.217 -0.1089 -0.0058  0.2984
   55DOPE   C22 6990   1.037   5.825  12.318  0.3292  0.2394  0.5301
   55DOPE   H2R 6991   1.139   5.858  12.346  0.1036  1.6353 -0.2170
   55DOPE   H2S 6992   1.059   5.722  12.281 -0.4421  0.4642 -0.6039
   55DOPE    C3 6993   0.832   5.786  11.955  0.1132  0.4934  0.0487
   55DOPE    HX 6994   0.890   5.697  11.923 -0.6715 -0.0786  0.1846
   55DOPE    HY 6995   0.771   5.816  11.867 -0.7579 -0.1998  0.4014
   55DOPE   O31 6996   0.764   5.751  12.076 -0.2722  0.1720 -0.6616
   55DOPE   C31 6997   0.638   5.752  12.070  0.1279  0.6704  1.0526
   55DOPE   O32 6998   0.568   5.753  11.971 -0.0988 -0.2336 -0.3397
   55DOPE   C32 6999   0.583   5.751  12.213  0.6570 -0.6373  0.2890
   55DOPE   H2X 7000   0.626   5.667  12.273  2.4424  0.9533  1.3378
   55DOPE   H2Y 7001   0.616   5.848  12.256  0.2415 -0.3828  0.0348
   55DOPE   C23 7002   0.941   5.797  12.440  0.2909  0.3433 -0.0118
   55DOPE   H3R 7003   0.960   5.710  12.506 -2.3776 -1.6977 -1.6899
   55DOPE   H3S 7004   0.833   5.778  12.418  0.5544 -1.5668  0.2057
   55DOPE   C24 7005   0.954   5.924  12.533  0.4454 -0.3477  0.6491
   55DOPE   H4R 7006   0.930   6.019  12.481  0.4405 -1.3837 -1.3492
   55DOPE   H4S 7007   1.058   5.936  12.569  0.7012 -0.6461  0.0201
   55DOPE   C25 7008   0.860   5.924  12.658 -0.0069  0.8507  0.0784
   55DOPE   H5R 7009   0.895   5.833  12.711  1.8451  0.8834 -1.0255
   55DOPE   H5S 7010   0.759   5.900  12.619  0.5572  0.5154 -1.2032
   55DOPE   C26 7011   0.864   6.052  12.742 -0.4555  0.2957  0.2296
   55DOPE   H6R 7012   0.829   6.139  12.683 -1.1191  0.1746  0.4289
   55DOPE   H6S 7013   0.966   6.075  12.779  0.5932 -0.4759 -1.9867
   55DOPE   C27 7014   0.777   6.057  12.869 -0.1316 -0.0781 -0.4290
   55DOPE   H7R 7015   0.683   5.999  12.853 -0.7948  1.1280 -1.0380
   55DOPE   H7S 7016   0.747   6.161  12.893  2.4753  0.8512 -0.8906
   55DOPE   C28 7017   0.845   6.001  12.997  0.3160 -0.1067 -0.3849
   55DOPE   H8R 7018   0.804   6.039  13.094  1.1323  0.3815 -0.2241
   55DOPE   H8S 7019   0.945   6.047  13.009  0.4487 -0.9310  2.3102
   55DOPE   C29 7020   0.842   5.845  12.994  1.0537 -0.5069  0.3389
   55DOPE   H9R 7021   0.918   5.790  12.936 -1.8012 -1.0457 -3.2890
   55DOPE  C210 7022   0.754   5.770  13.067 -0.4485 -0.3310  0.7600
   55DOPE  H10R 7023   0.768   5.661  13.072  1.1587 -0.1088  2.0853
   55DOPE  C211 7024   0.644   5.829  13.153 -0.0186  0.4937  0.1888
   55DOPE  H11R 7025   0.557   5.761  13.143  1.8942 -1.7725 -2.5950
   55DOPE  H11S 7026   0.614   5.930  13.117  1.7978  0.5802 -1.2548
   55DOPE  C212 7027   0.699   5.831  13.296 -0.4333 -0.1404 -0.2758
   55DOPE  H12R 7028   0.798   5.882  13.303 -0.6953  0.3374 -0.0102
   55DOPE  H12S 7029   0.715   5.725  13.327  0.5764  0.2122  0.4759
   55DOPE  C213 7030   0.602   5.877  13.401 -0.1369 -0.0208  0.0173
   55DOPE  H13R 7031   0.498   5.853  13.372 -0.8394  0.4475  1.9975
   55DOPE  H13S 7032   0.606   5.988  13.404  0.4258  0.0041 -1.1320
   55DOPE  C214 7033   0.630   5.830  13.544 -0.8887 -0.6026  0.2897
   55DOPE  H14R 7034   0.735   5.857  13.568 -0.8433 -1.8041  1.5894
   55DOPE  H14S 7035   0.612   5.721  13.551 -1.2254 -0.6241 -0.7989
   55DOPE  C215 7036   0.542   5.912  13.643 -0.6142 -0.1623 -0.3942
   55DOPE  H15R 7037   0.438   5.886  13.615 -1.0224  0.2261  0.7087
   55DOPE  H15S 7038   0.564   6.019  13.621  1.0024 -0.4388 -0.2819
   55DOPE  C216 7039   0.570   5.873  13.788  0.0724  0.5090 -0.2378
   55DOPE  H16R 7040   0.526   5.950  13.855  1.0865 -0.7955  2.0483
   55DOPE  H16S 7041   0.680   5.889  13.802 -0.2358  2.8935 -0.0009
   55DOPE  C217 7042   0.529   5.731  13.826 -0.9508 -0.4922 -0.8454
   55DOPE  H17R 7043   0.612   5.658  13.819 -0.0005  0.3803  0.7363
   55DOPE  H17S 7044   0.447   5.708  13.755 -2.9351 -1.7042  1.6852
   55DOPE  C218 7045   0.478   5.723  13.973  0.7185 -0.0326  0.3549
   55DOPE  H18R 7046   0.449   5.617  13.994 -1.3102  0.4227  0.0142
   55DOPE  H18S 7047   0.383   5.778  13.989  1.1652  0.9888 -0.4130
   55DOPE  H18T 7048   0.547   5.763  14.050  0.6372 -0.4134  0.6293
   55DOPE   C33 7049   0.432   5.735  12.205  0.1771  0.9370  0.1791
   55DOPE   H3X 7050   0.418   5.639  12.150 -3.5405  1.3308  0.2279
   55DOPE   H3Y 7051   0.381   5.817  12.150 -0.2144 -1.8834 -4.1262
   55DOPE   C34 7052   0.367   5.719  12.344 -0.0368  0.0746  0.3933
   55DOPE   H4X 7053   0.426   5.648  12.407  0.0661  0.8229  1.1580
   55DOPE   H4Y 7054   0.376   5.814  12.400 -1.9042 -0.3040  1.4207
   55DOPE   C35 7055   0.215   5.698  12.342 -0.0832  0.0395  0.2711
   55DOPE   H5X 7056   0.182   5.603  12.294 -1.1861 -0.1902  1.4157
   55DOPE   H5Y 7057   0.180   5.785  12.282  0.8901 -1.1405 -2.1430
   55DOPE   C36 7058   0.147   5.691  12.477 -0.1458 -0.2735  0.4671
   55DOPE   H6X 7059   0.191   5.773  12.538  0.6282 -0.0944 -0.3106
   55DOPE   H6Y 7060   0.176   5.594  12.522  0.2844 -0.4521 -0.1762
   55DOPE   C37 7061  -0.008   5.712  12.472  0.0174 -0.0480 -0.1290
   55DOPE   H7X 7062  -0.021   5.811  12.424  1.3468  2.2798  3.8241
   55DOPE   H7Y 7063  -0.057   5.644  12.400 -0.6362 -1.2331  1.3662
   55DOPE   C38 7064  -0.076   5.688  12.604 -0.5737 -0.2369 -0.9080
   55DOPE   H8X 7065  -0.031   5.594  12.644 -0.1994 -0.4629 -1.8448
   55DOPE   H8Y 7066  -0.186   5.685  12.592 -0.6554  2.2461 -1.3558
   55DOPE   C39 7067  -0.036   5.811  12.691 -0.7934 -0.1105 -0.1096
   55DOPE   H9X 7068  -0.024   5.903  12.631  1.5166 -1.3130 -1.6664
   55DOPE  C310 7069  -0.018   5.815  12.823 -0.3094 -0.0598  0.2047
   55DOPE  H10X 7070  -0.009   5.913  12.872  1.4958  1.1150 -2.2763
   55DOPE  C311 7071  -0.043   5.695  12.916 -0.0698 -0.7917  0.2380
   55DOPE  H11X 7072  -0.147   5.693  12.954 -0.4006 -0.3784 -0.6141
   55DOPE  H11Y 7073  -0.027   5.608  12.848 -0.4991  0.7406 -1.9509
   55DOPE  C312 7074   0.064   5.680  13.020  0.3561  0.0040 -0.1650
   55DOPE  H12X 7075   0.169   5.694  12.987  0.6256 -1.3199  0.0854
   55DOPE  H12Y 7076   0.061   5.574  13.055 -1.1726 -0.6698 -2.1443
   55DOPE  C313 7077   0.047   5.770  13.147  0.0016  0.2368 -0.3682
   55DOPE  H13X 7078   0.069   5.871  13.106  2.8625 -1.0572 -2.3061
   55DOPE  H13Y 7079  -0.058   5.768  13.185 -0.7061 -0.2274 -2.2448
   55DOPE  C314 7080   0.141   5.728  13.260 -0.1233 -0.2094  0.5372
   55DOPE  H14X 7081   0.238   5.715  13.208  0.5055  1.0416  1.3481
   55DOPE  H14Y 7082   0.113   5.626  13.296 -0.3800 -1.2542 -2.2934
   55DOPE  C315 7083   0.160   5.832  13.371 -0.1678  0.9878 -0.0997
   55DOPE  H15X 7084   0.149   5.935  13.333  0.8121  1.4962  0.9312
   55DOPE  H15Y 7085   0.264   5.813  13.406  0.4187 -0.7043 -2.5265
   55DOPE  C316 7086   0.058   5.800  13.481 -0.5676 -0.3113  0.1505
   55DOPE  H16X 7087   0.050   5.693  13.509 -0.1255 -0.5060 -0.4526
   55DOPE  H16Y 7088  -0.047   5.817  13.449 -0.3376 -0.2239 -0.5665
   55DOPE  C317 7089   0.084   5.880  13.612 -0.3399 -0.1915  0.7321
   55DOPE  H17X 7090   0.159   5.959  13.590 -0.5231  0.5422  2.5651
   55DOPE  H17Y 7091  -0.009   5.933  13.641 -0.5608 -0.2131  0.0642
   55DOPE  C318 7092   0.138   5.794  13.726  0.0014 -0.3299  0.3831
   55DOPE  H18X 7093   0.178   5.851  13.813 -2.3995 -1.2335  2.2155
   55DOPE  H18Y 7094   0.061   5.727  13.770 -0.4525  0.5320  0.9421
   55DOPE  H18Z 7095   0.227   5.735  13.696  1.6506  2.0334  0.3468
   56DOPE     N 7096   1.859   6.496  11.856 -0.0000 -0.1272  0.6574
   56DOPE   HN1 7097   1.922   6.531  11.930  0.0423 -1.5451  1.3335
   56DOPE   HN2 7098   1.820   6.404  11.887 -0.1726  0.0019  0.8280
   56DOPE   HN3 7099   1.927   6.479  11.780 -0.3220 -3.5662  0.9897
   56DOPE   C12 7100   1.754   6.592  11.801 -0.4519  0.2218 -0.1139
   56DOPE  H12A 7101   1.704   6.549  11.712  2.2409 -1.3402 -0.9902
   56DOPE  H12B 7102   1.810   6.683  11.773 -2.4686  1.7124  0.4349
   56DOPE   C11 7103   1.643   6.612  11.902  0.1268 -0.0380  0.2664
   56DOPE  H11A 7104   1.584   6.701  11.869  0.7810  0.6874  1.0042
   56DOPE  H11B 7105   1.697   6.639  11.995  0.8823  1.0234 -0.4543
   56DOPE     P 7106   1.422   6.483  11.845 -0.2919 -0.4861  0.1217
   56DOPE   O13 7107   1.348   6.365  11.890  0.2535 -0.1963 -0.4063
   56DOPE   O14 7108   1.437   6.510  11.702 -0.0137  0.1377  0.0524
   56DOPE   O11 7109   1.345   6.608  11.896 -0.1234  0.3472 -0.1892
   56DOPE   O12 7110   1.563   6.494  11.923  0.1811  0.7261  0.5478
   56DOPE    C1 7111   1.343   6.641  12.040 -0.1944  0.4093 -0.4187
   56DOPE    HA 7112   1.351   6.751  12.037  1.0967  0.3131 -2.7082
   56DOPE    HB 7113   1.420   6.589  12.100 -1.1855 -0.4380  0.1562
   56DOPE    C2 7114   1.198   6.623  12.096 -0.1007  0.5145 -0.5095
   56DOPE    HS 7115   1.208   6.675  12.193  0.4445  1.9112 -1.2764
   56DOPE   O21 7116   1.169   6.477  12.111  0.0282 -0.6237  0.5127
   56DOPE   C21 7117   1.231   6.418  12.205 -0.2837 -0.5190 -0.5053
   56DOPE   O22 7118   1.313   6.467  12.282 -0.5578  0.1695  0.2716
   56DOPE   C22 7119   1.195   6.271  12.218 -0.1895 -0.1968  0.6844
   56DOPE   H2R 7120   1.235   6.215  12.131 -2.8654  0.7294 -1.2964
   56DOPE   H2S 7121   1.084   6.274  12.223 -0.2429  0.2562 -0.4594
   56DOPE    C3 7122   1.098   6.694  12.007 -0.0328 -0.3871  0.3745
   56DOPE    HX 7123   1.093   6.645  11.907 -1.4272  0.2180  0.1195
   56DOPE    HY 7124   1.139   6.797  11.995  3.5550 -1.3969  2.4445
   56DOPE   O31 7125   0.965   6.698  12.065 -0.0839  0.0766 -0.0453
   56DOPE   C31 7126   0.889   6.602  12.038  0.9493 -0.0780 -0.2331
   56DOPE   O32 7127   0.909   6.510  11.964 -0.0950  0.5900  0.4385
   56DOPE   C32 7128   0.749   6.626  12.099 -0.0340  0.2092 -0.6153
   56DOPE   H2X 7129   0.748   6.725  12.150 -2.4930 -0.7635  1.4765
   56DOPE   H2Y 7130   0.673   6.628  12.018 -1.1570 -1.4799  0.3403
   56DOPE   C23 7131   1.238   6.203  12.348 -0.2641  0.9921 -0.2490
   56DOPE   H3R 7132   1.347   6.183  12.357 -0.3242  0.8324  0.1365
   56DOPE   H3S 7133   1.178   6.110  12.341  0.7230  0.4579 -2.2415
   56DOPE   C24 7134   1.180   6.270  12.472  0.4532  0.3651 -0.0613
   56DOPE   H4R 7135   1.070   6.278  12.455  0.1769 -0.6149  1.1208
   56DOPE   H4S 7136   1.212   6.376  12.466 -0.1032  0.4956 -0.9370
   56DOPE   C25 7137   1.202   6.203  12.605  0.1778  0.5391 -0.6489
   56DOPE   H5R 7138   1.305   6.164  12.617 -0.4441 -0.9483  0.1719
   56DOPE   H5S 7139   1.135   6.116  12.622 -0.2124  1.0647  0.6360
   56DOPE   C26 7140   1.176   6.299  12.719  0.3927 -0.6955 -0.2846
   56DOPE   H6R 7141   1.081   6.353  12.734 -0.0853 -1.4605 -0.4831
   56DOPE   H6S 7142   1.246   6.383  12.704  0.3569 -0.3375  1.3467
   56DOPE   C27 7143   1.196   6.221  12.857  0.9916 -0.0198  0.2255
   56DOPE   H7R 7144   1.290   6.162  12.853  0.8481 -0.2626  0.4578
   56DOPE   H7S 7145   1.115   6.146  12.868  0.5523  0.2892 -0.7682
   56DOPE   C28 7146   1.179   6.308  12.983  0.3490 -0.3329 -0.0291
   56DOPE   H8R 7147   1.140   6.237  13.059  0.1062 -2.7666 -2.2752
   56DOPE   H8S 7148   1.096   6.376  12.952  0.7606 -0.1524 -0.7364
   56DOPE   C29 7149   1.295   6.388  13.026  0.3095 -0.1982  0.0450
   56DOPE   H9R 7150   1.347   6.442  12.946 -0.9021 -0.7238 -1.1458
   56DOPE  C210 7151   1.345   6.387  13.155  0.1000 -0.0513  0.5911
   56DOPE  H10R 7152   1.424   6.461  13.174  2.6427 -1.5495 -2.9189
   56DOPE  C211 7153   1.286   6.314  13.273 -0.1964  0.5400  0.4616
   56DOPE  H11R 7154   1.339   6.219  13.298 -2.6915 -0.7518  1.1200
   56DOPE  H11S 7155   1.183   6.279  13.254  0.2855 -1.6635  1.5717
   56DOPE  C212 7156   1.299   6.402  13.401 -0.4413  0.6822  0.6588
   56DOPE  H12R 7157   1.196   6.428  13.433 -0.4269  0.1461  1.1709
   56DOPE  H12S 7158   1.348   6.499  13.380  1.1285 -0.5244 -1.8083
   56DOPE  C213 7159   1.371   6.331  13.519  0.5382 -1.1626 -0.4418
   56DOPE  H13R 7160   1.471   6.294  13.490  0.5708 -1.1550 -0.3374
   56DOPE  H13S 7161   1.305   6.246  13.549 -0.8811  0.4675  1.3665
   56DOPE  C214 7162   1.385   6.418  13.639 -0.3897  0.0184 -0.3406
   56DOPE  H14R 7163   1.291   6.470  13.666 -0.4609 -0.3034  0.0268
   56DOPE  H14S 7164   1.460   6.498  13.620 -0.9099  0.4747 -0.5006
   56DOPE  C215 7165   1.429   6.346  13.767 -0.0464  0.5431  0.7280
   56DOPE  H15R 7166   1.539   6.341  13.755  0.1262  3.2944  0.6109
   56DOPE  H15S 7167   1.379   6.247  13.772  0.1857  0.4052  0.4087
   56DOPE  C216 7168   1.392   6.424  13.898 -0.0430 -0.3153  0.2845
   56DOPE  H16R 7169   1.292   6.464  13.869  0.6073  0.9698 -0.2967
   56DOPE  H16S 7170   1.460   6.512  13.903  0.0203 -0.2515 -1.1833
   56DOPE  C217 7171   1.380   6.338  14.023  0.0116  0.3266  0.0276
   56DOPE  H17R 7172   1.480   6.289  14.034 -0.2720 -0.5652 -1.0855
   56DOPE  H17S 7173   1.298   6.263  14.021 -0.8419  1.1900  1.3694
   56DOPE  C218 7174   1.354   6.423  14.151 -0.1769  0.1967  0.0335
   56DOPE  H18R 7175   1.262   6.483  14.138 -0.6893 -0.7539 -0.9506
   56DOPE  H18S 7176   1.445   6.477  14.186 -0.8846 -0.0293  2.3977
   56DOPE  H18T 7177   1.345   6.356  14.239  2.1400  0.6671  0.7042
   56DOPE   C33 7178   0.708   6.511  12.199 -0.5514  0.8701  0.4884
   56DOPE   H3X 7179   0.691   6.416  12.144  2.7765 -1.3558  2.8953
   56DOPE   H3Y 7180   0.611   6.532  12.249 -0.0251  1.5479  1.2543
   56DOPE   C34 7181   0.798   6.474  12.317  0.3479  0.2756 -0.0052
   56DOPE   H4X 7182   0.754   6.387  12.370 -1.2971  1.3587  0.5185
   56DOPE   H4Y 7183   0.890   6.448  12.261  0.4680  0.1099  0.2668
   56DOPE   C35 7184   0.814   6.584  12.422 -0.1038 -0.8578 -0.5127
   56DOPE   H5X 7185   0.710   6.617  12.441  0.1595  1.3499 -2.3848
   56DOPE   H5Y 7186   0.872   6.662  12.369 -0.1638  0.0664  0.7603
   56DOPE   C36 7187   0.897   6.552  12.549  0.3071 -0.0030  0.0723
   56DOPE   H6X 7188   0.989   6.496  12.522  0.9540  1.0244  0.0990
   56DOPE   H6Y 7189   0.842   6.484  12.618 -0.2315 -2.2169 -2.3555
   56DOPE   C37 7190   0.934   6.689  12.616  0.9531  0.4529  0.1629
   56DOPE   H7X 7191   0.973   6.767  12.547 -0.0414  2.2509  1.5348
   56DOPE   H7Y 7192   0.832   6.721  12.648  1.2387 -0.0456  1.6449
   56DOPE   C38 7193   1.019   6.687  12.746 -0.1588  0.6009 -0.0613
   56DOPE   H8X 7194   1.110   6.625  12.732 -1.0346 -0.8603  0.4545
   56DOPE   H8Y 7195   0.954   6.622  12.809 -0.4940 -0.8332 -1.7911
   56DOPE   C39 7196   1.052   6.819  12.801 -0.2519 -0.6501  0.4676
   56DOPE   H9X 7197   1.010   6.902  12.742  1.3139  0.5596  1.0022
   56DOPE  C310 7198   1.110   6.843  12.915  0.4257 -0.2466  0.4028
   56DOPE  H10X 7199   1.109   6.951  12.933 -1.6171  0.4601 -3.1996
   56DOPE  C311 7200   1.171   6.742  13.015  0.1097  0.1573  0.3255
   56DOPE  H11X 7201   1.133   6.645  12.977 -1.5852  0.4346  1.2376
   56DOPE  H11Y 7202   1.282   6.732  13.011  0.2432  1.5634 -1.5948
   56DOPE  C312 7203   1.122   6.752  13.161  0.2013 -0.1815 -0.3089
   56DOPE  H12X 7204   1.147   6.659  13.216 -0.0845 -0.7198 -1.0708
   56DOPE  H12Y 7205   1.013   6.772  13.153 -0.1520  0.0782  3.4320
   56DOPE  C313 7206   1.186   6.868  13.236  0.1590 -0.3266  0.1732
   56DOPE  H13X 7207   1.296   6.857  13.224  0.7318  2.4507  1.9107
   56DOPE  H13Y 7208   1.171   6.968  13.191 -0.4938  0.0084  1.0979
   56DOPE  C314 7209   1.163   6.860  13.391  0.0618 -0.2828 -0.1173
   56DOPE  H14X 7210   1.067   6.805  13.400  0.2458 -0.3737  1.4300
   56DOPE  H14Y 7211   1.162   6.964  13.430 -1.4127 -0.3985  0.2087
   56DOPE  C315 7212   1.270   6.785  13.468  0.4751  0.1355 -0.7737
   56DOPE  H15X 7213   1.369   6.828  13.442 -0.8431  1.9906 -3.1704
   56DOPE  H15Y 7214   1.276   6.675  13.457  1.4352  0.2006 -0.9922
   56DOPE  C316 7215   1.261   6.828  13.615  0.4186  0.1927 -0.5177
   56DOPE  H16X 7216   1.157   6.815  13.652  0.0910  2.5547 -0.4812
   56DOPE  H16Y 7217   1.267   6.937  13.630 -0.2626 -0.0354  1.9440
   56DOPE  C317 7218   1.364   6.773  13.713 -0.6258  0.1217  0.1799
   56DOPE  H17X 7219   1.356   6.663  13.725 -1.8392  0.1492 -0.2479
   56DOPE  H17Y 7220   1.467   6.786  13.674 -0.3049 -1.6408  0.3619
   56DOPE  C318 7221   1.357   6.847  13.847 -0.0128  0.7004  0.0183
   56DOPE  H18X 7222   1.394   6.949  13.827  1.3589 -0.0045 -1.2442
   56DOPE  H18Y 7223   1.252   6.858  13.880 -0.2410 -1.1328  0.0425
   56DOPE  H18Z 7224   1.419   6.794  13.923 -0.2294 -0.4712 -0.5914
   57DOPE     N 7225   1.623   2.701  11.862  0.5000  0.2276  0.1914
   57DOPE   HN1 7226   1.654   2.646  11.779 -0.3968 -0.6686  0.4382
   57DOPE   HN2 7227   1.520   2.686  11.868  0.7840 -2.0458  0.4759
   57DOPE   HN3 7228   1.654   2.799  11.848  0.7965  0.2207  0.7615
   57DOPE   C12 7229   1.674   2.655  11.996  0.1419 -0.4211 -1.0578
   57DOPE  H12A 7230   1.778   2.690  12.012  0.1130 -1.4785  1.8945
   57DOPE  H12B 7231   1.666   2.545  12.005 -1.9118 -0.3311 -1.1304
   57DOPE   C11 7232   1.569   2.701  12.104  0.3386 -0.0699 -0.3996
   57DOPE  H11A 7233   1.584   2.806  12.136 -0.5122 -0.5488  1.7250
   57DOPE  H11B 7234   1.605   2.645  12.193  1.5447  0.4489 -0.5387
   57DOPE     P 7235   1.320   2.773  12.071  0.3355  0.4224 -0.1359
   57DOPE   O13 7236   1.200   2.701  12.045 -0.0675  0.1644 -0.2017
   57DOPE   O14 7237   1.358   2.880  11.979  0.5723  0.4013  0.1696
   57DOPE   O11 7238   1.330   2.825  12.219 -0.1543  0.2165 -0.2737
   57DOPE   O12 7239   1.435   2.664  12.070 -0.1574  0.0488  0.6426
   57DOPE    C1 7240   1.321   2.736  12.334 -0.4248 -0.9726  0.3941
   57DOPE    HA 7241   1.329   2.628  12.311 -1.0848 -0.8722 -0.3390
   57DOPE    HB 7242   1.230   2.761  12.393  0.9561  0.5769  2.0130
   57DOPE    C2 7243   1.439   2.769  12.434 -0.4709 -0.0915 -0.0591
   57DOPE    HS 7244   1.533   2.728  12.392 -0.7147 -0.2814 -0.4309
   57DOPE   O21 7245   1.398   2.702  12.556 -0.1780 -0.5005  0.2477
   57DOPE   C21 7246   1.485   2.700  12.655  0.2375  0.0845 -0.8190
   57DOPE   O22 7247   1.601   2.734  12.653 -0.0942 -0.3469 -0.0803
   57DOPE   C22 7248   1.414   2.652  12.780 -0.2123 -0.4159  0.3622
   57DOPE   H2R 7249   1.438   2.544  12.780  2.3279  0.0675  0.6686
   57DOPE   H2S 7250   1.305   2.673  12.780  0.1630  2.3600  2.9124
   57DOPE    C3 7251   1.441   2.920  12.457 -0.0720 -0.5345 -0.8028
   57DOPE    HX 7252   1.355   2.938  12.525  0.5697 -2.3207  0.5594
   57DOPE    HY 7253   1.422   2.985  12.369 -0.4156  1.7472  0.8579
   57DOPE   O31 7254   1.567   2.965  12.520 -0.3080 -0.2143  0.2177
   57DOPE   C31 7255   1.560   3.010  12.644 -0.0161 -0.6149  0.3407
   57DOPE   O32 7256   1.466   3.004  12.714  0.1770 -0.2746  0.1055
   57DOPE   C32 7257   1.708   3.053  12.689  0.9965  0.1794 -0.5294
   57DOPE   H2X 7258   1.768   2.961  12.704  0.5907 -0.0097 -0.0234
   57DOPE   H2Y 7259   1.738   3.106  12.596 -1.2805 -1.5354 -2.3467
   57DOPE   C23 7260   1.459   2.708  12.919 -0.1620 -0.2018  0.0409
   57DOPE   H3R 7261   1.437   2.817  12.917 -0.0975 -0.1993 -0.6572
   57DOPE   H3S 7262   1.566   2.692  12.942 -0.3020  1.4969  2.1904
   57DOPE   C24 7263   1.379   2.650  13.039  0.6621  0.1551 -1.4618
   57DOPE   H4R 7264   1.358   2.541  13.037 -0.9270  0.3908 -0.0103
   57DOPE   H4S 7265   1.277   2.693  13.043 -0.3147 -2.0665 -0.8017
   57DOPE   C25 7266   1.439   2.703  13.173  0.5877 -0.0066 -0.4376
   57DOPE   H5R 7267   1.426   2.813  13.162  1.4422  0.1726  0.2368
   57DOPE   H5S 7268   1.549   2.688  13.175  0.6645  0.2108 -1.8710
   57DOPE   C26 7269   1.386   2.643  13.303  0.1623  0.1440 -0.0153
   57DOPE   H6R 7270   1.391   2.532  13.301  1.7842  0.1542  1.7334
   57DOPE   H6S 7271   1.278   2.671  13.310  0.0962  0.7046 -2.4441
   57DOPE   C27 7272   1.462   2.700  13.419  0.1676  0.4153 -0.1431
   57DOPE   H7R 7273   1.458   2.810  13.432  0.6510  0.1828  2.3659
   57DOPE   H7S 7274   1.567   2.663  13.409 -0.0222 -0.5222  1.1229
   57DOPE   C28 7275   1.433   2.653  13.560  0.1207  0.3015 -0.3671
   57DOPE   H8R 7276   1.484   2.724  13.629 -0.3003 -0.5940  0.8975
   57DOPE   H8S 7277   1.469   2.549  13.573 -1.6028 -0.4665 -1.3902
   57DOPE   C29 7278   1.284   2.664  13.587  0.0447  0.1834 -0.0979
   57DOPE   H9R 7279   1.221   2.633  13.502  0.6259  0.3207 -0.5833
   57DOPE  C210 7280   1.221   2.731  13.682  0.2893  0.6035 -0.3702
   57DOPE  H10R 7281   1.112   2.721  13.696  0.6206 -0.6939  1.4943
   57DOPE  C211 7282   1.288   2.806  13.792  0.1096  0.3192 -0.1192
   57DOPE  H11R 7283   1.285   2.915  13.770 -2.3190  0.0172 -1.7472
   57DOPE  H11S 7284   1.393   2.773  13.807 -0.1432 -0.6158 -0.3043
   57DOPE  C212 7285   1.214   2.787  13.926 -0.6560  0.1759 -0.3578
   57DOPE  H12R 7286   1.110   2.824  13.922 -1.1581 -1.3117 -2.1268
   57DOPE  H12S 7287   1.258   2.856  14.001 -1.3150 -0.6912  0.8624
   57DOPE  C213 7288   1.245   2.648  13.986 -0.4808 -0.1117  0.1825
   57DOPE  H13R 7289   1.355   2.630  13.985 -0.5747 -1.0399  2.4577
   57DOPE  H13S 7290   1.194   2.575  13.921 -2.3242 -1.0779  2.5761
   57DOPE  C214 7291   1.184   2.626  14.126 -0.7805  0.5253 -0.0110
   57DOPE  H14R 7292   1.159   2.519  14.142  0.6573  0.3752  1.4985
   57DOPE  H14S 7293   1.090   2.684  14.136 -1.4896 -0.3596 -1.1713
   57DOPE  C215 7294   1.273   2.677  14.242 -0.0651  0.4942 -0.3370
   57DOPE  H15R 7295   1.277   2.788  14.243  1.8517  0.4693  0.2136
   57DOPE  H15S 7296   1.377   2.638  14.238 -0.0850  0.4074 -0.0448
   57DOPE  C216 7297   1.218   2.635  14.376 -0.0651 -0.3578  0.4947
   57DOPE  H16R 7298   1.185   2.529  14.382 -1.1929 -0.0490  0.2042
   57DOPE  H16S 7299   1.125   2.696  14.384 -0.6458 -0.9425 -1.2901
   57DOPE  C217 7300   1.307   2.678  14.498 -0.0200 -0.2340 -0.0852
   57DOPE  H17R 7301   1.246   2.711  14.585 -0.6416 -0.7095 -0.3349
   57DOPE  H17S 7302   1.377   2.761  14.472 -0.4162  0.5582  1.2722
   57DOPE  C218 7303   1.389   2.561  14.546 -0.7745  0.1570 -0.0746
   57DOPE  H18R 7304   1.477   2.555  14.478  0.1726  0.7824  1.0684
   57DOPE  H18S 7305   1.330   2.468  14.527 -1.9575  0.4525  1.9024
   57DOPE  H18T 7306   1.419   2.571  14.653  1.0114  0.0854 -0.5337
   57DOPE   C33 7307   1.709   3.143  12.808 -0.2906  0.5502  0.4070
   57DOPE   H3X 7308   1.642   3.231  12.798 -0.0505  0.9114  1.7060
   57DOPE   H3Y 7309   1.807   3.194  12.818 -1.1550  2.5305 -0.5432
   57DOPE   C34 7310   1.666   3.078  12.938 -0.1829  0.9902  0.1094
   57DOPE   H4X 7311   1.558   3.051  12.928  0.2741 -0.7290 -0.5353
   57DOPE   H4Y 7312   1.716   2.983  12.968 -2.4092 -0.0204  0.8936
   57DOPE   C35 7313   1.677   3.179  13.054  0.0347  0.0535  0.7291
   57DOPE   H5X 7314   1.613   3.261  13.014 -0.0035 -0.5987 -0.5947
   57DOPE   H5Y 7315   1.781   3.219  13.062 -0.5019  1.8893 -0.6674
   57DOPE   C36 7316   1.632   3.120  13.188 -0.6449  0.0116 -0.7199
   57DOPE   H6X 7317   1.709   3.047  13.220 -0.6009  1.3587  2.6329
   57DOPE   H6Y 7318   1.533   3.072  13.178 -1.1736  0.5509  1.4593
   57DOPE   C37 7319   1.630   3.227  13.292 -0.4895  0.0602  0.2015
   57DOPE   H7X 7320   1.731   3.271  13.299 -1.7096  3.0098  0.9304
   57DOPE   H7Y 7321   1.580   3.323  13.265 -1.3509 -0.2080  0.7767
   57DOPE   C38 7322   1.586   3.189  13.432  0.1924 -0.2771  0.0713
   57DOPE   H8X 7323   1.483   3.148  13.428  0.4830 -1.0569  0.4165
   57DOPE   H8Y 7324   1.585   3.273  13.505 -0.0632 -0.2425  0.0303
   57DOPE   C39 7325   1.692   3.102  13.485 -0.2586  0.4882 -0.0440
   57DOPE   H9X 7326   1.793   3.102  13.443 -0.3451  2.4890 -0.3274
   57DOPE  C310 7327   1.680   3.033  13.604 -0.0133 -0.4316 -0.5605
   57DOPE  H10X 7328   1.764   2.973  13.642  1.4903  2.0927  0.3400
   57DOPE  C311 7329   1.562   3.050  13.700 -0.7871  0.0424 -0.3312
   57DOPE  H11X 7330   1.477   3.100  13.648  0.2038  1.4130 -0.6848
   57DOPE  H11Y 7331   1.523   2.955  13.744  0.2615 -0.1035  0.3336
   57DOPE  C312 7332   1.594   3.149  13.816  0.5497 -0.2465 -0.1213
   57DOPE  H12X 7333   1.628   3.249  13.782  2.3189  0.0129  2.1657
   57DOPE  H12Y 7334   1.672   3.111  13.885 -0.2194  1.2804  1.7102
   57DOPE  C313 7335   1.468   3.169  13.903 -0.7651 -0.1534 -0.0623
   57DOPE  H13X 7336   1.381   3.209  13.846 -1.5417  1.0046  1.8204
   57DOPE  H13Y 7337   1.444   3.072  13.953 -1.4558 -0.2049 -0.4709
   57DOPE  C314 7338   1.500   3.268  14.015 -0.7201  0.4640  0.2354
   57DOPE  H14X 7339   1.409   3.283  14.076 -1.6965  0.6479 -1.2170
   57DOPE  H14Y 7340   1.537   3.368  13.983 -0.3009  1.4031  3.3568
   57DOPE  C315 7341   1.601   3.214  14.117  0.1696  0.4823  0.9845
   57DOPE  H15X 7342   1.702   3.186  14.080  1.7027  3.9758  2.1161
   57DOPE  H15Y 7343   1.557   3.122  14.161  0.2235  0.6451  1.3903
   57DOPE  C316 7344   1.628   3.302  14.232 -0.0264  0.1180  0.4190
   57DOPE  H16X 7345   1.540   3.355  14.275 -1.0651  1.1663 -2.7199
   57DOPE  H16Y 7346   1.690   3.389  14.200  2.6915 -2.5539 -2.2074
   57DOPE  C317 7347   1.709   3.238  14.343  0.1084 -0.2192  0.2145
   57DOPE  H17X 7348   1.653   3.154  14.389  3.8892 -2.0740  1.8571
   57DOPE  H17Y 7349   1.807   3.191  14.319  0.9669  1.5429  0.1096
   57DOPE  C318 7350   1.744   3.340  14.448 -0.5001 -0.1664 -0.1122
   57DOPE  H18X 7351   1.821   3.412  14.413 -0.6506  1.3323  2.3776
   57DOPE  H18Y 7352   1.662   3.399  14.494 -0.0714  0.8922 -0.6602
   57DOPE  H18Z 7353   1.793   3.289  14.534  0.8617 -0.9527 -1.3073
   58DOPE     N 7354   0.111   4.744  11.686  0.0886  0.8241 -0.2780
   58DOPE   HN1 7355   0.058   4.751  11.775 -0.2614  1.8629 -0.5593
   58DOPE   HN2 7356   0.138   4.644  11.676  1.4563  1.0978  0.3522
   58DOPE   HN3 7357   0.204   4.782  11.714 -0.3532  0.6307  1.5968
   58DOPE   C12 7358   0.052   4.821  11.569 -0.7785 -0.0306 -0.2138
   58DOPE  H12A 7359   0.044   4.926  11.606 -0.3764 -0.5073  1.2794
   58DOPE  H12B 7360  -0.041   4.767  11.543 -0.5403 -0.9729  0.8195
   58DOPE   C11 7361   0.149   4.825  11.452 -0.2614 -0.6640 -0.3655
   58DOPE  H11A 7362   0.098   4.891  11.380 -0.2686  0.5116  0.6820
   58DOPE  H11B 7363   0.154   4.721  11.413  0.6626 -1.7607  2.4206
   58DOPE     P 7364   0.340   5.007  11.474 -0.3903 -0.1714 -0.1234
   58DOPE   O13 7365   0.303   5.063  11.347  0.0685  0.1836 -0.0237
   58DOPE   O14 7366   0.486   5.008  11.499  0.1008 -0.2655 -0.0272
   58DOPE   O11 7367   0.257   5.074  11.594 -0.6199 -0.2518  0.4798
   58DOPE   O12 7368   0.288   4.856  11.483  0.3373  0.1391  0.0707
   58DOPE    C1 7369   0.238   5.216  11.599 -0.4933 -0.8824  0.1883
   58DOPE    HA 7370   0.149   5.237  11.662 -0.8342 -2.1661  0.1618
   58DOPE    HB 7371   0.229   5.266  11.500  1.3608  1.0326  0.9097
   58DOPE    C2 7372   0.348   5.287  11.681  0.5249  0.0532 -0.3129
   58DOPE    HS 7373   0.440   5.247  11.634  0.7435 -1.8627  1.6063
   58DOPE   O21 7374   0.343   5.249  11.819  0.4727  0.3751  0.1123
   58DOPE   C21 7375   0.460   5.271  11.886 -0.4213  0.3904  1.1372
   58DOPE   O22 7376   0.562   5.317  11.835  0.0334  0.4010 -0.4163
   58DOPE   C22 7377   0.443   5.238  12.035  0.3274 -0.0288  0.2557
   58DOPE   H2R 7378   0.387   5.143  12.040  0.9138 -0.3529  1.0803
   58DOPE   H2S 7379   0.371   5.315  12.071 -1.5959 -0.9040 -1.5540
   58DOPE    C3 7380   0.340   5.449  11.652  0.5897 -0.5331 -0.3847
   58DOPE    HX 7381   0.353   5.462  11.543 -0.6306 -2.7797 -0.8684
   58DOPE    HY 7382   0.415   5.513  11.703 -0.4752 -0.5153  1.2403
   58DOPE   O31 7383   0.205   5.500  11.687 -0.0416  0.0041 -0.0647
   58DOPE   C31 7384   0.186   5.536  11.811 -0.0049 -0.3554 -0.2167
   58DOPE   O32 7385   0.266   5.533  11.902 -0.4350 -0.3521  0.2832
   58DOPE   C32 7386   0.047   5.593  11.819  0.6055  0.1150 -0.2504
   58DOPE   H2X 7387   0.041   5.678  11.746  2.0268  0.8311  0.4230
   58DOPE   H2Y 7388  -0.023   5.518  11.776  0.9553  0.0031 -0.6334
   58DOPE   C23 7389   0.578   5.228  12.114 -0.1350 -0.0588  0.1778
   58DOPE   H3R 7390   0.645   5.314  12.095  0.3554 -0.0966  1.5785
   58DOPE   H3S 7391   0.633   5.153  12.054  0.0602  0.4872 -0.3292
   58DOPE   C24 7392   0.554   5.169  12.255  0.2397  0.2536 -0.4399
   58DOPE   H4R 7393   0.656   5.158  12.296  1.0057 -0.0083 -2.2853
   58DOPE   H4S 7394   0.508   5.069  12.242  1.8936 -1.0044  2.6194
   58DOPE   C25 7395   0.472   5.255  12.354 -0.0457  0.1283  0.5241
   58DOPE   H5R 7396   0.373   5.265  12.305  0.1058  1.2135  0.4190
   58DOPE   H5S 7397   0.513   5.358  12.354 -1.0068  0.5675 -1.2663
   58DOPE   C26 7398   0.452   5.207  12.498 -0.3860  0.0723  0.5243
   58DOPE   H6R 7399   0.528   5.136  12.537  0.4484  1.2224  1.0732
   58DOPE   H6S 7400   0.354   5.156  12.504 -0.1804 -0.2089  2.1719
   58DOPE   C27 7401   0.446   5.324  12.598  0.0123 -0.3002  0.1961
   58DOPE   H7R 7402   0.370   5.400  12.570 -0.1077 -1.3292 -2.6587
   58DOPE   H7S 7403   0.537   5.388  12.588 -0.0804 -0.4454 -2.5803
   58DOPE   C28 7404   0.449   5.274  12.748  0.1471 -0.3749  0.5426
   58DOPE   H8R 7405   0.534   5.203  12.742 -1.5216 -2.3751 -0.3782
   58DOPE   H8S 7406   0.356   5.218  12.771  0.8610 -1.0950  1.7687
   58DOPE   C29 7407   0.478   5.398  12.832 -0.2940  0.3833  0.0521
   58DOPE   H9R 7408   0.545   5.471  12.784 -0.3085 -1.0307 -2.2995
   58DOPE  C210 7409   0.425   5.430  12.952  0.8663 -0.6568  0.5512
   58DOPE  H10R 7410   0.449   5.527  12.999 -2.9641  0.9909 -0.5078
   58DOPE  C211 7411   0.330   5.348  13.030 -0.0890  0.2243 -0.8000
   58DOPE  H11R 7412   0.281   5.273  12.965  0.6767 -0.2459 -0.8500
   58DOPE  H11S 7413   0.246   5.405  13.076 -0.7880 -1.7928  0.5447
   58DOPE  C212 7414   0.403   5.271  13.144 -0.2509 -0.8861 -0.1227
   58DOPE  H12R 7415   0.492   5.212  13.113  0.3445 -0.0065 -0.1190
   58DOPE  H12S 7416   0.335   5.196  13.191  0.6135 -1.6998 -0.1422
   58DOPE  C213 7417   0.452   5.367  13.254 -0.2035  0.3974 -0.3276
   58DOPE  H13R 7418   0.364   5.427  13.285 -2.2031 -2.5111  0.0073
   58DOPE  H13S 7419   0.530   5.440  13.223  0.8771 -1.2289 -1.5558
   58DOPE  C214 7420   0.489   5.294  13.390  0.9811 -0.0812  0.6979
   58DOPE  H14R 7421   0.582   5.234  13.381 -0.0730 -1.6524 -0.0873
   58DOPE  H14S 7422   0.407   5.222  13.407  0.2565  0.1600 -1.5494
   58DOPE  C215 7423   0.477   5.387  13.509 -0.5132 -0.5107 -0.9945
   58DOPE  H15R 7424   0.382   5.438  13.481 -0.0381 -0.7589 -3.2352
   58DOPE  H15S 7425   0.551   5.469  13.523 -1.5317  0.1864  0.5605
   58DOPE  C216 7426   0.463   5.315  13.642  0.0605  0.1133  0.2311
   58DOPE  H16R 7427   0.561   5.283  13.683  0.2590 -0.4374 -0.6472
   58DOPE  H16S 7428   0.397   5.228  13.622  1.5535 -0.4421 -2.8430
   58DOPE  C217 7429   0.396   5.396  13.753 -0.1244 -0.4526 -0.3346
   58DOPE  H17R 7430   0.305   5.439  13.706  0.1326 -1.4195 -1.7758
   58DOPE  H17S 7431   0.467   5.480  13.767  0.4490 -0.7619 -1.3006
   58DOPE  C218 7432   0.373   5.328  13.886 -0.3326 -0.5036 -0.5101
   58DOPE  H18R 7433   0.306   5.383  13.956  0.9108 -0.3743  0.6033
   58DOPE  H18S 7434   0.470   5.304  13.935  0.6906 -0.3298 -2.3828
   58DOPE  H18T 7435   0.332   5.226  13.866  1.7236 -1.2731 -1.0090
   58DOPE   C33 7436  -0.003   5.652  11.955  0.7348  0.5163 -0.1494
   58DOPE   H3X 7437  -0.004   5.574  12.034 -0.3246 -0.1704 -0.8271
   58DOPE   H3Y 7438  -0.111   5.677  11.948  0.9592  1.0731 -2.3789
   58DOPE   C34 7439   0.065   5.782  11.990 -0.0327  0.3493 -0.3856
   58DOPE   H4X 7440   0.163   5.754  12.034  0.0414 -2.7074 -2.2529
   58DOPE   H4Y 7441   0.080   5.837  11.894  0.2860  2.1563  0.6448
   58DOPE   C35 7442  -0.020   5.878  12.082 -0.3525  0.6395 -0.1956
   58DOPE   H5X 7443  -0.029   5.841  12.186 -1.4593 -1.6048 -1.0096
   58DOPE   H5Y 7444  -0.123   5.896  12.043  0.5537 -1.0016 -3.7714
   58DOPE   C36 7445   0.056   6.009  12.085  0.5802 -0.1673  0.8498
   58DOPE   H6X 7446   0.065   6.040  11.978  0.3861  0.3758  0.9872
   58DOPE   H6Y 7447   0.150   5.991  12.142  2.1279  2.4160 -0.6537
   58DOPE   C37 7448  -0.022   6.114  12.161  0.0282  0.1816  0.2723
   58DOPE   H7X 7449   0.027   6.214  12.147 -0.4115  1.1109  4.1862
   58DOPE   H7Y 7450  -0.127   6.126  12.127 -0.5658 -0.7258  1.7322
   58DOPE   C38 7451  -0.029   6.100  12.311 -0.2799 -0.1036  0.0200
   58DOPE   H8X 7452   0.078   6.106  12.341 -0.2153  0.6620 -0.3610
   58DOPE   H8Y 7453  -0.071   6.000  12.336 -1.6606  0.1294 -1.2027
   58DOPE   C39 7454  -0.098   6.213  12.381 -0.1850 -0.3507 -0.4276
   58DOPE   H9X 7455  -0.157   6.275  12.311  1.3923 -0.3648 -1.8229
   58DOPE  C310 7456  -0.073   6.256  12.506  0.3428  0.5522 -0.1680
   58DOPE  H10X 7457  -0.112   6.356  12.532  1.9431  1.0484  0.4687
   58DOPE  C311 7458   0.015   6.194  12.611 -0.2023 -0.6121  0.2197
   58DOPE  H11X 7459   0.045   6.092  12.578 -1.3244 -1.1214  0.6805
   58DOPE  H11Y 7460   0.110   6.250  12.621 -0.2938 -0.2897 -0.6308
   58DOPE  C312 7461  -0.055   6.179  12.753  0.0111  0.1824  0.2816
   58DOPE  H12X 7462   0.011   6.126  12.825 -0.4661 -0.6839  0.1041
   58DOPE  H12Y 7463  -0.141   6.109  12.743 -0.6359  1.0028  0.0158
   58DOPE  C313 7464  -0.095   6.319  12.806  0.4224 -0.0371  0.2134
   58DOPE  H13X 7465  -0.019   6.398  12.787 -0.9781  1.0445 -1.1343
   58DOPE  H13Y 7466  -0.190   6.349  12.756  0.7799 -0.4452 -0.7236
   58DOPE  C314 7467  -0.142   6.328  12.950  0.6450 -0.2372  1.1224
   58DOPE  H14X 7468  -0.207   6.239  12.965  1.1213 -1.1725 -1.7401
   58DOPE  H14Y 7469  -0.206   6.417  12.965  0.6359  0.1500 -0.9365
   58DOPE  C315 7470  -0.022   6.329  13.046  0.4717  0.2583 -0.5871
   58DOPE  H15X 7471   0.041   6.417  13.020  2.0518 -0.2385  1.2333
   58DOPE  H15Y 7472   0.038   6.238  13.025 -1.5418 -1.2709 -0.0157
   58DOPE  C316 7473  -0.067   6.335  13.191 -0.1090 -0.1852  0.7825
   58DOPE  H16X 7474  -0.133   6.422  13.209  0.3252  0.2804  0.1485
   58DOPE  H16Y 7475   0.019   6.338  13.262  1.3082  0.2813 -0.8944
   58DOPE  C317 7476  -0.145   6.210  13.242 -0.3033 -0.7367  0.2193
   58DOPE  H17X 7477  -0.206   6.244  13.329  0.7524 -2.3656  1.6658
   58DOPE  H17Y 7478  -0.207   6.174  13.157  2.0213  0.0886 -1.9408
   58DOPE  C318 7479  -0.057   6.100  13.293  0.2157  0.4522  0.6461
   58DOPE  H18X 7480   0.041   6.135  13.331  0.4860  1.4792 -0.9103
   58DOPE  H18Y 7481  -0.105   6.045  13.378 -0.9708  0.2821 -0.1078
   58DOPE  H18Z 7482  -0.023   6.033  13.211  1.7908  0.5631  1.1686
   59DOPE     N 7483   0.515   1.510  11.891 -0.0279  0.0498 -0.2790
   59DOPE   HN1 7484   0.571   1.550  11.814  1.3597 -0.1956  0.5677
   59DOPE   HN2 7485   0.538   1.409  11.901 -1.1301 -0.6222 -3.4299
   59DOPE   HN3 7486   0.413   1.515  11.870  0.3719  1.9478 -2.0933
   59DOPE   C12 7487   0.552   1.573  12.020 -0.0120 -0.5239  0.1004
   59DOPE  H12A 7488   0.512   1.507  12.099 -1.2427  1.2648  1.0548
   59DOPE  H12B 7489   0.504   1.673  12.023  0.2106 -0.4085 -0.0867
   59DOPE   C11 7490   0.704   1.585  12.037 -0.0375 -0.7891  0.1081
   59DOPE  H11A 7491   0.737   1.481  12.059  0.6653 -0.1756  2.1472
   59DOPE  H11B 7492   0.725   1.645  12.128  1.0248  1.1493 -1.3113
   59DOPE     P 7493   0.924   1.630  11.909 -0.3017  0.0065 -0.0096
   59DOPE   O13 7494   0.958   1.721  11.799  0.0667 -0.4300  0.0373
   59DOPE   O14 7495   0.955   1.489  11.889 -0.5619  0.4592  0.1435
   59DOPE   O11 7496   0.990   1.687  12.043  0.0274  0.0433  0.4955
   59DOPE   O12 7497   0.767   1.644  11.924 -0.2144 -0.3063 -0.6471
   59DOPE    C1 7498   1.032   1.593  12.141 -0.0366 -0.0973  0.0665
   59DOPE    HA 7499   1.112   1.525  12.103  0.2571  0.6993 -0.7745
   59DOPE    HB 7500   0.952   1.518  12.161 -1.0254  0.5726 -1.2128
   59DOPE    C2 7501   1.077   1.661  12.273  0.0371 -0.5093  0.8582
   59DOPE    HS 7502   1.136   1.588  12.332  2.3724  0.9023  0.4049
   59DOPE   O21 7503   0.956   1.696  12.352 -0.2402 -0.2998  0.5679
   59DOPE   C21 7504   0.900   1.599  12.421 -0.4037  0.3477  0.0338
   59DOPE   O22 7505   0.942   1.485  12.446  0.4137  0.6019  0.8465
   59DOPE   C22 7506   0.785   1.662  12.488  1.4628 -0.0538 -0.8386
   59DOPE   H2R 7507   0.746   1.747  12.428  2.2490  0.6040 -0.4386
   59DOPE   H2S 7508   0.826   1.714  12.578  1.7244  0.3538 -1.1933
   59DOPE    C3 7509   1.164   1.784  12.249  0.1295 -0.0481 -0.0363
   59DOPE    HX 7510   1.113   1.867  12.194  2.1651  1.6729  0.5225
   59DOPE    HY 7511   1.242   1.762  12.174 -0.3970 -0.2222 -0.5430
   59DOPE   O31 7512   1.229   1.827  12.369 -0.8729  0.1089  0.6601
   59DOPE   C31 7513   1.155   1.909  12.436  0.1974  0.0094  0.1842
   59DOPE   O32 7514   1.050   1.960  12.397 -0.3408  0.1386  0.1374
   59DOPE   C32 7515   1.230   1.938  12.569  0.1783 -0.4598 -0.4628
   59DOPE   H2X 7516   1.278   1.852  12.620 -0.2171 -0.7938 -0.6442
   59DOPE   H2Y 7517   1.311   2.010  12.544 -0.5453  0.1013 -1.2397
   59DOPE   C23 7518   0.661   1.565  12.513  0.1831  0.1856 -0.3825
   59DOPE   H3R 7519   0.693   1.465  12.548 -0.8155  0.4442  1.4151
   59DOPE   H3S 7520   0.610   1.541  12.418 -0.8173 -1.9515  0.6269
   59DOPE   C24 7521   0.549   1.621  12.606 -0.5158  0.6447  0.0169
   59DOPE   H4R 7522   0.456   1.576  12.565 -0.9671  1.4745  0.0977
   59DOPE   H4S 7523   0.532   1.731  12.597 -1.8211  0.4868  0.3723
   59DOPE   C25 7524   0.560   1.575  12.747  0.4920  0.5687 -0.1882
   59DOPE   H5R 7525   0.548   1.465  12.746 -0.1053  0.6183 -1.8016
   59DOPE   H5S 7526   0.472   1.616  12.801 -0.0966  1.1117 -1.4998
   59DOPE   C26 7527   0.678   1.621  12.825  0.1226 -0.6596 -0.1304
   59DOPE   H6R 7528   0.764   1.593  12.760 -1.4042 -2.1090 -1.6212
   59DOPE   H6S 7529   0.688   1.560  12.917 -2.0587 -1.0872 -0.1318
   59DOPE   C27 7530   0.674   1.771  12.873 -0.7762 -0.9304 -1.2477
   59DOPE   H7R 7531   0.590   1.785  12.945  0.7052  1.5573  0.1317
   59DOPE   H7S 7532   0.665   1.850  12.795 -0.7290  0.2941 -0.0469
   59DOPE   C28 7533   0.806   1.788  12.956  0.6322  0.3646 -0.4740
   59DOPE   H8R 7534   0.876   1.805  12.872  0.9520  0.3545 -0.2120
   59DOPE   H8S 7535   0.825   1.692  13.010  0.9985 -0.0862 -1.3755
   59DOPE   C29 7536   0.795   1.898  13.059  0.5339  0.0977 -0.6718
   59DOPE   H9R 7537   0.770   1.996  13.016  2.3596  0.5333 -0.8314
   59DOPE  C210 7538   0.818   1.897  13.187 -0.2292 -0.1889 -0.5026
   59DOPE  H10R 7539   0.801   1.991  13.242  1.2561 -1.4422  2.3531
   59DOPE  C211 7540   0.839   1.780  13.276  0.5230  0.0060  0.2526
   59DOPE  H11R 7541   0.943   1.743  13.271 -0.7601 -3.8643 -3.5404
   59DOPE  H11S 7542   0.783   1.697  13.228 -1.3831  1.3745 -0.0007
   59DOPE  C212 7543   0.789   1.809  13.418  0.1525  0.3093  0.4345
   59DOPE  H12R 7544   0.689   1.855  13.399  0.4075  0.3853 -0.7639
   59DOPE  H12S 7545   0.851   1.886  13.469 -0.1003  0.6389  0.2528
   59DOPE  C213 7546   0.779   1.681  13.500 -0.0904 -0.9831  0.1292
   59DOPE  H13R 7547   0.875   1.625  13.509 -0.8439 -2.5468 -1.2339
   59DOPE  H13S 7548   0.703   1.616  13.452  0.0496 -0.3627 -0.9644
   59DOPE  C214 7549   0.728   1.708  13.640  0.9379  0.4618  0.5235
   59DOPE  H14R 7550   0.686   1.617  13.688 -0.0081  0.7728  0.3139
   59DOPE  H14S 7551   0.652   1.787  13.624  2.0316  0.9233 -3.1857
   59DOPE  C215 7552   0.831   1.757  13.740  0.2180  0.3305  0.0555
   59DOPE  H15R 7553   0.863   1.857  13.706 -2.0230  1.1043  0.0215
   59DOPE  H15S 7554   0.921   1.693  13.731  0.1146  0.2381 -0.3325
   59DOPE  C216 7555   0.788   1.775  13.883 -0.2034 -0.1459  0.2179
   59DOPE  H16R 7556   0.686   1.818  13.895 -0.3684 -0.9954  2.4010
   59DOPE  H16S 7557   0.849   1.856  13.927 -0.6104 -1.4353  3.4083
   59DOPE  C217 7558   0.792   1.650  13.964  0.1516 -0.0489  0.0273
   59DOPE  H17R 7559   0.896   1.612  13.975  1.4932  3.5116  0.8808
   59DOPE  H17S 7560   0.729   1.564  13.933 -1.1240  0.7053  0.4586
   59DOPE  C218 7561   0.734   1.662  14.104  0.4218  0.1585  0.3891
   59DOPE  H18R 7562   0.634   1.710  14.098  0.7500  0.7544 -0.5791
   59DOPE  H18S 7563   0.792   1.734  14.165  0.2228  0.8322 -0.2093
   59DOPE  H18T 7564   0.735   1.563  14.154  0.3962  0.5095  1.1012
   59DOPE   C33 7565   1.134   1.989  12.681 -0.2476 -0.9664 -0.1241
   59DOPE   H3X 7566   1.066   1.904  12.703 -2.4075  0.7574  0.2736
   59DOPE   H3Y 7567   1.072   2.073  12.642 -2.1891 -2.0128  0.5697
   59DOPE   C34 7568   1.206   2.041  12.805 -0.8665  0.2917 -1.0234
   59DOPE   H4X 7569   1.246   1.944  12.841 -1.4374 -0.0682 -1.3365
   59DOPE   H4Y 7570   1.285   2.110  12.769  0.0368  0.3515  0.9642
   59DOPE   C35 7571   1.124   2.112  12.908  0.5424  0.1218  0.1011
   59DOPE   H5X 7572   1.034   2.050  12.927 -0.1396  1.3224  0.8567
   59DOPE   H5Y 7573   1.089   2.208  12.866 -0.6738  0.1111  1.0451
   59DOPE   C36 7574   1.199   2.137  13.039  0.2490 -0.2378 -0.0181
   59DOPE   H6X 7575   1.286   2.205  13.027 -0.6560  1.2990  1.6780
   59DOPE   H6Y 7576   1.244   2.046  13.086  1.1832  1.0196  1.6366
   59DOPE   C37 7577   1.112   2.208  13.143 -0.1921 -0.2078  0.5367
   59DOPE   H7X 7578   1.057   2.287  13.087  0.0957 -0.3827  0.0108
   59DOPE   H7Y 7579   1.051   2.121  13.176 -0.6806  0.1239  0.5379
   59DOPE   C38 7580   1.189   2.270  13.258 -0.4947 -0.7846  0.6128
   59DOPE   H8X 7581   1.260   2.341  13.210 -1.2386 -1.4884 -1.6421
   59DOPE   H8Y 7582   1.253   2.194  13.307 -0.8509 -0.4702  1.5912
   59DOPE   C39 7583   1.105   2.349  13.353 -0.0109  0.1890  0.2115
   59DOPE   H9X 7584   1.122   2.458  13.351  0.4509  0.1605  1.4940
   59DOPE  C310 7585   1.031   2.295  13.451 -0.4982  0.6425 -0.2102
   59DOPE  H10X 7586   0.979   2.367  13.516 -0.2696  1.4781 -0.9438
   59DOPE  C311 7587   0.989   2.149  13.481  0.0469  0.1160  0.7804
   59DOPE  H11X 7588   0.879   2.132  13.476  0.5017 -3.2976 -3.9069
   59DOPE  H11Y 7589   1.020   2.070  13.409 -1.6725 -0.1968  0.3438
   59DOPE  C312 7590   1.032   2.099  13.617  0.5511 -0.0159  0.5286
   59DOPE  H12X 7591   1.141   2.118  13.628  0.8092 -1.2528  0.2416
   59DOPE  H12Y 7592   1.024   1.989  13.632  1.6285  0.0675  1.9856
   59DOPE  C313 7593   0.947   2.160  13.728 -0.2293 -0.2254 -0.1139
   59DOPE  H13X 7594   0.952   2.270  13.716 -0.0173 -0.2917 -0.6851
   59DOPE  H13Y 7595   0.845   2.116  13.719 -0.3359 -0.3560  1.4412
   59DOPE  C314 7596   1.005   2.127  13.868 -0.3324 -0.0136  0.1094
   59DOPE  H14X 7597   1.111   2.162  13.870 -0.5523  0.7178 -0.4576
   59DOPE  H14Y 7598   1.001   2.016  13.876  1.2076 -0.0852  0.1953
   59DOPE  C315 7599   0.915   2.187  13.972 -0.3747  0.2945  0.4491
   59DOPE  H15X 7600   0.807   2.169  13.950 -0.0967 -0.3585 -0.4927
   59DOPE  H15Y 7601   0.911   2.298  13.965  0.3943  0.4057  1.6714
   59DOPE  C316 7602   0.934   2.150  14.123  0.2467  0.1975  0.6869
   59DOPE  H16X 7603   0.881   2.231  14.177  2.1279  0.1491  2.7145
   59DOPE  H16Y 7604   1.042   2.156  14.147  0.7187  0.2537 -1.2291
   59DOPE  C317 7605   0.875   2.015  14.163 -0.0131 -0.2337  0.1908
   59DOPE  H17X 7606   0.904   1.933  14.093  0.4136 -0.2467  0.3803
   59DOPE  H17Y 7607   0.917   1.976  14.258  3.1937 -2.1542 -1.8179
   59DOPE  C318 7608   0.719   2.014  14.172  0.1119  1.0361  0.0379
   59DOPE  H18X 7609   0.679   1.921  14.219 -0.0431  0.4036 -1.3004
   59DOPE  H18Y 7610   0.674   2.090  14.240 -2.2315  0.1015 -0.3611
   59DOPE  H18Z 7611   0.662   2.031  14.079 -0.3357  4.2174  0.7813
   60DOPE     N 7612   0.485   6.467  11.222  0.2204 -0.3734 -0.3780
   60DOPE   HN1 7613   0.558   6.409  11.268  0.3110 -0.2590 -0.3775
   60DOPE   HN2 7614   0.396   6.413  11.214 -0.9758  0.8592  2.9339
   60DOPE   HN3 7615   0.519   6.489  11.127 -2.3274  2.6744 -0.7624
   60DOPE   C12 7616   0.465   6.604  11.286 -0.0503  0.8983  0.0842
   60DOPE  H12A 7617   0.565   6.650  11.272 -0.3873  1.7619  0.4113
   60DOPE  H12B 7618   0.460   6.602  11.397 -0.5518  0.7484  0.0652
   60DOPE   C11 7619   0.357   6.684  11.221 -0.1747 -0.2779  0.2164
   60DOPE  H11A 7620   0.378   6.710  11.115  0.4498 -0.7566  0.2165
   60DOPE  H11B 7621   0.353   6.782  11.272 -0.6233 -0.9666  1.5555
   60DOPE     P 7622   0.095   6.696  11.224  0.1347 -0.3388 -0.2913
   60DOPE   O13 7623   0.005   6.621  11.133 -0.1170 -0.5721 -0.0293
   60DOPE   O14 7624   0.114   6.840  11.193  0.0579  0.1384  0.1072
   60DOPE   O11 7625   0.058   6.681  11.378 -0.0253  0.3778  0.6671
   60DOPE   O12 7626   0.234   6.620  11.229 -0.1830 -0.3835  0.4391
   60DOPE    C1 7627   0.041   6.553  11.433  0.7303  0.6655 -0.0387
   60DOPE    HA 7628   0.131   6.488  11.421  0.5746  0.4827 -0.2244
   60DOPE    HB 7629  -0.046   6.493  11.399 -0.4369  0.9794  2.2324
   60DOPE    C2 7630   0.020   6.559  11.588 -0.2925  0.5962  0.6448
   60DOPE    HS 7631   0.058   6.462  11.627 -0.8360 -0.8930 -2.2369
   60DOPE   O21 7632  -0.125   6.574  11.612 -0.1245 -0.0823  0.2529
   60DOPE   C21 7633  -0.167   6.500  11.713  0.4325  0.4778  0.1442
   60DOPE   O22 7634  -0.099   6.432  11.788  0.1330  0.5730  0.6275
   60DOPE   C22 7635  -0.311   6.534  11.751  0.6464 -0.4488  0.1352
   60DOPE   H2R 7636  -0.375   6.499  11.667  0.2509 -0.2884  0.3676
   60DOPE   H2S 7637  -0.315   6.644  11.761  1.3311 -0.4951  1.1120
   60DOPE    C3 7638   0.101   6.662  11.664  0.0694 -0.0157  0.0376
   60DOPE    HX 7639   0.041   6.755  11.669 -1.1603 -0.8430  2.1386
   60DOPE    HY 7640   0.196   6.686  11.611 -0.7536  2.1216 -0.5630
   60DOPE   O31 7641   0.133   6.605  11.790 -0.0678  0.0027 -0.2302
   60DOPE   C31 7642   0.088   6.667  11.899 -0.1955 -0.5855  0.3899
   60DOPE   O32 7643   0.029   6.777  11.903 -0.2831 -0.1099  0.1801
   60DOPE   C32 7644   0.127   6.581  12.021  0.0305  0.0878 -0.1001
   60DOPE   H2X 7645   0.101   6.475  12.004  0.0395 -0.0468  0.7064
   60DOPE   H2Y 7646   0.237   6.583  12.038 -0.2639  0.0046  2.0931
   60DOPE   C23 7647  -0.362   6.469  11.880  0.2286 -0.5163  0.4291
   60DOPE   H3R 7648  -0.314   6.369  11.891 -0.0760 -0.5588  1.5873
   60DOPE   H3S 7649  -0.473   6.466  11.880 -0.0261  2.9975 -1.8704
   60DOPE   C24 7650  -0.326   6.543  12.006 -0.0947  0.6120 -0.5597
   60DOPE   H4R 7651  -0.367   6.646  12.010 -0.4687  0.5269 -1.8069
   60DOPE   H4S 7652  -0.215   6.552  12.012  0.1149 -1.2463 -1.0443
   60DOPE   C25 7653  -0.381   6.470  12.133  0.3213  0.3268 -0.4146
   60DOPE   H5R 7654  -0.348   6.364  12.137  2.3530  0.8773 -1.0895
   60DOPE   H5S 7655  -0.491   6.482  12.122  0.2317 -0.7888 -0.8691
   60DOPE   C26 7656  -0.330   6.538  12.260  0.0773 -0.3715  0.3959
   60DOPE   H6R 7657  -0.351   6.647  12.252 -3.7102 -1.0392 -0.8212
   60DOPE   H6S 7658  -0.223   6.521  12.283  0.4226  1.5373  0.3800
   60DOPE   C27 7659  -0.401   6.471  12.378  0.0992  0.2960  0.5336
   60DOPE   H7R 7660  -0.378   6.363  12.369 -1.6823 -0.1974  1.4907
   60DOPE   H7S 7661  -0.512   6.473  12.368 -0.0157 -1.3983  1.1474
   60DOPE   C28 7662  -0.351   6.523  12.514 -0.0212 -0.6924  0.7550
   60DOPE   H8R 7663  -0.242   6.545  12.505 -0.1238 -0.8069 -1.3911
   60DOPE   H8S 7664  -0.365   6.442  12.588 -1.7464 -0.7689  0.3736
   60DOPE   C29 7665  -0.408   6.657  12.561 -0.2685 -0.1737 -0.2504
   60DOPE   H9R 7666  -0.469   6.697  12.478 -0.3533 -1.7581 -1.0010
   60DOPE  C210 7667  -0.385   6.724  12.674 -0.5389  0.6329 -0.1520
   60DOPE  H10R 7668  -0.431   6.822  12.694  0.3127  0.9893  0.1430
   60DOPE  C211 7669  -0.304   6.660  12.784 -1.5098 -0.6468 -0.5856
   60DOPE  H11R 7670  -0.200   6.641  12.752 -0.7447 -0.1719  1.4870
   60DOPE  H11S 7671  -0.350   6.564  12.817 -1.5445 -0.7395 -0.8973
   60DOPE  C212 7672  -0.311   6.754  12.912 -0.4366 -0.3462  0.2824
   60DOPE  H12R 7673  -0.419   6.769  12.929 -0.2944  1.3952 -0.2094
   60DOPE  H12S 7674  -0.278   6.858  12.895 -2.7686  0.3303 -0.4605
   60DOPE  C213 7675  -0.244   6.696  13.031 -0.3398  0.9726  0.7751
   60DOPE  H13R 7676  -0.135   6.690  13.011 -0.0604  1.0701  2.1701
   60DOPE  H13S 7677  -0.282   6.594  13.049  0.7700  0.3539 -0.2504
   60DOPE  C214 7678  -0.257   6.787  13.151  0.1122 -0.5064 -0.5276
   60DOPE  H14R 7679  -0.363   6.820  13.146 -0.6151 -2.2804  1.4110
   60DOPE  H14S 7680  -0.193   6.877  13.144 -1.6122  0.8968  0.8304
   60DOPE  C215 7681  -0.225   6.722  13.289 -0.0539 -0.5427  0.2319
   60DOPE  H15R 7682  -0.132   6.664  13.266  0.9915  0.9945  0.4140
   60DOPE  H15S 7683  -0.282   6.630  13.312 -1.9230  0.6926  0.7312
   60DOPE  C216 7684  -0.228   6.820  13.409 -1.0207 -0.3110  0.0235
   60DOPE  H16R 7685  -0.286   6.913  13.394 -1.3612 -0.7991 -2.0191
   60DOPE  H16S 7686  -0.122   6.850  13.421 -1.1175  0.2510 -0.5266
   60DOPE  C217 7687  -0.265   6.745  13.538  0.2944 -0.4073 -0.4714
   60DOPE  H17R 7688  -0.217   6.645  13.542 -2.1772 -1.6228  2.3061
   60DOPE  H17S 7689  -0.370   6.711  13.534  0.8379 -2.0479 -1.7692
   60DOPE  C218 7690  -0.247   6.815  13.677  0.0018 -0.3371 -0.0010
   60DOPE  H18R 7691  -0.328   6.889  13.690 -0.0271 -0.3514 -0.0978
   60DOPE  H18S 7692  -0.146   6.859  13.684  1.1122 -2.6944 -0.3149
   60DOPE  H18T 7693  -0.256   6.734  13.753  0.3702 -0.5209 -0.1527
   60DOPE   C33 7694   0.052   6.621  12.152 -0.0618 -0.1015  0.1502
   60DOPE   H3X 7695  -0.055   6.607  12.128  0.6205 -2.0017 -2.1536
   60DOPE   H3Y 7696   0.073   6.729  12.172 -0.9152  0.1244 -0.1176
   60DOPE   C34 7697   0.091   6.527  12.265  0.2750 -0.4670  0.3963
   60DOPE   H4X 7698   0.008   6.539  12.338 -0.5888 -0.1957 -0.6131
   60DOPE   H4Y 7699   0.095   6.421  12.229  0.8424  0.1408 -1.4701
   60DOPE   C35 7700   0.219   6.572  12.345  1.0460 -0.0990 -0.4548
   60DOPE   H5X 7701   0.182   6.668  12.385 -1.2701 -1.1335  0.0551
   60DOPE   H5Y 7702   0.310   6.583  12.281  1.3072  1.8846  0.2081
   60DOPE   C36 7703   0.269   6.491  12.460  0.4385 -0.2783 -0.4625
   60DOPE   H6X 7704   0.311   6.393  12.428  2.0994  0.0305  0.7015
   60DOPE   H6Y 7705   0.178   6.477  12.522 -0.6993  0.7991 -1.8174
   60DOPE   C37 7706   0.371   6.570  12.534  0.3254  0.2871  0.2137
   60DOPE   H7X 7707   0.452   6.580  12.458 -0.8602  1.0198 -1.0039
   60DOPE   H7Y 7708   0.335   6.666  12.576 -1.6012 -0.8486  1.2826
   60DOPE   C38 7709   0.435   6.502  12.660  0.0278 -0.3181  0.4019
   60DOPE   H8X 7710   0.522   6.565  12.687  0.1964 -1.1611  1.9464
   60DOPE   H8Y 7711   0.485   6.409  12.625  1.5452  0.9255 -0.9043
   60DOPE   C39 7712   0.341   6.466  12.775  0.2480  0.3629 -1.0233
   60DOPE   H9X 7713   0.261   6.394  12.754  3.1954 -3.0312 -1.5443
   60DOPE  C310 7714   0.359   6.492  12.907 -0.2680 -0.8356  0.1113
   60DOPE  H10X 7715   0.286   6.449  12.977 -0.6213 -1.9227 -0.8793
   60DOPE  C311 7716   0.469   6.576  12.957 -0.4151  0.5692  0.5462
   60DOPE  H11X 7717   0.504   6.646  12.879 -0.7436  0.0146 -0.1062
   60DOPE  H11Y 7718   0.438   6.632  13.048  2.8459  1.3295  1.3099
   60DOPE  C312 7719   0.589   6.484  12.985  0.0801 -0.7983 -1.3270
   60DOPE  H12X 7720   0.610   6.405  12.910 -2.7955 -0.8343 -2.2393
   60DOPE  H12Y 7721   0.557   6.423  13.072  1.3575  2.1489  1.3797
   60DOPE  C313 7722   0.718   6.556  13.035  0.6250 -0.1293 -0.3084
   60DOPE  H13X 7723   0.759   6.619  12.953  3.9413 -1.1693  0.3975
   60DOPE  H13Y 7724   0.701   6.623  13.122  4.0976 -1.1539  1.3513
   60DOPE  C314 7725   0.829   6.466  13.087  0.8874  0.1608 -0.2582
   60DOPE  H14X 7726   0.917   6.526  13.118  0.5406  1.3726 -1.5664
   60DOPE  H14Y 7727   0.847   6.397  13.002 -3.9374 -1.9734  0.0750
   60DOPE  C315 7728   0.783   6.362  13.198 -0.3338 -0.4811  0.0159
   60DOPE  H15X 7729   0.709   6.292  13.154 -0.8414 -0.3859  0.6948
   60DOPE  H15Y 7730   0.733   6.423  13.277  0.9818  0.0371  0.4843
   60DOPE  C316 7731   0.903   6.284  13.263 -0.3165 -0.9561  0.2599
   60DOPE  H16X 7732   0.974   6.356  13.307  0.9772 -0.8400 -1.8710
   60DOPE  H16Y 7733   0.954   6.237  13.175  0.7480 -2.3538  1.5715
   60DOPE  C317 7734   0.871   6.181  13.369 -0.3391  0.6116 -0.4166
   60DOPE  H17X 7735   0.845   6.248  13.454  0.4651  1.6308 -0.9505
   60DOPE  H17Y 7736   0.783   6.120  13.342 -2.1883  2.4408  1.1318
   60DOPE  C318 7737   0.990   6.091  13.407 -0.2673 -0.4025 -0.0927
   60DOPE  H18X 7738   0.956   5.987  13.425  0.0145 -0.4471  0.2009
   60DOPE  H18Y 7739   1.063   6.074  13.325 -0.2034 -0.3460 -0.0487
   60DOPE  H18Z 7740   1.054   6.127  13.491 -1.8143 -0.5307  1.1739
   6123SM     N 7741   2.892   3.961  17.422  0.4760  0.4596 -0.0706
   6123SM   C15 7742   2.877   4.100  17.431  0.1893  0.6091 -0.0536
   6123SM  H15A 7743   2.884   4.142  17.332 -2.0343 -0.0579 -0.5672
   6123SM  H15B 7744   2.952   4.139  17.498  0.5457 -0.9782  0.5192
   6123SM  H15C 7745   2.779   4.132  17.465 -0.2439 -0.8000  0.1332
   6123SM   C14 7746   3.033   3.919  17.389 -0.4820  0.0186 -0.6960
   6123SM  H14A 7747   3.052   3.813  17.394  0.2847  0.1709 -0.1544
   6123SM  H14B 7748   3.100   3.960  17.463 -1.3133  1.9265 -0.9268
   6123SM  H14C 7749   3.063   3.974  17.301  1.1838 -1.0080 -0.8119
   6123SM   C13 7750   2.859   3.901  17.556  0.1750  0.2558  0.5323
   6123SM  H13A 7751   2.752   3.889  17.561  0.1486  0.9343  1.9623
   6123SM  H13B 7752   2.889   3.963  17.638 -0.3168 -1.0343  1.7225
   6123SM  H13C 7753   2.912   3.807  17.567  0.3729  0.4954  1.6975
   6123SM   C12 7754   2.798   3.898  17.318 -0.1889 -0.3324 -0.4328
   6123SM  H12A 7755   2.697   3.888  17.355 -0.0799  0.1056 -0.0141
   6123SM  H12B 7756   2.844   3.801  17.302  0.9291  0.0537  0.3940
   6123SM   C11 7757   2.791   3.970  17.184 -0.8856  0.1955  0.0717
   6123SM  H11A 7758   2.762   3.894  17.107  0.5582 -0.1611 -0.1411
   6123SM  H11B 7759   2.892   3.996  17.147 -1.4709  2.0287 -0.3428
   6123SM     P 7760   2.690   4.181  17.064 -0.2763  0.3840 -0.1653
   6123SM   O13 7761   2.603   4.290  17.096  0.1208  0.0420  0.4372
   6123SM   O14 7762   2.816   4.219  17.005  0.3482 -0.5376  0.4545
   6123SM   O11 7763   2.617   4.089  16.955  0.0373  0.1248  0.1908
   6123SM   O12 7764   2.705   4.088  17.193 -0.0848  0.4813 -0.4273
   6123SM   C1S 7765   2.578   4.148  16.827  0.1558  0.4437 -0.1949
   6123SM   H1S 7766   2.553   4.256  16.841  0.6457  0.2938  2.5259
   6123SM   H1T 7767   2.478   4.109  16.796  1.0472 -1.2664 -1.0304
   6123SM    NF 7768   2.656   4.193  16.598  0.1059 -0.9901  0.6758
   6123SM   HNF 7769   2.605   4.142  16.529 -0.5042  0.0891  0.3002
   6123SM   C2S 7770   2.685   4.119  16.717 -0.0426  0.4025 -0.1924
   6123SM   H2S 7771   2.773   4.168  16.763  0.6970  0.2683 -1.4316
   6123SM   C3S 7772   2.707   3.962  16.701 -0.9858 -0.5846  0.3945
   6123SM   H3S 7773   2.610   3.914  16.677 -1.2198 -0.2036  0.5566
   6123SM    O3 7774   2.751   3.897  16.816 -0.6324 -0.6976  0.5394
   6123SM   HO3 7775   2.728   3.950  16.893 -0.6571 -0.6971  0.5302
   6123SM   C4S 7776   2.807   3.942  16.597  0.5015  0.0679  0.2630
   6123SM   H4S 7777   2.915   3.942  16.619  0.8387  0.2907 -1.2473
   6123SM   C5S 7778   2.780   3.921  16.462  0.3945  0.3392 -0.4983
   6123SM   H5S 7779   2.678   3.932  16.423 -0.3607  1.5349  1.6523
   6123SM   C6S 7780   2.884   3.919  16.350  0.7093  0.7712 -0.1779
   6123SM   H6S 7781   2.835   3.984  16.274 -2.3881  0.2567  1.2213
   6123SM   H6T 7782   2.907   3.821  16.302 -2.2002 -1.2351  2.1536
   6123SM   C7S 7783   3.014   3.995  16.383  0.1134  0.2018 -0.1783
   6123SM   H7S 7784   3.062   3.955  16.475 -2.0851  0.3231  1.0883
   6123SM   H7T 7785   2.983   4.099  16.404  0.5428  0.1026  1.0046
   6123SM   C8S 7786   3.110   3.977  16.265 -0.3526 -0.3143 -0.1617
   6123SM   H8S 7787   3.141   3.871  16.274 -0.5919 -0.4124 -0.4588
   6123SM   H8T 7788   3.191   4.052  16.275 -0.9946  0.6601 -1.8653
   6123SM   C9S 7789   3.051   3.993  16.120  0.0529 -0.5466 -0.0423
   6123SM   H9S 7790   3.042   4.104  16.116  1.0132 -0.4236  0.7310
   6123SM   H9T 7791   2.958   3.933  16.109 -1.2884  0.7884  3.0246
   6123SM  C10S 7792   3.144   3.960  16.000  0.4847  0.3360 -0.3936
   6123SM  H10S 7793   3.181   3.858  16.022 -2.0904 -0.6093 -0.2108
   6123SM  H10T 7794   3.226   4.036  15.999  0.9167 -0.1204 -0.3733
   6123SM  C11S 7795   3.073   3.959  15.860 -0.1470 -0.1384 -0.3450
   6123SM  H11S 7796   3.029   4.061  15.851 -0.6464 -0.5045 -2.5960
   6123SM  H11T 7797   2.997   3.878  15.856  0.2684 -0.7547  2.2665
   6123SM  C12S 7798   3.182   3.946  15.753  0.4693 -0.2883  0.1432
   6123SM  H12S 7799   3.231   3.851  15.782  0.9728 -0.4684 -1.2150
   6123SM  H12T 7800   3.252   4.031  15.770 -0.5263  0.2764  1.5655
   6123SM  C13S 7801   3.134   3.941  15.605  0.3508 -0.0813  0.2881
   6123SM  H13S 7802   3.068   4.030  15.594 -0.3083 -0.2657  2.3494
   6123SM  H13T 7803   3.076   3.848  15.584  2.3520 -1.3739  0.2295
   6123SM  C14S 7804   3.259   3.949  15.515 -0.6693 -0.0635  0.1776
   6123SM  H14S 7805   3.317   3.857  15.537  0.5743  0.2523 -1.5438
   6123SM  H14T 7806   3.321   4.037  15.540  0.2499 -0.7607  0.3999
   6123SM  C15S 7807   3.229   3.959  15.367 -0.3894  0.0238  0.2923
   6123SM  H15S 7808   3.152   4.040  15.367 -0.1187  0.3025  1.6404
   6123SM  H15T 7809   3.180   3.864  15.337  2.1465 -1.1286 -0.4101
   6123SM  C16S 7810   3.354   3.992  15.288  0.4531 -1.3189 -0.4974
   6123SM  H16S 7811   3.423   3.906  15.303 -1.0050 -2.1251  2.5746
   6123SM  H16T 7812   3.400   4.087  15.323 -0.5141 -1.2899  0.7926
   6123SM  C17S 7813   3.325   4.002  15.141 -0.0686  0.8332  0.1519
   6123SM  H17S 7814   3.223   4.046  15.131  0.2602  1.2955 -1.4923
   6123SM  H17T 7815   3.313   3.899  15.101  0.0453  0.3587  1.3018
   6123SM  C18S 7816   3.413   4.090  15.058  0.1087 -0.3589  0.5519
   6123SM  H18S 7817   3.510   4.043  15.028 -0.2500  0.3715 -2.0496
   6123SM  H18T 7818   3.431   4.187  15.108  1.0648  0.4229 -1.2190
   6123SM  H18U 7819   3.369   4.127  14.963  2.6764  1.4578 -0.0348
   6123SM   C1F 7820   2.659   4.324  16.595 -0.6546 -0.0484 -0.0195
   6123SM    OF 7821   2.719   4.385  16.688 -0.1665 -0.3682  0.2296
   6123SM   C2F 7822   2.592   4.391  16.481  0.0322 -0.9024 -0.5173
   6123SM   H2F 7823   2.541   4.483  16.518  1.0308 -0.4590 -0.1937
   6123SM   H2G 7824   2.507   4.329  16.446 -1.6933  2.5045 -2.9133
   6123SM   C3F 7825   2.693   4.413  16.364  0.4721  0.1879 -0.2546
   6123SM   H3F 7826   2.758   4.500  16.387 -1.0470  0.9467  1.3685
   6123SM   H3G 7827   2.639   4.457  16.278 -0.9075  0.7075  0.8367
   6123SM   C4F 7828   2.771   4.287  16.323  0.4711  0.1902 -0.5801
   6123SM   H4F 7829   2.685   4.219  16.311  1.4609 -1.2593  0.2467
   6123SM   H4G 7830   2.830   4.251  16.410 -0.6807  1.4495  0.7733
   6123SM   C5F 7831   2.868   4.312  16.209 -0.3397  0.0274 -0.4327
   6123SM   H5F 7832   2.966   4.264  16.232 -1.5091 -1.3740  1.9742
   6123SM   H5G 7833   2.883   4.421  16.203  0.0458 -0.0420 -0.7992
   6123SM   C6F 7834   2.814   4.256  16.067 -0.0491 -0.3717  0.2855
   6123SM   H6F 7835   2.713   4.301  16.054  0.0755  0.3975  1.6810
   6123SM   H6G 7836   2.821   4.146  16.068  0.8280 -0.3196  0.7480
   6123SM   C7F 7837   2.905   4.301  15.955 -0.4750  0.3776  0.4033
   6123SM   H7F 7838   3.003   4.249  15.951 -2.8242 -4.5487 -0.7380
   6123SM   H7G 7839   2.920   4.410  15.966 -1.1943  0.5725 -0.4092
   6123SM   C8F 7840   2.847   4.294  15.818 -0.2822 -0.0817  0.5056
   6123SM   H8F 7841   2.768   4.373  15.817  0.4169  0.6231 -0.1404
   6123SM   H8G 7842   2.802   4.194  15.801 -1.9871  0.8105 -0.5537
   6123SM   C9F 7843   2.945   4.334  15.710 -0.1095  0.5416  0.4639
   6123SM   H9F 7844   3.019   4.251  15.713 -1.9899 -1.2377 -0.1481
   6123SM   H9G 7845   3.005   4.426  15.723  0.2070  0.4212 -0.0947
   6123SM  C10F 7846   2.896   4.335  15.565  0.2508  0.2924 -0.0290
   6123SM  H10F 7847   2.831   4.423  15.550 -0.4939 -0.2168  0.1488
   6123SM  H10G 7848   2.830   4.246  15.559  0.2098  0.3735 -1.0013
   6123SM  C11F 7849   3.015   4.334  15.468 -0.1161 -0.9961 -0.2079
   6123SM  H11F 7850   3.075   4.241  15.477 -0.0496 -0.7887  1.9444
   6123SM  H11G 7851   3.076   4.425  15.481 -0.9058 -0.5561  0.4779
   6123SM  C12F 7852   2.962   4.352  15.323 -0.4185 -0.1520  0.3861
   6123SM  H12F 7853   2.914   4.450  15.303 -0.8764 -0.2151  1.1253
   6123SM  H12G 7854   2.880   4.277  15.315 -0.1801 -0.6515  2.1176
   6123SM  C13F 7855   3.064   4.342  15.217  0.0916 -0.1780 -0.1618
   6123SM  H13F 7856   3.114   4.243  15.224  1.1402  0.1095 -2.5618
   6123SM  H13G 7857   3.137   4.425  15.221  0.2213 -0.3194  0.9526
   6123SM  C14F 7858   3.006   4.344  15.072 -0.9761 -0.4154  0.4081
   6123SM  H14F 7859   2.960   4.442  15.050 -0.9166 -0.5498 -0.3203
   6123SM  H14G 7860   2.926   4.267  15.066  0.3349 -2.1795  3.1531
   6123SM  C15F 7861   3.111   4.299  14.967 -0.5188  0.3757  0.6523
   6123SM  H15F 7862   3.126   4.189  14.971 -0.8160  0.2295 -1.2875
   6123SM  H15G 7863   3.203   4.356  14.988  1.4728 -2.4136  0.1319
   6123SM  C16F 7864   3.068   4.334  14.825 -0.2579  0.5788  0.1537
   6123SM  H16F 7865   3.064   4.444  14.813  0.7707  0.6168  0.0693
   6123SM  H16G 7866   2.965   4.291  14.822  0.1044 -0.6682  2.8695
   6123SM  C17F 7867   3.143   4.255  14.713 -0.1480 -0.9517 -0.7057
   6123SM  H17F 7868   3.086   4.250  14.617 -0.5566  0.0281 -0.5195
   6123SM  H17G 7869   3.145   4.152  14.755 -2.2558 -0.0927  1.6937
   6123SM  C18F 7870   3.285   4.311  14.680  0.0822 -0.1150 -0.1830
   6123SM  H18F 7871   3.338   4.310  14.777 -0.2571  0.4083  0.0098
   6123SM  H18G 7872   3.278   4.417  14.648 -1.2798  0.4781  1.8752
   6123SM  C19F 7873   3.358   4.220  14.581 -0.5387 -0.2962 -0.8470
   6123SM  H19F 7874   3.343   4.114  14.610  1.2980  0.1567  2.1869
   6123SM  H19G 7875   3.466   4.245  14.575 -0.4230 -0.9270 -1.6086
   6123SM  C20F 7876   3.303   4.240  14.441  0.1660  0.4748 -0.3318
   6123SM  H20F 7877   3.315   4.347  14.415 -2.1375  1.1250  0.9954
   6123SM  H20G 7878   3.196   4.211  14.442 -0.4941  2.6733  1.3234
   6123SM  C21F 7879   3.368   4.152  14.332 -0.0672  0.5225  0.0607
   6123SM  H21F 7880   3.478   4.166  14.341 -0.2844  1.2008  2.3408
   6123SM  H21G 7881   3.343   4.197  14.234 -3.5160 -0.9250  0.1522
   6123SM  C22F 7882   3.336   4.000  14.347 -0.4947 -0.6657 -0.2553
   6123SM  H22F 7883   3.226   3.997  14.330 -0.7740 -0.1833  1.2648
   6123SM  H22G 7884   3.363   3.977  14.452  1.6170 -1.6658 -0.9718
   6123SM  C23F 7885   3.402   3.915  14.241 -0.3175 -0.2170 -0.0359
   6123SM  H23F 7886   3.385   3.957  14.140  1.8161  0.6823 -0.0735
   6123SM  H23G 7887   3.372   3.807  14.236  0.7920 -0.5770  0.7851
   6123SM  H23H 7888   3.512   3.915  14.253 -0.1199 -1.6120 -1.4829
   6223SM     N 7889   3.144   2.627  17.112  0.0801  0.2754 -0.2112
   6223SM   C15 7890   3.211   2.720  17.204 -0.1002 -0.1682 -0.1070
   6223SM  H15A 7891   3.297   2.762  17.154  0.9064 -3.0703 -1.0074
   6223SM  H15B 7892   3.248   2.662  17.288 -1.4783 -0.4615  0.3199
   6223SM  H15C 7893   3.159   2.800  17.254  0.5229  1.2054 -1.5872
   6223SM   C14 7894   3.243   2.524  17.058  0.0438 -0.4022  0.5311
   6223SM  H14A 7895   3.315   2.571  16.993 -1.1693 -0.8401 -1.1698
   6223SM  H14B 7896   3.192   2.449  16.999  1.2755  0.3598 -1.6114
   6223SM  H14C 7897   3.303   2.476  17.134 -0.0293 -2.8114 -0.8263
   6223SM   C13 7898   3.040   2.542  17.179 -0.7208 -0.6873  0.1273
   6223SM  H13A 7899   2.956   2.592  17.226 -2.2169 -1.1729 -1.8760
   6223SM  H13B 7900   3.088   2.492  17.262  0.2238 -1.0879 -0.6509
   6223SM  H13C 7901   2.992   2.463  17.122 -3.4932  1.0194 -0.1202
   6223SM   C12 7902   3.085   2.711  16.992  0.2017 -0.1385 -0.9193
   6223SM  H12A 7903   3.068   2.640  16.913  1.5397  1.3597 -2.6203
   6223SM  H12B 7904   3.165   2.770  16.950  1.5380 -0.2442  1.2933
   6223SM   C11 7905   2.971   2.810  17.013 -0.1559  0.0038 -0.8791
   6223SM  H11A 7906   2.889   2.761  17.069 -0.9605  3.4098  1.2348
   6223SM  H11B 7907   2.947   2.846  16.911  1.7156  2.0738 -0.6805
   6223SM     P 7908   3.099   3.041  17.052 -0.0530  0.5891  0.0262
   6223SM   O13 7909   3.052   3.157  17.130 -0.5043 -0.3319  0.8328
   6223SM   O14 7910   3.235   2.987  17.056  0.1782 -0.1102 -0.2466
   6223SM   O11 7911   3.070   3.058  16.896 -0.6575 -0.1068  0.1595
   6223SM   O12 7912   3.010   2.920  17.088 -0.3109 -0.3811 -1.2513
   6223SM   C1S 7913   2.961   3.138  16.851  0.1903  0.5654 -1.1558
   6223SM   H1S 7914   2.962   3.238  16.898 -1.2454  0.8301 -1.6212
   6223SM   H1T 7915   2.868   3.094  16.893 -1.0646  1.9505 -2.3589
   6223SM    NF 7916   2.880   3.242  16.639 -0.4869 -0.9642  0.0122
   6223SM   HNF 7917   2.791   3.217  16.603 -0.0422 -0.3813 -1.5991
   6223SM   C2S 7918   2.970   3.142  16.697 -0.0938 -0.3226  0.0194
   6223SM   H2S 7919   3.077   3.168  16.681 -0.3600 -0.4908 -2.4143
   6223SM   C3S 7920   2.948   3.007  16.620 -0.2217  0.1133 -0.3222
   6223SM   H3S 7921   2.839   2.988  16.614 -0.4495  1.7460 -3.9827
   6223SM    O3 7922   3.003   2.891  16.682 -0.1065 -0.4113  0.0999
   6223SM   HO3 7923   3.035   2.925  16.766 -0.0552  0.1676 -0.1448
   6223SM   C4S 7924   2.991   3.013  16.479 -0.2274 -1.0012 -0.6216
   6223SM   H4S 7925   2.906   3.041  16.415 -0.3252  2.7962  0.8783
   6223SM   C5S 7926   3.119   3.010  16.435  0.5503  0.3189  0.2492
   6223SM   H5S 7927   3.201   2.984  16.503  0.0070 -0.2679  0.6893
   6223SM   C6S 7928   3.159   3.032  16.293 -0.1211 -0.1669  0.7779
   6223SM   H6S 7929   3.231   2.953  16.263  2.1548  1.4068  1.7994
   6223SM   H6T 7930   3.226   3.120  16.283  3.0166 -2.4475  0.3409
   6223SM   C7S 7931   3.040   3.033  16.197  0.0866  0.4394 -0.0759
   6223SM   H7S 7932   2.969   3.114  16.224 -0.5276 -0.0767 -0.1217
   6223SM   H7T 7933   2.985   2.936  16.192 -0.6003  0.8415 -0.5542
   6223SM   C8S 7934   3.081   3.065  16.052 -0.0218 -0.0454  0.0296
   6223SM   H8S 7935   3.141   3.159  16.059  1.3073 -0.9204  0.8826
   6223SM   H8T 7936   2.980   3.083  16.011 -0.3805 -0.4896  0.7035
   6223SM   C9S 7937   3.145   2.955  15.967  0.0888  0.2913 -0.9880
   6223SM   H9S 7938   3.092   2.858  15.969 -1.3067  1.0333 -0.8443
   6223SM   H9T 7939   3.242   2.931  16.016 -0.5657  0.0356  0.2103
   6223SM  C10S 7940   3.146   3.000  15.818 -0.0192  0.2835 -0.8054
   6223SM  H10S 7941   3.181   3.105  15.808 -2.6206  1.2019 -1.0482
   6223SM  H10T 7942   3.038   3.014  15.795 -0.0352 -0.1165 -0.9847
   6223SM  C11S 7943   3.202   2.907  15.713 -0.5311 -0.3713 -0.2927
   6223SM  H11S 7944   3.142   2.816  15.697  0.6317 -1.2806  0.3789
   6223SM  H11T 7945   3.304   2.878  15.746 -0.3143 -0.7214 -1.2399
   6223SM  C12S 7946   3.209   2.975  15.568  0.2426  0.9425  0.2378
   6223SM  H12S 7947   3.271   3.066  15.555  1.5691 -0.1780 -1.6831
   6223SM  H12T 7948   3.108   3.013  15.543  1.3386  3.8073 -0.2497
   6223SM  C13S 7949   3.252   2.864  15.466  0.1107  0.5499 -0.5380
   6223SM  H13S 7950   3.168   2.792  15.457  0.4514 -0.2546  1.9391
   6223SM  H13T 7951   3.344   2.818  15.509  0.8746  1.1380 -1.5203
   6223SM  C14S 7952   3.291   2.926  15.331 -0.5443 -0.0749 -0.4415
   6223SM  H14S 7953   3.373   2.861  15.292 -0.7604 -0.2379 -0.6273
   6223SM  H14T 7954   3.329   3.030  15.331 -1.0805  0.1458  1.1362
   6223SM  C15S 7955   3.188   2.928  15.223  0.2551  0.0243  0.1098
   6223SM  H15S 7956   3.110   3.004  15.246 -0.7052 -0.4912 -1.2674
   6223SM  H15T 7957   3.130   2.835  15.205 -0.9633  0.6446  0.7026
   6223SM  C16S 7958   3.258   2.976  15.089  0.6793  0.2684  0.3138
   6223SM  H16S 7959   3.337   2.899  15.076  1.7245  1.4294 -0.2867
   6223SM  H16T 7960   3.296   3.080  15.098 -0.9168  1.2609 -2.8469
   6223SM  C17S 7961   3.163   2.979  14.972  0.7146  0.6449 -0.2794
   6223SM  H17S 7962   3.075   3.045  14.986 -0.1596 -0.2530 -1.2795
   6223SM  H17T 7963   3.118   2.877  14.965  1.9240  0.0760  0.0074
   6223SM  C18S 7964   3.236   3.004  14.839 -0.7314  0.4306  0.2267
   6223SM  H18S 7965   3.264   3.111  14.826 -0.7545  0.2766 -1.2844
   6223SM  H18T 7966   3.184   2.980  14.744  0.3030  3.4196 -1.2244
   6223SM  H18U 7967   3.330   2.945  14.838  1.2436  3.3102  2.4384
   6223SM   C1F 7968   2.911   3.374  16.670 -0.1867 -0.0251  0.0358
   6223SM    OF 7969   3.012   3.399  16.739  0.1438  0.0321  0.4297
   6223SM   C2F 7970   2.816   3.481  16.620  0.0799 -0.5887 -0.2175
   6223SM   H2F 7971   2.780   3.538  16.708  0.1308 -0.0250 -0.5535
   6223SM   H2G 7972   2.733   3.423  16.575  0.5017 -1.1588 -0.2828
   6223SM   C3F 7973   2.881   3.578  16.515 -0.0849 -0.0726  0.0980
   6223SM   H3F 7974   2.946   3.647  16.572 -0.0895  0.0354 -0.0251
   6223SM   H3G 7975   2.801   3.642  16.472 -1.8404 -1.7306  0.7571
   6223SM   C4F 7976   2.960   3.503  16.410  0.6172 -0.3534 -0.1163
   6223SM   H4F 7977   2.892   3.424  16.371  1.4664 -0.0197 -2.4504
   6223SM   H4G 7978   3.049   3.454  16.456 -0.7735 -0.7906  2.2976
   6223SM   C5F 7979   3.004   3.580  16.295 -0.5194  0.3277  0.0579
   6223SM   H5F 7980   3.093   3.644  16.313 -1.9733  2.9519 -1.4940
   6223SM   H5G 7981   2.927   3.642  16.245  1.4211  1.6241 -1.4616
   6223SM   C6F 7982   3.043   3.488  16.182  0.4803  0.7200  0.0614
   6223SM   H6F 7983   2.963   3.412  16.169  0.7535  0.7273 -1.9309
   6223SM   H6G 7984   3.129   3.424  16.208  0.0376 -0.9529 -2.3326
   6223SM   C7F 7985   3.067   3.562  16.049  0.1338 -0.5213 -0.2384
   6223SM   H7F 7986   3.162   3.617  16.031 -0.3776 -0.2216 -2.1760
   6223SM   H7G 7987   2.990   3.641  16.035 -0.6335 -1.1563  0.2706
   6223SM   C8F 7988   3.064   3.471  15.926  0.5088 -0.4583 -0.2590
   6223SM   H8F 7989   2.961   3.431  15.911  0.0890 -0.2550  1.7922
   6223SM   H8G 7990   3.129   3.382  15.939  1.4669  0.5125  2.2725
   6223SM   C9F 7991   3.120   3.533  15.796  0.1247  0.0186 -0.4891
   6223SM   H9F 7992   3.222   3.569  15.824 -0.0928 -0.4490  0.9874
   6223SM   H9G 7993   3.059   3.618  15.758  1.6905  0.9823 -0.9314
   6223SM  C10F 7994   3.148   3.432  15.684  0.0711 -0.3271  0.0434
   6223SM  H10F 7995   3.051   3.401  15.641 -1.0429  1.0985  1.3873
   6223SM  H10G 7996   3.197   3.346  15.734  2.0580  0.8505  0.2439
   6223SM  C11F 7997   3.231   3.492  15.569  0.5944 -0.3492 -0.2139
   6223SM  H11F 7998   3.336   3.500  15.605  0.1761 -0.8004  1.1523
   6223SM  H11G 7999   3.191   3.592  15.543  1.2171  0.7043  2.5963
   6223SM  C12F 8000   3.224   3.401  15.447  0.2054 -0.2642  0.3521
   6223SM  H12F 8001   3.120   3.367  15.429  0.0432 -0.0984  0.9506
   6223SM  H12G 8002   3.289   3.316  15.479  2.0853  1.2820  0.7804
   6223SM  C13F 8003   3.301   3.466  15.334 -0.3085 -0.8518  0.4508
   6223SM  H13F 8004   3.396   3.500  15.381 -0.3389 -1.9125  1.2923
   6223SM  H13G 8005   3.246   3.561  15.314  0.1025 -0.4818  1.0629
   6223SM  C14F 8006   3.305   3.384  15.206  0.7020 -0.9625 -0.0620
   6223SM  H14F 8007   3.202   3.344  15.196 -0.2423  1.3099 -0.1664
   6223SM  H14G 8008   3.368   3.292  15.209  1.2812 -0.5982 -0.7684
   6223SM  C15F 8009   3.350   3.473  15.088 -0.6762  0.5265  0.3936
   6223SM  H15F 8010   3.459   3.493  15.099 -0.4296 -0.9614  0.8478
   6223SM  H15G 8011   3.283   3.562  15.084 -0.6835  0.5065  0.0248
   6223SM  C16F 8012   3.334   3.410  14.953 -0.0515 -0.0589 -1.1615
   6223SM  H16F 8013   3.235   3.423  14.904  0.4964 -1.2467 -2.6728
   6223SM  H16G 8014   3.351   3.301  14.961 -0.7936 -0.1131 -0.1926
   6223SM  C17F 8015   3.439   3.466  14.856 -0.3430 -0.1961 -0.4602
   6223SM  H17F 8016   3.526   3.398  14.870  0.1646  0.4862 -0.1713
   6223SM  H17G 8017   3.465   3.570  14.885  0.1016 -0.5229  0.3454
   6223SM  C18F 8018   3.398   3.479  14.707 -0.3355 -0.3776  0.2045
   6223SM  H18F 8019   3.307   3.543  14.708  0.2761  0.5627 -1.1230
   6223SM  H18G 8020   3.373   3.379  14.666 -1.3037 -0.2249  0.3757
   6223SM  C19F 8021   3.506   3.554  14.623 -0.2742 -0.2021  0.3761
   6223SM  H19F 8022   3.478   3.544  14.515 -2.3370 -0.7629  0.9177
   6223SM  H19G 8023   3.606   3.508  14.638  0.2737  1.0362  0.6082
   6223SM  C20F 8024   3.515   3.711  14.646  0.0145  0.2232 -0.1840
   6223SM  H20F 8025   3.534   3.718  14.756 -2.7255 -2.0638  0.5488
   6223SM  H20G 8026   3.423   3.764  14.613  0.1534 -0.8441 -2.4102
   6223SM  C21F 8027   3.624   3.773  14.564 -0.1493 -1.5480 -0.5040
   6223SM  H21F 8028   3.572   3.781  14.465 -1.1493 -0.1887  0.0917
   6223SM  H21G 8029   3.715   3.709  14.564  1.0711  0.1010  1.1740
   6223SM  C22F 8030   3.655   3.915  14.605 -0.2369 -0.9857  1.0692
   6223SM  H22F 8031   3.719   3.914  14.696  2.1854 -0.8084 -0.5389
   6223SM  H22G 8032   3.562   3.974  14.620  1.0584  1.1643  1.0546
   6223SM  C23F 8033   3.732   3.990  14.496 -0.8998 -0.1077 -0.0080
   6223SM  H23F 8034   3.669   4.038  14.418  0.3922  1.3124 -0.2277
   6223SM  H23G 8035   3.813   3.928  14.451 -1.6871 -0.2640 -1.2680
   6223SM  H23H 8036   3.784   4.075  14.545  1.5093 -0.1062 -2.3592
   6323SM     N 8037   3.546   4.494  16.866 -0.4326  0.9299 -0.1618
   6323SM   C15 8038   3.595   4.580  16.973 -1.1500  0.2350 -1.0361
   6323SM  H15A 8039   3.587   4.538  17.073  0.8017  0.8356 -0.5833
   6323SM  H15B 8040   3.544   4.675  16.976  1.7828  2.1375 -4.0396
   6323SM  H15C 8041   3.701   4.600  16.972 -0.7312 -1.6618  0.1627
   6323SM   C14 8042   3.564   4.569  16.736  0.2252  0.1146 -0.5307
   6323SM  H14A 8043   3.507   4.525  16.655  0.2036 -0.4723 -0.2015
   6323SM  H14B 8044   3.667   4.552  16.709  0.1916 -1.2106  0.0894
   6323SM  H14C 8045   3.543   4.675  16.738  1.6315  0.4078  0.0030
   6323SM   C13 8046   3.634   4.365  16.872  0.5807 -0.0009  0.0848
   6323SM  H13A 8047   3.623   4.294  16.952  0.6194 -1.5578 -1.2295
   6323SM  H13B 8048   3.740   4.379  16.862  1.1403 -3.1142  0.5976
   6323SM  H13C 8049   3.608   4.297  16.792 -1.9027 -1.7992  2.2465
   6323SM   C12 8050   3.401   4.457  16.882 -0.1059 -1.1417 -0.1034
   6323SM  H12A 8051   3.361   4.399  16.800 -1.4697 -0.2160 -0.1237
   6323SM  H12B 8052   3.349   4.551  16.876  1.2965 -0.3991 -1.1395
   6323SM   C11 8053   3.363   4.395  17.011  0.2925  0.2458 -0.1462
   6323SM  H11A 8054   3.434   4.321  17.052 -0.6050 -0.5470  0.0250
   6323SM  H11B 8055   3.272   4.333  16.996  0.8387 -0.3997 -0.8654
   6323SM     P 8056   3.237   4.605  17.125  0.0563  0.1357 -0.3293
   6323SM   O13 8057   3.121   4.551  17.197  0.0335 -0.3383 -0.6191
   6323SM   O14 8058   3.296   4.734  17.179  0.0727  0.2958  0.0621
   6323SM   O11 8059   3.190   4.624  16.973 -0.5448  0.1531 -0.0154
   6323SM   O12 8060   3.355   4.488  17.117  0.2405 -0.3672  0.0554
   6323SM   C1S 8061   3.185   4.759  16.920 -0.0007  0.6573  0.7593
   6323SM   H1S 8062   3.251   4.841  16.955 -0.4230  0.5843  1.7449
   6323SM   H1T 8063   3.082   4.796  16.939 -0.4436  0.1057 -0.4642
   6323SM    NF 8064   3.267   4.887  16.722  0.2248  0.5925  0.5681
   6323SM   HNF 8065   3.203   4.954  16.685  1.1618  0.6136 -1.1413
   6323SM   C2S 8066   3.199   4.765  16.766  0.1604  0.4715 -0.2173
   6323SM   H2S 8067   3.271   4.685  16.740 -0.3033  0.3905 -1.3182
   6323SM   C3S 8068   3.063   4.730  16.701  0.7012 -0.1303  0.0123
   6323SM   H3S 8069   2.992   4.815  16.716  2.5679  1.3044  1.1277
   6323SM    O3 8070   3.010   4.608  16.755  0.4194 -0.0693  0.0302
   6323SM   HO3 8071   3.067   4.594  16.832  0.9060  1.3627 -0.0297
   6323SM   C4S 8072   3.077   4.700  16.557 -0.1996  0.0804 -0.2095
   6323SM   H4S 8073   3.123   4.602  16.534 -0.7089 -0.4071  0.7961
   6323SM   C5S 8074   3.038   4.785  16.460 -0.0595  0.0894  0.4726
   6323SM   H5S 8075   2.991   4.878  16.493  3.2674  1.5682  1.4883
   6323SM   C6S 8076   3.057   4.767  16.310 -0.4361  0.0790 -0.4780
   6323SM   H6S 8077   2.963   4.760  16.251 -1.2882 -1.9550  1.0144
   6323SM   H6T 8078   3.117   4.676  16.287  2.0919  1.4495  0.2712
   6323SM   C7S 8079   3.125   4.886  16.252  0.0157 -0.0600  0.1489
   6323SM   H7S 8080   3.213   4.919  16.311  0.6960 -0.0161 -0.8486
   6323SM   H7T 8081   3.064   4.979  16.256 -0.2624 -0.1935 -0.6372
   6323SM   C8S 8082   3.176   4.866  16.107  0.2332 -0.0390 -0.5853
   6323SM   H8S 8083   3.251   4.784  16.099 -0.1142 -0.4548  0.3321
   6323SM   H8T 8084   3.213   4.963  16.067 -0.9003  0.5734 -0.1784
   6323SM   C9S 8085   3.072   4.829  15.999 -0.1439  0.4338  0.4913
   6323SM   H9S 8086   2.982   4.894  15.997  0.7267  1.6504  0.2605
   6323SM   H9T 8087   3.032   4.730  16.031  0.1843  0.7086  1.8133
   6323SM  C10S 8088   3.122   4.829  15.857 -0.5149 -0.0820  0.6763
   6323SM  H10S 8089   3.206   4.759  15.841 -1.5568 -0.8324 -2.0140
   6323SM  H10T 8090   3.150   4.932  15.828 -2.4166 -0.1303 -1.5920
   6323SM  C11S 8091   3.018   4.801  15.752  0.1988  0.3744 -0.4197
   6323SM  H11S 8092   2.925   4.858  15.773 -1.0062 -1.7000  0.1280
   6323SM  H11T 8093   2.989   4.694  15.759  0.7624 -0.0670 -3.3650
   6323SM  C12S 8094   3.056   4.820  15.607 -0.3058  0.3704  0.3857
   6323SM  H12S 8095   3.133   4.744  15.583 -1.5360 -1.0211  0.6816
   6323SM  H12T 8096   3.093   4.922  15.583  1.7320 -0.4840 -0.2801
   6323SM  C13S 8097   2.926   4.787  15.519 -0.2072  0.0010  0.1231
   6323SM  H13S 8098   2.844   4.856  15.550  1.5744  2.1396  0.3115
   6323SM  H13T 8099   2.890   4.683  15.534 -1.5621  0.5961  1.2042
   6323SM  C14S 8100   2.953   4.816  15.366 -0.2704  0.6899  0.0398
   6323SM  H14S 8101   2.993   4.920  15.361 -0.0251  0.5353 -1.3552
   6323SM  H14T 8102   2.855   4.817  15.314 -0.6215  3.2418  0.5903
   6323SM  C15S 8103   3.058   4.725  15.301  0.0837 -0.0525  0.0923
   6323SM  H15S 8104   3.035   4.618  15.322  1.2971  0.0964  2.4954
   6323SM  H15T 8105   3.151   4.744  15.357  0.3126  0.8938 -0.5871
   6323SM  C16S 8106   3.083   4.748  15.153 -0.0500 -0.8028 -0.2835
   6323SM  H16S 8107   3.160   4.675  15.122 -0.4508 -0.7534 -1.4171
   6323SM  H16T 8108   3.135   4.845  15.145 -0.8439 -0.2981  0.4377
   6323SM  C17S 8109   2.957   4.741  15.073  0.4021  0.9831  0.0067
   6323SM  H17S 8110   2.886   4.823  15.099  0.4205  0.6501  1.1705
   6323SM  H17T 8111   2.906   4.647  15.103  2.4530  0.0584  0.7913
   6323SM  C18S 8112   2.992   4.730  14.921 -0.7924 -0.3616 -0.1452
   6323SM  H18S 8113   3.060   4.644  14.902 -2.5546 -1.7666 -0.3471
   6323SM  H18T 8114   3.037   4.828  14.895  0.7878 -0.4458  1.9983
   6323SM  H18U 8115   2.894   4.713  14.872 -0.1728  0.0715 -1.5752
   6323SM   C1F 8116   3.395   4.915  16.738  0.8190 -0.2542  0.2692
   6323SM    OF 8117   3.462   4.848  16.811  0.1484  0.2803  0.1573
   6323SM   C2F 8118   3.453   5.033  16.660 -0.1708 -0.8714  0.6187
   6323SM   H2F 8119   3.493   5.109  16.731  2.5011 -1.3332 -0.2743
   6323SM   H2G 8120   3.370   5.074  16.598  0.0413  0.1135  0.9717
   6323SM   C3F 8121   3.568   4.986  16.566 -0.9807 -0.0874 -0.6059
   6323SM   H3F 8122   3.636   4.942  16.642 -1.8385  2.0613  1.5305
   6323SM   H3G 8123   3.616   5.077  16.524  0.9407 -0.8252 -0.1553
   6323SM   C4F 8124   3.526   4.886  16.457 -0.3084  0.2954  0.0857
   6323SM   H4F 8125   3.416   4.898  16.443 -0.7512  0.0672  2.8504
   6323SM   H4G 8126   3.546   4.783  16.492  0.5589 -0.4585 -2.4389
   6323SM   C5F 8127   3.602   4.893  16.326 -0.3241  0.4046 -0.5472
   6323SM   H5F 8128   3.692   4.830  16.342  0.4280  1.6945  0.3990
   6323SM   H5G 8129   3.626   4.997  16.297 -0.1093  0.3788 -0.4655
   6323SM   C6F 8130   3.538   4.805  16.210  0.2232 -0.6234  0.2674
   6323SM   H6F 8131   3.431   4.833  16.198  0.6402  0.8724 -0.1702
   6323SM   H6G 8132   3.548   4.696  16.226  1.5980 -0.6273 -0.4320
   6323SM   C7F 8133   3.597   4.850  16.065 -0.0920 -0.0512 -0.4370
   6323SM   H7F 8134   3.683   4.785  16.038  0.5007  1.2567 -1.8287
   6323SM   H7G 8135   3.622   4.957  16.078  1.0037 -0.1109 -1.8573
   6323SM   C8F 8136   3.493   4.831  15.955 -0.6107 -0.3009 -0.2924
   6323SM   H8F 8137   3.408   4.903  15.963 -0.9415 -0.8301  1.4316
   6323SM   H8G 8138   3.444   4.732  15.966 -0.3225 -0.5402 -1.1462
   6323SM   C9F 8139   3.564   4.839  15.825  0.0073  0.8723  0.2114
   6323SM   H9F 8140   3.649   4.768  15.817 -0.1485  0.2979  2.8658
   6323SM   H9G 8141   3.605   4.941  15.807  1.0663  0.2263 -1.3144
   6323SM  C10F 8142   3.472   4.804  15.701  0.2856  0.0888 -0.3219
   6323SM  H10F 8143   3.385   4.871  15.719 -0.2494 -1.3051  3.1898
   6323SM  H10G 8144   3.441   4.697  15.708  0.1750  0.0507 -1.2660
   6323SM  C11F 8145   3.537   4.836  15.566  0.0597  0.6454  0.6616
   6323SM  H11F 8146   3.615   4.758  15.552  0.2474  0.3007  3.2249
   6323SM  H11G 8147   3.595   4.931  15.569 -0.3833  1.1655 -2.8745
   6323SM  C12F 8148   3.443   4.838  15.446  0.2841  0.7936 -1.0269
   6323SM  H12F 8149   3.371   4.923  15.447 -1.8300 -0.9238 -0.2299
   6323SM  H12G 8150   3.383   4.744  15.450  1.4073  0.0875 -0.1044
   6323SM  C13F 8151   3.522   4.826  15.323 -0.0658  0.9675  0.5141
   6323SM  H13F 8152   3.571   4.727  15.333 -1.0612  0.6798  4.3961
   6323SM  H13G 8153   3.582   4.918  15.309  0.5954  0.6225  1.0082
   6323SM  C14F 8154   3.429   4.805  15.193 -0.3736 -0.4277 -0.2970
   6323SM  H14F 8155   3.352   4.886  15.195  0.4851  0.3889  1.0117
   6323SM  H14G 8156   3.391   4.700  15.196  1.1278 -0.9998 -0.7576
   6323SM  C15F 8157   3.517   4.832  15.071  0.4810 -0.4670 -0.2761
   6323SM  H15F 8158   3.592   4.750  15.081 -0.1298 -0.9558  0.4716
   6323SM  H15G 8159   3.571   4.928  15.084 -1.8307  0.7471  0.8393
   6323SM  C16F 8160   3.439   4.836  14.941  0.0603  0.4141  0.0825
   6323SM  H16F 8161   3.344   4.893  14.957  1.7493  3.4753  0.0259
   6323SM  H16G 8162   3.428   4.727  14.922  3.0080  0.1132 -0.2582
   6323SM  C17F 8163   3.522   4.875  14.822 -0.9705  0.3530 -0.2132
   6323SM  H17F 8164   3.613   4.812  14.807 -2.2041 -1.1737 -1.6766
   6323SM  H17G 8165   3.554   4.981  14.833  0.1566  0.1144 -0.9760
   6323SM  C18F 8166   3.449   4.855  14.686 -0.1414 -0.3962 -0.1437
   6323SM  H18F 8167   3.433   4.745  14.674  0.7836 -0.6980  1.1443
   6323SM  H18G 8168   3.515   4.878  14.600  0.8430 -1.0833  0.4070
   6323SM  C19F 8169   3.325   4.943  14.652 -0.3933  0.2232  0.3054
   6323SM  H19F 8170   3.361   5.046  14.634  1.2282 -0.3419  0.1558
   6323SM  H19G 8171   3.261   4.943  14.743 -2.7980  1.1036 -1.3042
   6323SM  C20F 8172   3.235   4.880  14.542 -0.0907  0.3975  0.1142
   6323SM  H20F 8173   3.297   4.822  14.469 -2.9352 -2.4945 -0.2712
   6323SM  H20G 8174   3.172   4.956  14.491 -2.0423 -1.2049 -0.0238
   6323SM  C21F 8175   3.138   4.773  14.599  0.4178  0.5468  0.1263
   6323SM  H21F 8176   3.077   4.823  14.678  2.2502  2.2558  0.5516
   6323SM  H21G 8177   3.192   4.682  14.634  0.0139  0.2279 -0.0630
   6323SM  C22F 8178   3.036   4.739  14.482  0.8347 -0.4047 -0.3111
   6323SM  H22F 8179   3.094   4.698  14.397  2.1393  2.3888 -0.8731
   6323SM  H22G 8180   2.993   4.836  14.447  1.0832 -0.4438 -0.7196
   6323SM  C23F 8181   2.921   4.647  14.514  0.0571  0.0811 -0.8537
   6323SM  H23F 8182   2.850   4.625  14.431 -0.0195  0.5499 -0.9151
   6323SM  H23G 8183   2.871   4.697  14.599 -0.8326  0.5815 -1.6523
   6323SM  H23H 8184   2.965   4.551  14.550 -0.7169  0.1718  0.3866
   6423SM     N 8185   4.926   3.694  16.729  0.3106 -0.2988 -0.1404
   6423SM   C15 8186   4.923   3.793  16.620  0.2051 -0.3571  0.6311
   6423SM  H15A 8187   4.832   3.779  16.564 -0.5793 -0.6797  1.9334
   6423SM  H15B 8188   5.003   3.770  16.551  0.1785  1.2363  0.0382
   6423SM  H15C 8189   4.934   3.897  16.648 -0.3444  0.1173 -0.8408
   6423SM   C14 8190   5.054   3.710  16.800 -0.7387 -0.1831  0.4813
   6423SM  H14A 8191   5.060   3.650  16.890 -0.5281 -0.1481  0.4918
   6423SM  H14B 8192   5.077   3.811  16.831 -1.8331  0.7623 -1.6011
   6423SM  H14C 8193   5.128   3.671  16.732 -1.6949 -0.7295 -0.2605
   6423SM   C13 8194   4.819   3.729  16.837 -0.1033  0.1041  0.0152
   6423SM  H13A 8195   4.845   3.821  16.886 -1.2389  0.9925 -0.9887
   6423SM  H13B 8196   4.823   3.655  16.916  1.4975  0.0498 -0.0836
   6423SM  H13C 8197   4.718   3.736  16.800 -0.2091 -1.5891 -0.1062
   6423SM   C12 8198   4.876   3.563  16.672  0.4510  1.1084 -0.5629
   6423SM  H12A 8199   4.915   3.538  16.574 -1.8167 -1.4003 -0.9346
   6423SM  H12B 8200   4.770   3.574  16.661  0.7493  3.7835 -1.4234
   6423SM   C11 8201   4.903   3.442  16.768  0.4100  0.1926  0.1582
   6423SM  H11A 8202   4.839   3.365  16.720  0.3386 -0.9629  2.0158
   6423SM  H11B 8203   4.858   3.463  16.867 -2.2028  0.0090 -0.9273
   6423SM     P 8204   5.120   3.364  16.629 -0.5000  0.2551 -0.2256
   6423SM   O13 8205   5.115   3.470  16.527  0.3302  0.0893  0.2987
   6423SM   O14 8206   5.254   3.310  16.668  0.6083 -0.0390  0.0859
   6423SM   O11 8207   5.029   3.243  16.586 -0.6737 -0.1026 -0.3155
   6423SM   O12 8208   5.044   3.409  16.764  0.0268 -0.4539 -0.2256
   6423SM   C1S 8209   4.930   3.254  16.485 -0.2996  0.3898  0.3946
   6423SM   H1S 8210   4.896   3.359  16.476  1.7155  0.9325 -2.0727
   6423SM   H1T 8211   4.847   3.183  16.508 -2.4337  2.6609  0.1240
   6423SM    NF 8212   4.866   3.240  16.247 -0.4604 -0.2260  0.6666
   6423SM   HNF 8213   4.800   3.166  16.237 -0.0810 -0.6944  1.4781
   6423SM   C2S 8214   4.977   3.217  16.338 -0.2447  0.6251  0.0401
   6423SM   H2S 8215   5.068   3.278  16.319  1.1174 -1.2732  0.0980
   6423SM   C3S 8216   5.029   3.071  16.333 -0.0178 -0.3544  0.3326
   6423SM   H3S 8217   4.940   3.009  16.356 -0.7722  0.9117  0.9072
   6423SM    O3 8218   5.126   3.037  16.434 -0.1322 -0.1985  0.1451
   6423SM   HO3 8219   5.105   3.097  16.506  1.8669  0.6720  0.0708
   6423SM   C4S 8220   5.073   3.049  16.190 -0.2899 -0.7231 -0.4884
   6423SM   H4S 8221   4.986   3.027  16.127  0.1751 -1.0703 -1.0117
   6423SM   C5S 8222   5.199   3.071  16.137  0.6859  0.5830  0.2438
   6423SM   H5S 8223   5.275   3.107  16.208  0.2955 -0.3662  1.1596
   6423SM   C6S 8224   5.238   3.058  15.993 -0.4040 -0.0074 -0.1755
   6423SM   H6S 8225   5.330   2.994  15.993  0.3093  0.8700  2.4596
   6423SM   H6T 8226   5.264   3.161  15.960 -0.4283  0.8606  2.3207
   6423SM   C7S 8227   5.131   3.030  15.890  0.3375 -0.1860  0.5503
   6423SM   H7S 8228   5.037   3.086  15.912 -0.2164 -1.2893  1.1094
   6423SM   H7T 8229   5.107   2.922  15.902 -2.5006  0.3115  0.1486
   6423SM   C8S 8230   5.186   3.059  15.749  0.2673  0.8689  0.1961
   6423SM   H8S 8231   5.282   3.003  15.738 -0.3299 -0.4597  1.4160
   6423SM   H8T 8232   5.198   3.168  15.732  0.3205  0.5494 -2.2049
   6423SM   C9S 8233   5.087   3.014  15.642  0.4675  0.7242  0.6595
   6423SM   H9S 8234   4.982   3.032  15.672 -1.2709 -3.4856 -1.9367
   6423SM   H9T 8235   5.091   2.903  15.638  1.9165  0.7940 -0.9588
   6423SM  C10S 8236   5.110   3.079  15.502  0.1831  0.5962 -0.2885
   6423SM  H10S 8237   5.221   3.086  15.501  0.3911 -1.9119 -1.3115
   6423SM  H10T 8238   5.070   3.183  15.511  0.5281  0.7360 -0.3239
   6423SM  C11S 8239   5.054   3.007  15.381  0.4183  0.3840 -0.0058
   6423SM  H11S 8240   4.944   2.995  15.389  0.3090  2.1968  2.6357
   6423SM  H11T 8241   5.098   2.905  15.386 -0.7884 -0.1358  0.4061
   6423SM  C12S 8242   5.099   3.092  15.262  0.2356 -0.5120  0.6705
   6423SM  H12S 8243   5.210   3.099  15.259  0.3231 -1.8222 -1.5647
   6423SM  H12T 8244   5.066   3.196  15.284  2.4409  0.0125  1.7227
   6423SM  C13S 8245   5.041   3.030  15.134 -0.8870  0.3398  0.0871
   6423SM  H13S 8246   4.936   2.998  15.152 -0.2902 -1.0922  1.1575
   6423SM  H13T 8247   5.096   2.933  15.129  1.2267  1.4051  1.3246
   6423SM  C14S 8248   5.062   3.105  15.001 -0.4125 -0.8137 -0.0410
   6423SM  H14S 8249   5.171   3.111  14.981 -0.5436  1.9396 -0.3504
   6423SM  H14T 8250   5.024   3.209  15.009  0.5916 -0.5418  1.8637
   6423SM  C15S 8251   4.986   3.033  14.892 -0.2654  0.3766 -0.6723
   6423SM  H15S 8252   4.878   3.035  14.915 -0.0907  1.2736  0.1363
   6423SM  H15T 8253   5.032   2.931  14.892 -0.3676  0.1977  2.7725
   6423SM  C16S 8254   4.992   3.088  14.749  0.0841  0.4726  0.0120
   6423SM  H16S 8255   5.096   3.121  14.725  0.0656 -0.2078 -1.0296
   6423SM  H16T 8256   4.919   3.171  14.740 -1.9215 -1.0821  1.1243
   6423SM  C17S 8257   4.959   2.978  14.654  0.1507  0.9295 -0.1907
   6423SM  H17S 8258   4.874   2.919  14.694  2.3981 -2.1620  0.3585
   6423SM  H17T 8259   5.042   2.905  14.654 -0.5064  0.1705 -0.7288
   6423SM  C18S 8260   4.912   3.030  14.516 -0.1663 -0.3657  0.3430
   6423SM  H18S 8261   4.984   3.094  14.461  0.6396 -2.4551 -1.1202
   6423SM  H18T 8262   4.818   3.089  14.527 -1.3239 -2.3274  1.5610
   6423SM  H18U 8263   4.905   2.949  14.441  1.7699 -0.8189  0.6078
   6423SM   C1F 8264   4.841   3.362  16.206  0.6514  0.0312  0.1090
   6423SM    OF 8265   4.909   3.455  16.236  0.8432  0.0873  0.0936
   6423SM   C2F 8266   4.715   3.370  16.124 -0.5809 -0.2576  0.6116
   6423SM   H2F 8267   4.627   3.341  16.185 -1.0718  1.7424  0.9106
   6423SM   H2G 8268   4.719   3.309  16.031 -0.8309  0.5163  0.0795
   6423SM   C3F 8269   4.678   3.513  16.073 -0.2880  0.0207  0.3959
   6423SM   H3F 8270   4.766   3.561  16.025 -1.8685  1.2891 -1.3860
   6423SM   H3G 8271   4.656   3.583  16.157 -1.4087  0.3972 -0.1865
   6423SM   C4F 8272   4.561   3.524  15.969  0.1479  0.3693 -0.6343
   6423SM   H4F 8273   4.550   3.627  15.929 -2.0642  0.3807 -0.1265
   6423SM   H4G 8274   4.462   3.499  16.012  0.1325  2.9507  1.0394
   6423SM   C5F 8275   4.579   3.434  15.840  0.2917 -0.6317 -0.6137
   6423SM   H5F 8276   4.488   3.435  15.776  0.0482 -1.4205 -0.3035
   6423SM   H5G 8277   4.591   3.325  15.860  0.3449 -0.9740 -2.3677
   6423SM   C6F 8278   4.695   3.474  15.751  0.3981 -0.4637 -0.4425
   6423SM   H6F 8279   4.793   3.458  15.802 -0.9600 -0.9227  2.1558
   6423SM   H6G 8280   4.699   3.584  15.731  0.4096 -0.0058  1.8627
   6423SM   C7F 8281   4.692   3.393  15.614 -0.3543 -0.4070 -0.2168
   6423SM   H7F 8282   4.605   3.431  15.556 -1.2860 -0.8931  0.8468
   6423SM   H7G 8283   4.669   3.287  15.637 -1.9386  0.1096  0.6954
   6423SM   C8F 8284   4.826   3.405  15.536  0.5365  0.4324 -0.0032
   6423SM   H8F 8285   4.889   3.316  15.554 -1.4128 -1.2862 -1.1815
   6423SM   H8G 8286   4.871   3.500  15.572  0.2168  1.3556 -1.8868
   6423SM   C9F 8287   4.797   3.403  15.383 -0.7098 -0.0209  0.3640
   6423SM   H9F 8288   4.717   3.326  15.370 -0.0018 -0.8276  0.7011
   6423SM   H9G 8289   4.886   3.358  15.335 -0.3608  2.1263 -1.1268
   6423SM  C10F 8290   4.770   3.538  15.324  0.2560 -0.4394 -0.2734
   6423SM  H10F 8291   4.852   3.613  15.328 -1.1122  1.3947 -2.9255
   6423SM  H10G 8292   4.688   3.583  15.385 -0.0436  0.7671 -1.5065
   6423SM  C11F 8293   4.727   3.531  15.181  0.1926 -0.5565  0.1742
   6423SM  H11F 8294   4.694   3.626  15.133  3.0006 -0.1839 -1.2399
   6423SM  H11G 8295   4.642   3.459  15.177 -0.4419  0.1340  0.8223
   6423SM  C12F 8296   4.834   3.464  15.088  0.3896 -0.1117 -0.3609
   6423SM  H12F 8297   4.843   3.354  15.096 -0.3274 -0.1989 -0.7429
   6423SM  H12G 8298   4.932   3.515  15.104 -0.2236  0.8710  0.3871
   6423SM  C13F 8299   4.797   3.498  14.941 -0.1570  0.2508 -0.9455
   6423SM  H13F 8300   4.757   3.601  14.934  0.7795  0.9680  2.6540
   6423SM  H13G 8301   4.711   3.428  14.932 -0.1778  0.1513  0.0031
   6423SM  C14F 8302   4.906   3.467  14.833  0.4265  0.8133  0.2939
   6423SM  H14F 8303   4.957   3.372  14.863  2.1777  1.4133 -0.6296
   6423SM  H14G 8304   4.988   3.542  14.829 -0.1050  1.3381 -1.7046
   6423SM  C15F 8305   4.846   3.452  14.695  0.3284  0.5111  0.2488
   6423SM  H15F 8306   4.781   3.540  14.678 -0.1141 -0.0642 -1.2235
   6423SM  H15G 8307   4.787   3.358  14.690  1.0426  0.0967 -0.8930
   6423SM  C16F 8308   4.950   3.441  14.579 -0.0378 -0.3965 -0.2790
   6423SM  H16F 8309   4.988   3.337  14.573 -1.1754 -0.8626  0.2715
   6423SM  H16G 8310   5.027   3.519  14.601 -0.1603 -0.8570  2.0887
   6423SM  C17F 8311   4.889   3.478  14.442 -0.3761 -0.1714  0.2766
   6423SM  H17F 8312   4.908   3.588  14.437 -1.2093  0.0756  1.8002
   6423SM  H17G 8313   4.780   3.474  14.460 -0.7310  1.2071 -1.3037
   6423SM  C18F 8314   4.939   3.410  14.311 -0.3577  0.3575  0.7331
   6423SM  H18F 8315   4.856   3.436  14.241  1.3796  0.5504 -1.3500
   6423SM  H18G 8316   4.923   3.301  14.328  1.5806  0.2182  1.9976
   6423SM  C19F 8317   5.077   3.434  14.255 -0.5246  0.4864 -0.1231
   6423SM  H19F 8318   5.082   3.396  14.151  4.1606 -2.3126  0.8217
   6423SM  H19G 8319   5.166   3.391  14.307  0.6557  1.4061 -1.3219
   6423SM  C20F 8320   5.125   3.582  14.248  0.1929  0.1398  0.0338
   6423SM  H20F 8321   5.223   3.582  14.194  0.4578  1.8656  0.4621
   6423SM  H20G 8322   5.143   3.619  14.350  0.9055  1.0785 -0.4175
   6423SM  C21F 8323   5.036   3.680  14.171  0.5134 -0.1080 -0.6244
   6423SM  H21F 8324   4.946   3.682  14.236  1.8354 -1.0723  1.3554
   6423SM  H21G 8325   5.018   3.635  14.072  1.4711 -1.3516 -0.2539
   6423SM  C22F 8326   5.091   3.819  14.154  0.3605 -0.4406  0.4691
   6423SM  H22F 8327   5.015   3.879  14.099  1.7536  1.5178  0.5853
   6423SM  H22G 8328   5.189   3.817  14.101  1.0300  0.7520  1.5999
   6423SM  C23F 8329   5.124   3.890  14.285  0.6876  0.3295 -0.0098
   6423SM  H23F 8330   5.150   3.997  14.279 -0.9937  0.7243 -0.8634
   6423SM  H23G 8331   5.207   3.839  14.338 -0.5202 -0.3700  1.2597
   6423SM  H23H 8332   5.035   3.885  14.352  1.8474  1.9442  1.7288
   6523SM     N 8333   4.295   4.519  17.450  0.1126  0.1056 -0.0784
   6523SM   C15 8334   4.436   4.549  17.475  0.1437 -0.1558  0.2359
   6523SM  H15A 8335   4.497   4.482  17.417  0.7784  0.3198  0.3416
   6523SM  H15B 8336   4.458   4.539  17.581  0.0314 -1.8427  0.1259
   6523SM  H15C 8337   4.457   4.650  17.444 -3.0942  0.4757 -0.2954
   6523SM   C14 8338   4.292   4.367  17.452 -0.0338  0.0171  0.1020
   6523SM  H14A 8339   4.342   4.333  17.362  0.3227 -1.1861  0.7295
   6523SM  H14B 8340   4.190   4.332  17.446  0.0375 -0.0151 -1.3408
   6523SM  H14C 8341   4.346   4.333  17.539  0.4992 -1.4252 -0.7481
   6523SM   C13 8342   4.214   4.574  17.557  0.1989 -0.4061 -0.9304
   6523SM  H13A 8343   4.113   4.538  17.542  1.0663 -3.3386 -0.3418
   6523SM  H13B 8344   4.207   4.682  17.552  0.0095 -0.1357  2.5316
   6523SM  H13C 8345   4.239   4.531  17.653 -0.5714  2.1603  0.5347
   6523SM   C12 8346   4.264   4.580  17.317  0.3674  0.7973  0.2861
   6523SM  H12A 8347   4.285   4.686  17.325  1.0074  0.5648  1.9271
   6523SM  H12B 8348   4.158   4.574  17.295  0.4659  0.4435 -0.1090
   6523SM   C11 8349   4.329   4.513  17.191 -0.9054 -0.0067  0.2747
   6523SM  H11A 8350   4.439   4.504  17.207 -0.5218  1.6820 -1.1681
   6523SM  H11B 8351   4.325   4.582  17.105 -1.0822 -2.8332 -2.1237
   6523SM     P 8352   4.334   4.279  17.085  0.0757 -0.6395  0.0244
   6523SM   O13 8353   4.412   4.192  17.180  0.2676 -0.0107  0.4082
   6523SM   O14 8354   4.232   4.209  17.004  0.5858 -1.1749  0.1266
   6523SM   O11 8355   4.440   4.351  16.999  0.6664 -0.3120  0.0023
   6523SM   O12 8356   4.266   4.390  17.161 -0.0382 -0.4460  0.6729
   6523SM   C1S 8357   4.488   4.308  16.871  0.3114  0.0285 -0.3221
   6523SM   H1S 8358   4.444   4.210  16.842 -0.3709  1.1669 -3.5488
   6523SM   H1T 8359   4.597   4.291  16.864  0.0454 -1.7684 -0.7648
   6523SM    NF 8360   4.453   4.341  16.627  0.2494  0.5568  0.1336
   6523SM   HNF 8361   4.530   4.365  16.568 -0.9184 -0.9549 -2.2035
   6523SM   C2S 8362   4.437   4.405  16.756 -0.4933 -0.1788  0.1787
   6523SM   H2S 8363   4.327   4.417  16.771 -0.6895  0.8481 -1.7987
   6523SM   C3S 8364   4.498   4.551  16.775 -0.6801  0.0476  0.8043
   6523SM   H3S 8365   4.609   4.540  16.773 -0.5259  1.2973  1.1815
   6523SM    O3 8366   4.458   4.614  16.894  0.2442 -0.5897 -0.2281
   6523SM   HO3 8367   4.439   4.549  16.962  0.9629 -2.9702 -2.1425
   6523SM   C4S 8368   4.457   4.640  16.661  0.0309 -0.9845 -0.7315
   6523SM   H4S 8369   4.514   4.622  16.569  0.5778 -0.3361 -0.5307
   6523SM   C5S 8370   4.362   4.738  16.653 -0.6723  0.1654 -0.3033
   6523SM   H5S 8371   4.292   4.763  16.734  0.0511  0.7655  0.1618
   6523SM   C6S 8372   4.344   4.816  16.530  0.1152  0.2312  0.1311
   6523SM   H6S 8373   4.408   4.906  16.535  0.3293  0.2408 -1.9283
   6523SM   H6T 8374   4.236   4.844  16.531 -0.0789 -0.3009 -1.7378
   6523SM   C7S 8375   4.386   4.745  16.397  0.5866  0.3166 -0.2775
   6523SM   H7S 8376   4.339   4.645  16.400  3.0735 -0.9363 -0.6274
   6523SM   H7T 8377   4.495   4.722  16.398  0.6555  0.6379  0.5971
   6523SM   C8S 8378   4.340   4.815  16.274 -0.0593 -0.3424  0.8514
   6523SM   H8S 8379   4.393   4.912  16.269 -0.9268  0.0889 -0.7284
   6523SM   H8T 8380   4.231   4.835  16.263 -0.4472 -3.1849 -1.8119
   6523SM   C9S 8381   4.394   4.748  16.146  0.2025 -0.1181  0.1148
   6523SM   H9S 8382   4.328   4.662  16.117  0.4715 -0.4418  0.4484
   6523SM   H9T 8383   4.500   4.721  16.167 -0.4270 -1.3986  1.9154
   6523SM  C10S 8384   4.391   4.847  16.029 -0.7059  0.1252  0.2625
   6523SM  H10S 8385   4.462   4.931  16.049 -0.0267 -0.3258 -0.1825
   6523SM  H10T 8386   4.291   4.886  16.001 -0.3901 -0.3611 -1.6210
   6523SM  C11S 8387   4.454   4.778  15.905  0.2125 -0.8648 -0.2062
   6523SM  H11S 8388   4.399   4.683  15.884  0.7844 -0.9720 -1.3377
   6523SM  H11T 8389   4.555   4.739  15.927  0.3604  0.2975  1.3479
   6523SM  C12S 8390   4.456   4.868  15.783 -0.4164 -0.4256 -0.4780
   6523SM  H12S 8391   4.504   4.967  15.797  2.2853 -1.6123 -0.8651
   6523SM  H12T 8392   4.349   4.895  15.772 -0.2328  1.9219  2.1937
   6523SM  C13S 8393   4.516   4.803  15.656  0.2477 -0.0261  0.2056
   6523SM  H13S 8394   4.483   4.697  15.648  1.8931 -0.4839 -1.1000
   6523SM  H13T 8395   4.625   4.790  15.673  0.8761  1.4692 -2.2426
   6523SM  C14S 8396   4.480   4.858  15.512  0.1088  0.0417 -0.3485
   6523SM  H14S 8397   4.516   4.960  15.488 -0.2242  0.8319  2.1720
   6523SM  H14T 8398   4.369   4.863  15.507  0.1007 -0.0712 -0.2950
   6523SM  C15S 8399   4.521   4.758  15.404 -0.8234 -0.3732 -0.7791
   6523SM  H15S 8400   4.504   4.652  15.430 -0.2206 -0.1647  0.5414
   6523SM  H15T 8401   4.631   4.774  15.397 -0.8802 -0.5626 -3.0548
   6523SM  C16S 8402   4.477   4.781  15.254 -0.0909  0.1711  0.7205
   6523SM  H16S 8403   4.368   4.761  15.254 -0.5796  2.2522  3.0284
   6523SM  H16T 8404   4.532   4.712  15.187  2.7222  1.7395  1.2407
   6523SM  C17S 8405   4.495   4.930  15.213  0.0313 -0.2587 -0.0506
   6523SM  H17S 8406   4.603   4.953  15.229 -0.5979  1.2973  2.3748
   6523SM  H17T 8407   4.444   4.992  15.290 -0.1451  0.2995 -0.6069
   6523SM  C18S 8408   4.437   4.976  15.075  0.4676 -0.4567  0.1100
   6523SM  H18S 8409   4.483   5.075  15.051 -0.7582  0.1698  0.2592
   6523SM  H18T 8410   4.332   5.011  15.082  0.6785  0.0105  1.1470
   6523SM  H18U 8411   4.462   4.908  14.991  1.0840 -1.0931  0.7913
   6523SM   C1F 8412   4.374   4.243  16.578 -0.2923  0.2790  0.4201
   6523SM    OF 8413   4.280   4.191  16.634 -0.0235 -0.4373 -0.3817
   6523SM   C2F 8414   4.417   4.202  16.438 -0.5169  0.2802 -0.1708
   6523SM   H2F 8415   4.414   4.091  16.430 -2.1940  0.3632 -0.9812
   6523SM   H2G 8416   4.523   4.225  16.414  0.0025 -1.9009 -0.1655
   6523SM   C3F 8417   4.318   4.252  16.326 -0.3382 -0.1872  0.1091
   6523SM   H3F 8418   4.320   4.362  16.331 -1.7939 -0.0102 -2.0724
   6523SM   H3G 8419   4.212   4.220  16.334 -0.2184 -1.1953 -1.8359
   6523SM   C4F 8420   4.363   4.224  16.190 -0.8378  0.0514  0.3422
   6523SM   H4F 8421   4.358   4.115  16.172 -0.1191 -0.1333  1.1936
   6523SM   H4G 8422   4.467   4.259  16.173 -1.1830  1.5092  1.0230
   6523SM   C5F 8423   4.265   4.297  16.095  0.1023 -0.7656  0.0418
   6523SM   H5F 8424   4.255   4.405  16.120 -0.5917 -1.1580  1.6201
   6523SM   H5G 8425   4.161   4.258  16.102  0.1444 -0.9259 -0.2205
   6523SM   C6F 8426   4.311   4.277  15.951 -0.2948 -0.9614  0.9430
   6523SM   H6F 8427   4.297   4.174  15.911  3.0706 -0.2253 -2.8055
   6523SM   H6G 8428   4.418   4.305  15.954 -0.9691  2.3085 -1.1120
   6523SM   C7F 8429   4.259   4.382  15.851 -0.2183 -0.4791  0.3578
   6523SM   H7F 8430   4.278   4.488  15.878 -0.4608 -0.4712  0.4956
   6523SM   H7G 8431   4.148   4.376  15.841 -0.2596  0.4684  0.1914
   6523SM   C8F 8432   4.304   4.354  15.712  0.5251  0.2692  0.2856
   6523SM   H8F 8433   4.280   4.249  15.684  2.2777  0.2943 -1.5316
   6523SM   H8G 8434   4.415   4.354  15.704  0.4960 -0.4193 -0.2029
   6523SM   C9F 8435   4.254   4.452  15.608  0.5992 -0.2888 -0.0193
   6523SM   H9F 8436   4.271   4.556  15.642  2.3944  0.2713 -2.4047
   6523SM   H9G 8437   4.144   4.436  15.608  0.5094  0.3064  0.0467
   6523SM  C10F 8438   4.324   4.424  15.477  0.3842 -0.2150 -0.7714
   6523SM  H10F 8439   4.341   4.316  15.456 -1.3407 -0.1663 -2.8315
   6523SM  H10G 8440   4.430   4.455  15.481  0.3178  0.1460 -1.5884
   6523SM  C11F 8441   4.258   4.481  15.356 -0.6693 -0.4460  0.0047
   6523SM  H11F 8442   4.243   4.588  15.382 -3.2712 -0.2749 -1.8115
   6523SM  H11G 8443   4.158   4.434  15.352 -1.2308  0.4841  1.9445
   6523SM  C12F 8444   4.325   4.462  15.220 -0.0117 -0.2228 -0.2470
   6523SM  H12F 8445   4.370   4.361  15.208  0.7517  0.1684 -0.8117
   6523SM  H12G 8446   4.409   4.535  15.217  1.8514 -2.2014  1.0403
   6523SM  C13F 8447   4.239   4.490  15.093 -0.7058 -0.6374 -0.7177
   6523SM  H13F 8448   4.186   4.587  15.096 -0.0493 -0.2722  2.2033
   6523SM  H13G 8449   4.158   4.414  15.083  0.0124 -1.3665 -1.1567
   6523SM  C14F 8450   4.319   4.488  14.964  0.1488  0.3291 -0.1309
   6523SM  H14F 8451   4.398   4.411  14.974 -0.0176  0.3163  1.2456
   6523SM  H14G 8452   4.363   4.589  14.948 -0.4260  0.4132 -1.3545
   6523SM  C15F 8453   4.214   4.471  14.852 -0.8916 -0.0553  0.2049
   6523SM  H15F 8454   4.139   4.553  14.853 -0.2479  0.6405 -2.0103
   6523SM  H15G 8455   4.167   4.375  14.882 -2.4027  0.7605  0.5538
   6523SM  C16F 8456   4.288   4.465  14.715  0.6642 -0.2760 -0.4241
   6523SM  H16F 8457   4.391   4.424  14.726  0.4971 -0.1969  1.9574
   6523SM  H16G 8458   4.310   4.568  14.679  2.4136 -0.7731 -0.8828
   6523SM  C17F 8459   4.198   4.401  14.611 -0.0124 -0.1469  0.6704
   6523SM  H17F 8460   4.164   4.302  14.647  3.3742 -2.0679 -0.9303
   6523SM  H17G 8461   4.268   4.391  14.526  0.7517  0.2399  1.2366
   6523SM  C18F 8462   4.075   4.490  14.567 -0.2071 -0.6959  0.4433
   6523SM  H18F 8463   4.125   4.557  14.493  1.5208 -0.5118  1.7340
   6523SM  H18G 8464   4.033   4.546  14.654 -2.3554 -1.8345  0.2242
   6523SM  C19F 8465   3.957   4.412  14.499  0.6029  0.1169 -0.4292
   6523SM  H19F 8466   3.903   4.351  14.574 -1.6550  0.1834 -1.9094
   6523SM  H19G 8467   3.992   4.349  14.414  0.5199 -1.6651  0.8127
   6523SM  C20F 8468   3.849   4.500  14.431  0.2275 -0.5005  0.1118
   6523SM  H20F 8469   3.891   4.562  14.348 -0.9661  1.1740  0.6993
   6523SM  H20G 8470   3.802   4.574  14.500 -0.3477 -0.1498 -0.6443
   6523SM  C21F 8471   3.729   4.416  14.386 -0.3137 -0.0406  0.0319
   6523SM  H21F 8472   3.678   4.377  14.477  1.1175 -2.8851 -0.2745
   6523SM  H21G 8473   3.763   4.330  14.324 -1.6843 -0.8545  0.3719
   6523SM  C22F 8474   3.630   4.493  14.292  0.3393 -0.6905 -0.5807
   6523SM  H22F 8475   3.560   4.430  14.233 -0.5748  0.5391 -0.8442
   6523SM  H22G 8476   3.691   4.555  14.223  0.2973 -0.9548 -0.8541
   6523SM  C23F 8477   3.534   4.588  14.362 -0.2733  0.1534  0.0610
   6523SM  H23F 8478   3.456   4.528  14.413  0.0641  1.1955  1.9086
   6523SM  H23G 8479   3.475   4.659  14.301 -2.4591 -0.8545  0.9113
   6523SM  H23H 8480   3.590   4.633  14.447 -0.5981 -2.0091  1.4927
   6623SM     N 8481   3.143   1.728  17.542 -0.1539  0.0335  0.8129
   6623SM   C15 8482   3.021   1.759  17.620 -0.4229 -0.7655 -0.5074
   6623SM  H15A 8483   2.974   1.854  17.601 -0.4817 -0.5390  0.7059
   6623SM  H15B 8484   3.052   1.752  17.723 -0.6819 -2.4460 -0.5103
   6623SM  H15C 8485   2.953   1.678  17.600  0.9260 -1.9674 -0.4043
   6623SM   C14 8486   3.239   1.846  17.561 -0.3528 -0.4885  0.3324
   6623SM  H14A 8487   3.327   1.829  17.500  1.3134  1.6571  1.9773
   6623SM  H14B 8488   3.266   1.863  17.664 -0.8416 -0.4421  0.4569
   6623SM  H14C 8489   3.197   1.940  17.525  0.8864 -0.6299 -1.6698
   6623SM   C13 8490   3.206   1.603  17.586  0.0141  0.4556 -0.2207
   6623SM  H13A 8491   3.298   1.592  17.531 -0.2448 -0.2223 -0.5324
   6623SM  H13B 8492   3.154   1.511  17.562 -0.6157  0.3478  1.4722
   6623SM  H13C 8493   3.232   1.607  17.690  0.6385  0.9501 -0.3869
   6623SM   C12 8494   3.086   1.709  17.400 -0.7362 -0.0441  0.1155
   6623SM  H12A 8495   3.003   1.640  17.396  0.6280 -1.6856 -1.2007
   6623SM  H12B 8496   3.165   1.668  17.340  0.0657  0.9936  0.4417
   6623SM   C11 8497   3.038   1.834  17.323  0.5887 -0.0920  0.1900
   6623SM  H11A 8498   2.956   1.880  17.382  1.3233  0.8958  0.4786
   6623SM  H11B 8499   3.000   1.793  17.228  2.3843 -2.4864  0.4157
   6623SM     P 8500   3.238   1.899  17.161  0.2980  0.2720 -0.0638
   6623SM   O13 8501   3.361   1.972  17.199 -0.2948  0.0521  0.4934
   6623SM   O14 8502   3.261   1.753  17.134  0.4079 -0.3054 -0.1315
   6623SM   O11 8503   3.169   1.960  17.036  0.5852  0.4105 -0.3604
   6623SM   O12 8504   3.143   1.922  17.292  0.0344  0.1484  1.0210
   6623SM   C1S 8505   3.063   1.908  16.964 -0.0036  0.2852  0.1533
   6623SM   H1S 8506   2.968   1.961  16.989  0.1399  1.2666 -1.2562
   6623SM   H1T 8507   3.043   1.799  16.972  0.8926 -0.0235 -1.4454
   6623SM    NF 8508   2.933   1.964  16.737 -0.1021  0.2588 -0.5385
   6623SM   HNF 8509   2.901   1.898  16.669  1.4185  0.2572 -1.3088
   6623SM   C2S 8510   3.062   1.945  16.808 -0.0936  0.1293 -0.0925
   6623SM   H2S 8511   3.100   2.049  16.798  0.9944 -0.2274  0.2913
   6623SM   C3S 8512   3.159   1.865  16.730 -0.3868 -0.0090 -0.1363
   6623SM   H3S 8513   3.107   1.772  16.697  0.4754 -0.3466 -0.5929
   6623SM    O3 8514   3.274   1.811  16.805 -0.2302 -0.3101 -0.3260
   6623SM   HO3 8515   3.270   1.860  16.887  2.0190 -0.5963  0.0115
   6623SM   C4S 8516   3.198   1.944  16.606 -0.4134  0.2854  0.1599
   6623SM   H4S 8517   3.128   1.923  16.524 -0.2333  0.7906 -0.1277
   6623SM   C5S 8518   3.301   2.025  16.588  0.1517  0.1400 -0.1335
   6623SM   H5S 8519   3.383   2.029  16.661 -0.0329 -2.3710  0.3150
   6623SM   C6S 8520   3.321   2.094  16.455  0.8719  0.0261  0.1552
   6623SM   H6S 8521   3.412   2.049  16.409 -0.3865 -1.8848 -0.5759
   6623SM   H6T 8522   3.345   2.201  16.470  3.3311 -0.2058 -1.5723
   6623SM   C7S 8523   3.193   2.094  16.361  0.7057  0.4778  0.3733
   6623SM   H7S 8524   3.101   2.120  16.417  0.4803 -0.5681  0.5131
   6623SM   H7T 8525   3.178   1.996  16.310  1.9602 -0.6124  1.9823
   6623SM   C8S 8526   3.204   2.206  16.256  0.2226  0.6592  0.4468
   6623SM   H8S 8527   3.241   2.301  16.300 -1.7962  0.5028  2.6784
   6623SM   H8T 8528   3.103   2.219  16.211  0.5925  0.1146 -0.5680
   6623SM   C9S 8529   3.312   2.180  16.142 -0.5022  0.3582 -0.0117
   6623SM   H9S 8530   3.400   2.141  16.196 -0.5918 -0.6904 -0.5867
   6623SM   H9T 8531   3.339   2.277  16.096 -0.2273  1.1555  1.7619
   6623SM  C10S 8532   3.250   2.104  16.030  0.3479  0.1417 -0.0679
   6623SM  H10S 8533   3.156   2.160  16.011  1.1052  1.2611 -0.6165
   6623SM  H10T 8534   3.236   1.997  16.056  0.8211 -0.0151 -0.4305
   6623SM  C11S 8535   3.331   2.100  15.902  0.6716  0.2105 -0.5527
   6623SM  H11S 8536   3.434   2.059  15.911 -0.0907 -1.9052 -0.8550
   6623SM  H11T 8537   3.337   2.205  15.865 -1.6654  0.9611  0.9635
   6623SM  C12S 8538   3.265   2.023  15.793 -0.1061  0.0901  0.9069
   6623SM  H12S 8539   3.166   2.067  15.770 -0.1862 -1.0632 -1.2783
   6623SM  H12T 8540   3.241   1.918  15.821  0.3585 -0.0636  0.7355
   6623SM  C13S 8541   3.350   2.026  15.669  0.2177  0.5451 -0.1282
   6623SM  H13S 8542   3.443   1.968  15.688 -1.3490 -1.6178  1.5068
   6623SM  H13T 8543   3.384   2.129  15.648 -0.5931  0.2472 -3.4969
   6623SM  C14S 8544   3.273   1.980  15.538 -0.9274 -0.2951 -0.3091
   6623SM  H14S 8545   3.186   2.048  15.544 -0.5459  0.2612 -0.8723
   6623SM  H14T 8546   3.238   1.878  15.565  0.3443 -0.5576  0.4547
   6623SM  C15S 8547   3.353   1.991  15.413  0.1278  0.3083  0.5635
   6623SM  H15S 8548   3.434   1.917  15.399  0.6203  1.1417 -1.2580
   6623SM  H15T 8549   3.392   2.094  15.426 -1.6989  1.1083  0.1079
   6623SM  C16S 8550   3.255   1.995  15.290  0.2113  0.4538  0.1353
   6623SM  H16S 8551   3.187   2.083  15.292  1.6851  1.6143  0.5167
   6623SM  H16T 8552   3.197   1.900  15.292 -0.1257  0.6325 -0.7394
   6623SM  C17S 8553   3.341   2.030  15.169 -0.2378 -0.1896  0.1726
   6623SM  H17S 8554   3.430   1.963  15.169 -0.5159 -0.5651  0.1020
   6623SM  H17T 8555   3.374   2.133  15.192  1.4513 -0.6806  0.0669
   6623SM  C18S 8556   3.275   2.036  15.030 -1.0820 -0.0128  0.1605
   6623SM  H18S 8557   3.289   1.935  14.984  0.4113 -0.3273  1.2340
   6623SM  H18T 8558   3.319   2.113  14.964 -2.1256  1.5605  1.2272
   6623SM  H18U 8559   3.166   2.057  15.035 -1.1798 -0.6569  0.9137
   6623SM   C1F 8560   2.852   2.055  16.775  0.0606 -0.0985  0.1107
   6623SM    OF 8561   2.887   2.138  16.859  0.1443 -0.1529  0.0593
   6623SM   C2F 8562   2.714   2.066  16.714  0.0340  0.2316  0.4208
   6623SM   H2F 8563   2.648   2.026  16.795 -0.0176 -0.9749 -0.1978
   6623SM   H2G 8564   2.714   1.992  16.631  0.7528 -1.0954  1.5503
   6623SM   C3F 8565   2.661   2.206  16.669 -0.1722  0.2065 -0.2234
   6623SM   H3F 8566   2.675   2.284  16.747 -0.9262  1.1361 -1.0001
   6623SM   H3G 8567   2.554   2.195  16.644 -0.4225 -0.1603  0.9568
   6623SM   C4F 8568   2.735   2.263  16.545 -0.4881  0.7863  0.0682
   6623SM   H4F 8569   2.837   2.296  16.575 -0.0152 -0.5013 -0.0623
   6623SM   H4G 8570   2.679   2.356  16.518 -2.3927 -0.1206  0.7533
   6623SM   C5F 8571   2.749   2.170  16.417  0.5669  0.2458 -1.1360
   6623SM   H5F 8572   2.656   2.112  16.399  0.4319  0.0771  0.0023
   6623SM   H5G 8573   2.820   2.091  16.452 -1.4093 -1.1747 -0.0823
   6623SM   C6F 8574   2.789   2.251  16.295  0.1616 -0.6812 -0.3719
   6623SM   H6F 8575   2.888   2.301  16.308 -1.8224  3.2321  1.3922
   6623SM   H6G 8576   2.708   2.322  16.268  0.7714  0.3896  0.5119
   6623SM   C7F 8577   2.792   2.149  16.188 -0.5354 -0.2060 -0.0196
   6623SM   H7F 8578   2.694   2.105  16.160 -1.1269  1.3716 -0.5787
   6623SM   H7G 8579   2.865   2.068  16.211  1.0129  1.5988  1.8479
   6623SM   C8F 8580   2.821   2.226  16.061  0.0029  0.3433  0.9826
   6623SM   H8F 8581   2.929   2.251  16.059  0.7447 -2.5079 -0.5165
   6623SM   H8G 8582   2.766   2.322  16.056  1.8687  1.3924 -2.2919
   6623SM   C9F 8583   2.776   2.149  15.936  0.6918  0.4585  0.4859
   6623SM   H9F 8584   2.669   2.123  15.947  0.2008  2.6765  1.5240
   6623SM   H9G 8585   2.837   2.057  15.922  2.3033  1.4152  0.8868
   6623SM  C10F 8586   2.791   2.239  15.820  0.2256 -0.2309  0.2717
   6623SM  H10F 8587   2.891   2.287  15.811 -0.6081  2.0822  2.1868
   6623SM  H10G 8588   2.714   2.318  15.808 -0.1264 -0.7003 -0.6973
   6623SM  C11F 8589   2.769   2.164  15.685 -0.1603  0.2056 -0.2650
   6623SM  H11F 8590   2.663   2.155  15.654  0.3261  3.1869 -3.3677
   6623SM  H11G 8591   2.801   2.059  15.702  0.3010  0.1277 -1.5002
   6623SM  C12F 8592   2.831   2.221  15.559 -0.0548 -0.2631 -0.0474
   6623SM  H12F 8593   2.942   2.220  15.563  0.1015  0.5357 -2.6541
   6623SM  H12G 8594   2.806   2.329  15.558  1.8611  0.2141 -0.1332
   6623SM  C13F 8595   2.779   2.155  15.429  0.0471  0.2525 -0.1462
   6623SM  H13F 8596   2.671   2.183  15.420  0.5323  1.7099 -2.2740
   6623SM  H13G 8597   2.765   2.047  15.450 -0.3091  0.5124  1.0064
   6623SM  C14F 8598   2.857   2.185  15.305 -0.3701 -1.1973  0.3906
   6623SM  H14F 8599   2.952   2.128  15.299  0.6315  0.5386 -1.7930
   6623SM  H14G 8600   2.882   2.294  15.300 -1.3908 -0.9342  0.7321
   6623SM  C15F 8601   2.777   2.143  15.184  0.0383  0.4253 -0.6058
   6623SM  H15F 8602   2.672   2.176  15.196 -0.2192 -0.6207  0.1687
   6623SM  H15G 8603   2.779   2.032  15.181  0.7397  0.2303  2.6733
   6623SM  C16F 8604   2.826   2.212  15.052 -0.1726  0.5354  0.6317
   6623SM  H16F 8605   2.931   2.192  15.024 -0.9085 -0.3560 -1.7573
   6623SM  H16G 8606   2.806   2.320  15.068  2.2403  0.9740  1.1168
   6623SM  C17F 8607   2.758   2.170  14.919  0.6825  0.3123 -0.3384
   6623SM  H17F 8608   2.649   2.186  14.935 -0.0277 -4.0286  0.2640
   6623SM  H17G 8609   2.776   2.062  14.902 -1.0679 -0.4583  2.2542
   6623SM  C18F 8610   2.792   2.244  14.787  0.6188 -0.3440 -0.3907
   6623SM  H18F 8611   2.901   2.230  14.768  0.7462 -0.1494  0.1635
   6623SM  H18G 8612   2.778   2.353  14.805 -0.1436 -0.4816 -0.1020
   6623SM  C19F 8613   2.710   2.200  14.671 -0.1748  0.2165 -0.2924
   6623SM  H19F 8614   2.712   2.089  14.681  1.3263  0.2945  0.5762
   6623SM  H19G 8615   2.759   2.217  14.573  2.9573 -3.3915  0.3843
   6623SM  C20F 8616   2.564   2.248  14.673  0.3857  0.3127 -0.0202
   6623SM  H20F 8617   2.562   2.339  14.610 -0.8802  0.1685 -0.2316
   6623SM  H20G 8618   2.529   2.262  14.777 -1.3462  3.6260 -0.9002
   6623SM  C21F 8619   2.462   2.169  14.596 -0.1722  0.0937  0.3025
   6623SM  H21F 8620   2.462   2.069  14.645  0.6388  0.8291  1.8999
   6623SM  H21G 8621   2.496   2.164  14.490  1.6432 -0.1858  0.8532
   6623SM  C22F 8622   2.327   2.231  14.574  0.7749 -0.0327 -0.6348
   6623SM  H22F 8623   2.324   2.330  14.522 -1.0203  1.0043  1.2859
   6623SM  H22G 8624   2.271   2.242  14.669  2.3653  0.7469  0.2523
   6623SM  C23F 8625   2.230   2.153  14.487 -0.0394  0.3947 -0.0683
   6623SM  H23F 8626   2.135   2.206  14.467 -0.0881  0.7755  1.1278
   6623SM  H23G 8627   2.207   2.052  14.527  3.2045 -0.7063 -0.6523
   6623SM  H23H 8628   2.275   2.138  14.386 -0.4507 -1.2400 -0.0383
   6723SM     N 8629   1.561   5.991  16.905  0.0095  0.8493 -0.1448
   6723SM   C15 8630   1.412   5.957  16.889  0.3945  0.2100  0.2871
   6723SM  H15A 8631   1.380   5.894  16.971 -2.4431  1.8433  0.5753
   6723SM  H15B 8632   1.401   5.897  16.799 -2.1127  2.2053 -0.8633
   6723SM  H15C 8633   1.345   6.040  16.875 -0.6638 -0.8200 -1.1479
   6723SM   C14 8634   1.648   5.875  16.873  0.3709 -0.0983 -0.5291
   6723SM  H14A 8635   1.622   5.841  16.774 -0.2325  2.5966 -1.3671
   6723SM  H14B 8636   1.627   5.798  16.946  0.3901  1.4210  1.1560
   6723SM  H14C 8637   1.751   5.904  16.884  0.1785  0.3528  0.1363
   6723SM   C13 8638   1.606   6.085  16.801  0.0049 -0.2128 -0.2559
   6723SM  H13A 8639   1.708   6.119  16.815 -0.0957  0.0002 -0.0233
   6723SM  H13B 8640   1.546   6.175  16.809 -0.8191 -0.8013  0.4113
   6723SM  H13C 8641   1.589   6.054  16.699  0.5285 -0.0340 -0.4010
   6723SM   C12 8642   1.589   6.047  17.043  0.6505  0.2031  0.5581
   6723SM  H12A 8643   1.563   5.970  17.114  0.0399  0.0097  0.1342
   6723SM  H12B 8644   1.523   6.130  17.067  1.8463  0.9877  1.2547
   6723SM   C11 8645   1.738   6.086  17.074  0.6063  0.3757 -0.1020
   6723SM  H11A 8646   1.744   6.131  17.176 -0.6028 -0.8692  0.5459
   6723SM  H11B 8647   1.771   6.162  17.000 -2.9739  0.9538 -1.3213
   6723SM     P 8648   1.982   6.005  17.098 -0.6653 -0.1961 -0.0486
   6723SM   O13 8649   2.004   6.088  17.218  0.3732 -0.1992 -0.4748
   6723SM   O14 8650   2.050   5.877  17.093  0.0826  0.2173 -0.3644
   6723SM   O11 8651   2.023   6.091  16.976 -0.3683 -0.6455  0.9729
   6723SM   O12 8652   1.825   5.973  17.071 -0.8561  0.0479  0.0698
   6723SM   C1S 8653   1.982   6.062  16.838 -0.2186 -0.2206  0.0324
   6723SM   H1S 8654   1.910   6.136  16.796  0.8366  0.2745 -0.9836
   6723SM   H1T 8655   1.953   5.956  16.820  0.1362 -0.4996  1.0484
   6723SM    NF 8656   2.066   6.097  16.594  0.1839  0.4197  0.1789
   6723SM   HNF 8657   2.089   6.013  16.546 -3.6678 -1.0901  0.6463
   6723SM   C2S 8658   2.107   6.094  16.738  0.8439 -0.5269  0.2600
   6723SM   H2S 8659   2.144   6.194  16.769  0.9094 -0.3280 -0.4465
   6723SM   C3S 8660   2.222   5.996  16.772  0.9463 -0.6594 -0.0142
   6723SM   H3S 8661   2.186   5.892  16.753 -1.7243 -0.5117  3.2727
   6723SM    O3 8662   2.263   5.996  16.906 -0.5322 -0.0481  0.5226
   6723SM   HO3 8663   2.179   6.008  16.951 -1.2003 -0.6161 -0.5492
   6723SM   C4S 8664   2.351   6.031  16.704  0.7874 -0.2487  0.6392
   6723SM   H4S 8665   2.377   6.137  16.688 -0.2652 -0.4982 -3.9866
   6723SM   C5S 8666   2.420   5.942  16.633 -0.1003  0.3536  1.3724
   6723SM   H5S 8667   2.375   5.842  16.623 -0.8592  0.8495 -0.6814
   6723SM   C6S 8668   2.546   5.973  16.557  0.1649 -0.8176 -0.0930
   6723SM   H6S 8669   2.624   5.908  16.603 -0.2788  1.1106  3.8097
   6723SM   H6T 8670   2.581   6.079  16.554 -1.5399 -0.1989  0.7255
   6723SM   C7S 8671   2.522   5.933  16.414 -0.1713 -0.0233  0.2505
   6723SM   H7S 8672   2.442   5.993  16.365  0.3049  1.0660  0.7989
   6723SM   H7T 8673   2.492   5.826  16.406  3.0893 -0.9857 -0.3436
   6723SM   C8S 8674   2.647   5.939  16.325 -0.3839 -0.5107  0.4003
   6723SM   H8S 8675   2.618   5.877  16.237 -0.5636  0.8459 -0.5373
   6723SM   H8T 8676   2.734   5.892  16.376 -1.6436 -1.8849  1.3626
   6723SM   C9S 8677   2.679   6.082  16.280 -0.0716 -0.5337  0.3526
   6723SM   H9S 8678   2.698   6.152  16.364  3.2780 -1.4980  0.5218
   6723SM   H9T 8679   2.590   6.119  16.225 -0.9698 -1.7166  0.9699
   6723SM  C10S 8680   2.785   6.074  16.172 -0.1977  0.0744 -0.6165
   6723SM  H10S 8681   2.746   6.010  16.090  0.9826 -0.0907 -1.0578
   6723SM  H10T 8682   2.873   6.021  16.213 -0.4658 -0.2565 -0.4609
   6723SM  C11S 8683   2.802   6.212  16.099 -0.2114  0.2608 -0.9282
   6723SM  H11S 8684   2.821   6.286  16.179  0.8799 -0.7553 -0.2135
   6723SM  H11T 8685   2.709   6.243  16.047 -0.3194  1.2294 -0.1579
   6723SM  C12S 8686   2.919   6.205  16.011  0.4044 -0.5645 -0.2306
   6723SM  H12S 8687   3.010   6.165  16.059  1.4469 -0.0530 -1.7352
   6723SM  H12T 8688   2.938   6.308  15.975 -0.5540  0.4473  1.9376
   6723SM  C13S 8689   2.891   6.116  15.889  0.3744 -0.5880  0.0410
   6723SM  H13S 8690   2.783   6.127  15.866  0.3201 -2.3486 -0.7125
   6723SM  H13T 8691   2.922   6.014  15.921  0.4606 -0.0410  1.7638
   6723SM  C14S 8692   2.974   6.169  15.768 -0.2911  0.0127 -0.1805
   6723SM  H14S 8693   3.078   6.168  15.806 -1.4303 -0.9078  3.3373
   6723SM  H14T 8694   2.949   6.276  15.753  2.8509  1.0130  0.9797
   6723SM  C15S 8695   2.965   6.087  15.642  0.3071 -0.3237 -0.4165
   6723SM  H15S 8696   2.861   6.054  15.618 -0.0498 -1.7237  2.5268
   6723SM  H15T 8697   3.007   5.989  15.671  0.8394 -0.1063 -0.4400
   6723SM  C16S 8698   3.035   6.157  15.528  0.6750 -0.2620 -0.3113
   6723SM  H16S 8699   3.144   6.150  15.551  0.8583 -1.0111 -1.3543
   6723SM  H16T 8700   2.999   6.261  15.522  0.1792 -0.2762  1.5848
   6723SM  C17S 8701   3.019   6.087  15.391 -0.5986 -0.9232  0.9633
   6723SM  H17S 8702   2.912   6.108  15.369 -1.2245 -2.3558  2.4785
   6723SM  H17T 8703   3.029   5.976  15.388 -2.7940 -1.1692  0.3544
   6723SM  C18S 8704   3.108   6.165  15.286 -0.1952  0.2328  0.1063
   6723SM  H18S 8705   3.102   6.121  15.184 -0.1550 -0.7645  0.5227
   6723SM  H18T 8706   3.210   6.166  15.329 -0.7957 -1.4904  1.6860
   6723SM  H18U 8707   3.077   6.272  15.284 -0.6230  0.1040 -1.3075
   6723SM   C1F 8708   1.975   6.185  16.544 -0.2072 -0.2188 -0.1944
   6723SM    OF 8709   1.959   6.290  16.609 -0.9213 -0.8040  0.4284
   6723SM   C2F 8710   1.909   6.149  16.414 -0.8777  0.1938 -0.3058
   6723SM   H2F 8711   1.813   6.098  16.439 -0.4541 -0.0395  0.9089
   6723SM   H2G 8712   1.963   6.085  16.341 -1.7453 -0.6079 -0.2591
   6723SM   C3F 8713   1.883   6.274  16.337 -0.2245  0.3525 -0.5858
   6723SM   H3F 8714   1.975   6.334  16.321  0.2075  0.1167  0.7993
   6723SM   H3G 8715   1.805   6.337  16.385 -0.6906  1.0236 -2.1599
   6723SM   C4F 8716   1.836   6.239  16.199 -0.9617 -0.2141 -0.2166
   6723SM   H4F 8717   1.735   6.194  16.211 -0.1486 -2.1196 -0.1759
   6723SM   H4G 8718   1.900   6.158  16.159  1.4867  0.9476  1.1523
   6723SM   C5F 8719   1.839   6.367  16.111 -0.4377 -0.4494 -0.0095
   6723SM   H5F 8720   1.901   6.443  16.162  2.1087 -0.4330 -2.8801
   6723SM   H5G 8721   1.730   6.388  16.112  0.0287  2.4289  1.7570
   6723SM   C6F 8722   1.901   6.346  15.972 -0.4601 -0.7916 -0.0138
   6723SM   H6F 8723   1.865   6.251  15.929 -2.1434 -0.8237  1.3706
   6723SM   H6G 8724   2.011   6.341  15.989 -0.3770  3.3151  2.2200
   6723SM   C7F 8725   1.865   6.455  15.865 -0.3491  0.2673 -0.4944
   6723SM   H7F 8726   1.907   6.548  15.910 -0.9097 -0.3393  1.3833
   6723SM   H7G 8727   1.757   6.478  15.856 -0.4204  0.9359  1.4283
   6723SM   C8F 8728   1.939   6.419  15.734 -0.2931 -0.5399  0.0572
   6723SM   H8F 8729   1.901   6.325  15.687  0.6523 -1.3879  0.9529
   6723SM   H8G 8730   2.042   6.396  15.767 -0.1040 -3.0616 -1.9412
   6723SM   C9F 8731   1.959   6.547  15.645  0.4979  0.3864  0.6102
   6723SM   H9F 8732   2.066   6.571  15.624  0.7455 -1.0703  0.0885
   6723SM   H9G 8733   1.939   6.637  15.707  0.7273 -0.1657  1.5097
   6723SM  C10F 8734   1.881   6.548  15.507  0.3680  0.4119 -0.8074
   6723SM  H10F 8735   1.796   6.617  15.519  0.5562  0.8480 -1.8703
   6723SM  H10G 8736   1.846   6.444  15.490  1.3428 -0.0860  0.0786
   6723SM  C11F 8737   1.959   6.586  15.381 -0.3241 -0.3715  0.1706
   6723SM  H11F 8738   2.012   6.493  15.353 -2.3511 -1.9401  1.3149
   6723SM  H11G 8739   2.023   6.670  15.417 -1.1212  0.5138 -0.4130
   6723SM  C12F 8740   1.870   6.639  15.261  0.2572  0.0482 -0.1427
   6723SM  H12F 8741   1.838   6.743  15.282 -1.9448 -0.7715  0.8876
   6723SM  H12G 8742   1.776   6.581  15.248  1.4082 -1.6179 -1.5502
   6723SM  C13F 8743   1.943   6.660  15.123  0.6551  0.3841 -0.5161
   6723SM  H13F 8744   2.010   6.748  15.131  3.1199 -1.4356  0.2367
   6723SM  H13G 8745   1.871   6.685  15.042  2.1701  0.6927 -1.8036
   6723SM  C14F 8746   2.019   6.539  15.069 -0.4112 -0.0644 -0.0127
   6723SM  H14F 8747   1.940   6.461  15.060 -0.6400  0.2536 -0.7747
   6723SM  H14G 8748   2.095   6.491  15.135 -0.1644 -3.4031 -2.4353
   6723SM  C15F 8749   2.079   6.552  14.933 -0.3164 -0.0231  0.1124
   6723SM  H15F 8750   2.154   6.634  14.931 -0.8811  0.5275  0.8967
   6723SM  H15G 8751   1.998   6.571  14.860  0.1944 -0.8228 -0.6781
   6723SM  C16F 8752   2.145   6.424  14.882 -0.0986 -0.0019  0.1042
   6723SM  H16F 8753   2.071   6.341  14.889 -1.3858  1.2463  2.5679
   6723SM  H16G 8754   2.235   6.399  14.942 -0.8098  0.3816  1.3783
   6723SM  C17F 8755   2.177   6.433  14.722  0.7604 -0.0224  0.2603
   6723SM  H17F 8756   2.240   6.525  14.719  0.9564 -0.1533  0.3531
   6723SM  H17G 8757   2.081   6.444  14.668 -1.9697 -0.3635  4.5751
   6723SM  C18F 8758   2.270   6.322  14.661 -0.1588 -0.2504 -0.0906
   6723SM  H18F 8759   2.357   6.315  14.730 -0.9884 -0.9962  0.9118
   6723SM  H18G 8760   2.296   6.343  14.555  0.6603  0.4839  0.2427
   6723SM  C19F 8761   2.208   6.180  14.667 -0.2348  0.4026  0.7183
   6723SM  H19F 8762   2.141   6.164  14.754 -0.4514 -0.2734  0.4310
   6723SM  H19G 8763   2.283   6.102  14.693 -3.4245 -3.2003  0.0404
   6723SM  C20F 8764   2.132   6.129  14.544  0.1887  0.1959 -0.4158
   6723SM  H20F 8765   2.165   6.170  14.446 -0.9496 -1.7603 -1.7042
   6723SM  H20G 8766   2.025   6.155  14.558  0.5264  0.8287  1.0831
   6723SM  C21F 8767   2.152   5.983  14.522 -0.0096  0.2736  0.4647
   6723SM  H21F 8768   2.125   5.933  14.618 -2.2653 -1.7424 -1.0953
   6723SM  H21G 8769   2.253   5.949  14.492 -0.4347 -0.5866 -0.0322
   6723SM  C22F 8770   2.042   5.925  14.428  0.3425 -0.2656 -0.6306
   6723SM  H22F 8771   2.035   6.001  14.347 -2.9931  1.6012  1.2297
   6723SM  H22G 8772   1.943   5.929  14.478  0.7237  0.7476  0.0644
   6723SM  C23F 8773   2.057   5.781  14.380  0.2961 -0.2339  0.3974
   6723SM  H23F 8774   2.141   5.774  14.309 -0.0317  2.3432 -0.3361
   6723SM  H23G 8775   1.962   5.747  14.333 -0.2157 -2.0959  2.5725
   6723SM  H23H 8776   2.088   5.718  14.466  2.1616  0.8165  0.5314
   6823SM     N 8777   1.866   1.918  17.351 -0.4578 -0.9548  0.2506
   6823SM   C15 8778   1.916   2.009  17.456 -0.6670  0.2615 -0.8991
   6823SM  H15A 8779   1.987   2.081  17.417 -0.4953  0.5018 -0.1616
   6823SM  H15B 8780   1.962   1.963  17.542 -1.0681  1.0769 -0.2216
   6823SM  H15C 8781   1.829   2.064  17.491 -0.6510  0.9855 -1.9301
   6823SM   C14 8782   1.987   1.855  17.290  0.3167 -0.2274 -0.1707
   6823SM  H14A 8783   1.968   1.781  17.213 -1.9309 -0.1952  0.2823
   6823SM  H14B 8784   2.062   1.822  17.360  2.1371  1.0677 -1.4130
   6823SM  H14C 8785   2.041   1.931  17.236  0.2072 -0.0756 -0.0667
   6823SM   C13 8786   1.784   1.817  17.427  0.0417 -0.8125 -0.2949
   6823SM  H13A 8787   1.724   1.748  17.369 -0.1320 -1.0074  0.1153
   6823SM  H13B 8788   1.714   1.870  17.489 -0.7954  0.0903 -1.9269
   6823SM  H13C 8789   1.858   1.767  17.489 -0.9637  0.7059  2.2513
   6823SM   C12 8790   1.780   1.976  17.241 -0.3301 -0.4366  0.0093
   6823SM  H12A 8791   1.682   1.996  17.282  0.1974  2.5831  0.0220
   6823SM  H12B 8792   1.762   1.911  17.156  0.4495 -2.4466  1.3064
   6823SM   C11 8793   1.834   2.108  17.163  0.0935  0.5554  0.2551
   6823SM  H11A 8794   1.932   2.087  17.114  0.2298 -0.0616  0.7765
   6823SM  H11B 8795   1.852   2.187  17.240 -0.8558  0.5984  0.4421
   6823SM     P 8796   1.616   2.219  17.127  0.0942  0.0213 -0.3078
   6823SM   O13 8797   1.540   2.119  17.202  0.4460 -0.0117  0.0047
   6823SM   O14 8798   1.667   2.338  17.202 -0.0106 -0.5590 -0.8848
   6823SM   O11 8799   1.544   2.263  16.994 -0.4960 -0.2793 -0.0143
   6823SM   O12 8800   1.743   2.146  17.066  0.4629  0.3194 -0.4780
   6823SM   C1S 8801   1.611   2.368  16.913  0.0499  0.0826  0.7860
   6823SM   H1S 8802   1.721   2.379  16.928  0.1302  0.8366 -0.2664
   6823SM   H1T 8803   1.566   2.467  16.937  1.0667  0.5969  0.6738
   6823SM    NF 8804   1.645   2.472  16.688 -0.5450  0.5053 -0.5754
   6823SM   HNF 8805   1.580   2.546  16.668  0.6811  2.1651  1.1844
   6823SM   C2S 8806   1.583   2.361  16.759 -0.0916 -0.3061 -0.3912
   6823SM   H2S 8807   1.633   2.266  16.728  1.0106 -0.5346  1.8967
   6823SM   C3S 8808   1.431   2.344  16.734 -0.0732 -0.2751  0.0490
   6823SM   H3S 8809   1.386   2.427  16.793  0.8248  0.9028 -0.8769
   6823SM    O3 8810   1.378   2.223  16.791  0.0842  0.3356 -0.2187
   6823SM   HO3 8811   1.438   2.201  16.862  0.1813 -0.3317 -0.4952
   6823SM   C4S 8812   1.397   2.347  16.586  0.4210 -0.1603 -0.4108
   6823SM   H4S 8813   1.380   2.450  16.551  0.6173  0.3747  1.0054
   6823SM   C5S 8814   1.396   2.252  16.492 -0.6542  0.7267 -0.0115
   6823SM   H5S 8815   1.424   2.151  16.526 -0.7343  0.2755 -1.2612
   6823SM   C6S 8816   1.361   2.278  16.347 -0.4008  0.4047 -0.0106
   6823SM   H6S 8817   1.366   2.387  16.326  1.2255 -0.0270 -2.3454
   6823SM   H6T 8818   1.256   2.243  16.334 -0.7446  1.1433  0.7085
   6823SM   C7S 8819   1.456   2.212  16.246 -0.5731  0.1824 -0.8393
   6823SM   H7S 8820   1.467   2.103  16.264 -1.0923  0.4475  1.2814
   6823SM   H7T 8821   1.556   2.261  16.250 -0.0851 -0.7643 -0.9717
   6823SM   C8S 8822   1.404   2.243  16.102  1.1622  0.6298  0.1045
   6823SM   H8S 8823   1.430   2.350  16.086 -0.6034  1.0133 -0.3419
   6823SM   H8T 8824   1.296   2.219  16.099  1.0149  1.0229  1.5505
   6823SM   C9S 8825   1.464   2.150  16.006  0.0700  0.3105 -0.7976
   6823SM   H9S 8826   1.424   2.049  16.027  1.3005  0.4819  3.0279
   6823SM   H9T 8827   1.575   2.147  16.014 -0.0914  0.0261  2.6371
   6823SM  C10S 8828   1.426   2.181  15.860  0.2194 -0.1123 -0.6373
   6823SM  H10S 8829   1.464   2.282  15.834  1.1355 -0.2754  0.0381
   6823SM  H10T 8830   1.315   2.185  15.855  0.1773  2.7321  0.5931
   6823SM  C11S 8831   1.478   2.071  15.771  0.1217 -0.5678 -0.4860
   6823SM  H11S 8832   1.426   1.978  15.803 -0.3254  0.2829  1.4160
   6823SM  H11T 8833   1.589   2.064  15.776  0.1993  0.1307 -0.9603
   6823SM  C12S 8834   1.443   2.102  15.623  0.3769 -0.4045  0.6700
   6823SM  H12S 8835   1.491   2.194  15.583  0.6102 -0.7288  0.2064
   6823SM  H12T 8836   1.335   2.125  15.607  1.2759  3.1323 -1.3086
   6823SM  C13S 8837   1.483   1.976  15.540 -0.0086 -0.6314 -0.2877
   6823SM  H13S 8838   1.442   1.887  15.593  0.5681 -0.0678  1.1522
   6823SM  H13T 8839   1.593   1.969  15.553 -0.1064 -1.6110  0.0914
   6823SM  C14S 8840   1.455   1.985  15.393  0.3450 -1.0338  0.4009
   6823SM  H14S 8841   1.353   2.026  15.379  0.2740 -1.2696  0.2423
   6823SM  H14T 8842   1.458   1.888  15.339 -0.7525 -1.3428  0.8851
   6823SM  C15S 8843   1.550   2.077  15.310  0.7874 -0.4583 -0.2732
   6823SM  H15S 8844   1.647   2.025  15.295  2.1753  1.8337  0.2961
   6823SM  H15T 8845   1.553   2.177  15.358 -3.0711  0.4166 -1.5458
   6823SM  C16S 8846   1.493   2.107  15.171  0.3917  0.4987  0.3914
   6823SM  H16S 8847   1.390   2.147  15.186 -0.5886 -2.6188  3.0165
   6823SM  H16T 8848   1.479   2.015  15.110 -0.5831  1.6164 -1.1655
   6823SM  C17S 8849   1.580   2.207  15.089  0.8235  0.6101  0.7595
   6823SM  H17S 8850   1.686   2.174  15.087  1.4847  2.6643  0.1185
   6823SM  H17T 8851   1.580   2.306  15.139  0.7787  1.2080 -0.3951
   6823SM  C18S 8852   1.525   2.212  14.942 -0.2186  0.1499 -0.3058
   6823SM  H18S 8853   1.558   2.303  14.888  0.7507 -0.4157 -0.6842
   6823SM  H18T 8854   1.414   2.208  14.934 -0.4977  4.4535 -1.1039
   6823SM  H18U 8855   1.565   2.122  14.889  2.0599  0.8092  0.1841
   6823SM   C1F 8856   1.775   2.503  16.686 -0.6761 -0.6216 -0.1901
   6823SM    OF 8857   1.857   2.438  16.743 -0.4876 -0.6052 -0.0042
   6823SM   C2F 8858   1.813   2.629  16.616  0.5933  0.1236  0.3582
   6823SM   H2F 8859   1.868   2.690  16.692  0.5210 -0.0430  0.5469
   6823SM   H2G 8860   1.722   2.689  16.595 -0.1750 -0.2419  2.3499
   6823SM   C3F 8861   1.897   2.608  16.492 -0.1971 -0.3173  0.5159
   6823SM   H3F 8862   1.991   2.552  16.512  1.0245  1.6588  0.5715
   6823SM   H3G 8863   1.928   2.711  16.463 -0.3663  0.0021  1.4231
   6823SM   C4F 8864   1.812   2.548  16.379 -0.1331  0.1538 -0.6689
   6823SM   H4F 8865   1.710   2.590  16.366 -0.3776  0.1518  1.0071
   6823SM   H4G 8866   1.792   2.443  16.410 -1.4261  0.5683 -0.0181
   6823SM   C5F 8867   1.863   2.528  16.235 -0.4745 -0.2646  0.2976
   6823SM   H5F 8868   1.973   2.514  16.235 -0.4701 -1.1600  3.8750
   6823SM   H5G 8869   1.839   2.631  16.200 -0.9970 -0.7479 -0.8400
   6823SM   C6F 8870   1.791   2.431  16.141  0.1593  0.6795 -0.9108
   6823SM   H6F 8871   1.682   2.450  16.136 -0.0201  0.3908  1.0995
   6823SM   H6G 8872   1.791   2.331  16.189 -0.7037  0.1038 -2.0788
   6823SM   C7F 8873   1.854   2.425  16.000 -0.6027 -0.2984 -0.3274
   6823SM   H7F 8874   1.959   2.389  16.003 -0.5741 -0.3719 -1.6609
   6823SM   H7G 8875   1.859   2.528  15.958 -3.5762  0.2707  0.4647
   6823SM   C8F 8876   1.775   2.331  15.915  0.5783 -0.0356 -0.6145
   6823SM   H8F 8877   1.678   2.382  15.902  0.9117  0.5971 -0.6436
   6823SM   H8G 8878   1.763   2.242  15.981 -0.0252  0.9833  0.6643
   6823SM   C9F 8879   1.826   2.303  15.772  0.2956 -1.5219  0.1473
   6823SM   H9F 8880   1.755   2.230  15.726 -0.5646 -0.2922 -0.5269
   6823SM   H9G 8881   1.924   2.252  15.780  1.3442  0.5022  0.8810
   6823SM  C10F 8882   1.836   2.437  15.699 -0.0910  0.3527 -0.8245
   6823SM  H10F 8883   1.933   2.490  15.713  0.1361  0.4308 -2.4844
   6823SM  H10G 8884   1.759   2.511  15.730  1.0981  1.1321  0.4049
   6823SM  C11F 8885   1.817   2.417  15.544 -0.7244  0.3505  0.0145
   6823SM  H11F 8886   1.721   2.367  15.520 -0.8710  0.8013 -0.3508
   6823SM  H11G 8887   1.905   2.353  15.521 -1.8506 -1.7278  1.1755
   6823SM  C12F 8888   1.809   2.550  15.473  0.1931 -0.3911 -0.1622
   6823SM  H12F 8889   1.914   2.587  15.464  0.8675 -1.7668  1.5289
   6823SM  H12G 8890   1.743   2.609  15.540  1.3713 -0.8358  1.4443
   6823SM  C13F 8891   1.746   2.540  15.328 -0.6520 -0.2863 -0.2781
   6823SM  H13F 8892   1.748   2.642  15.284  1.7326 -0.6710 -1.2002
   6823SM  H13G 8893   1.641   2.511  15.351 -0.7523  1.5437  1.8832
   6823SM  C14F 8894   1.815   2.445  15.226  1.1180 -0.4206 -0.2634
   6823SM  H14F 8895   1.758   2.442  15.131  0.1042 -0.7567  0.3388
   6823SM  H14G 8896   1.821   2.338  15.255  1.4937 -0.4638 -0.5012
   6823SM  C15F 8897   1.963   2.491  15.208 -0.4064  0.0247  0.2396
   6823SM  H15F 8898   2.022   2.459  15.296 -0.4915 -1.2628 -0.1637
   6823SM  H15G 8899   1.970   2.602  15.205 -1.1922  0.0773 -2.4277
   6823SM  C16F 8900   2.028   2.439  15.076 -0.1721  0.1477 -0.8199
   6823SM  H16F 8901   2.002   2.331  15.078  0.7163 -0.0681  1.2947
   6823SM  H16G 8902   2.138   2.449  15.093 -0.1860  1.4892 -1.3960
   6823SM  C17F 8903   1.995   2.520  14.950  0.4751  0.4943  0.4733
   6823SM  H17F 8904   2.029   2.620  14.987 -0.5299  0.1743  2.4021
   6823SM  H17G 8905   1.886   2.521  14.933  0.6079  2.8450 -0.7331
   6823SM  C18F 8906   2.058   2.490  14.814 -0.2872 -0.0197  0.3862
   6823SM  H18F 8907   2.168   2.476  14.826 -0.1237  1.6387  1.1824
   6823SM  H18G 8908   2.038   2.579  14.751  3.0844  1.8631  1.6906
   6823SM  C19F 8909   1.996   2.372  14.747 -0.7200  0.6323 -0.3295
   6823SM  H19F 8910   2.008   2.286  14.817  1.4604  1.4096  0.3152
   6823SM  H19G 8911   2.056   2.348  14.657  1.8215 -0.7576  1.6086
   6823SM  C20F 8912   1.852   2.382  14.698 -0.0270 -0.4792  0.1517
   6823SM  H20F 8913   1.837   2.482  14.654 -0.7018 -0.2448  0.8861
   6823SM  H20G 8914   1.783   2.386  14.785  0.2714 -1.1314  0.4253
   6823SM  C21F 8915   1.805   2.270  14.593  0.1554 -0.5618  0.3970
   6823SM  H21F 8916   1.784   2.170  14.635 -0.1020 -1.0703 -0.8812
   6823SM  H21G 8917   1.891   2.268  14.522  0.0182  2.7409 -0.0092
   6823SM  C22F 8918   1.683   2.322  14.529  0.8325  0.5419  0.7971
   6823SM  H22F 8919   1.699   2.430  14.505  0.5201  0.5100  0.4464
   6823SM  H22G 8920   1.599   2.315  14.601  0.5255 -1.6377  0.2971
   6823SM  C23F 8921   1.660   2.235  14.408 -0.1800 -0.9834 -0.0571
   6823SM  H23F 8922   1.636   2.129  14.433  1.8675 -1.8141 -1.3864
   6823SM  H23G 8923   1.749   2.232  14.343 -0.3002  1.8301 -0.4683
   6823SM  H23H 8924   1.575   2.270  14.346  1.2592  0.7713 -1.1202
   6923SM     N 8925   4.393   1.364  16.921 -0.3967  0.4583 -0.2200
   6923SM   C15 8926   4.255   1.331  16.973 -0.8275  0.4724  0.7242
   6923SM  H15A 8927   4.239   1.413  17.042  0.8776  1.6847 -0.2540
   6923SM  H15B 8928   4.252   1.235  17.024 -1.0184 -0.5233 -1.0762
   6923SM  H15C 8929   4.190   1.330  16.887 -0.6587  0.5633  0.5959
   6923SM   C14 8930   4.499   1.358  17.024 -0.3307  0.3257 -0.2028
   6923SM  H14A 8931   4.484   1.267  17.080  0.3527  0.3986  0.0973
   6923SM  H14B 8932   4.479   1.442  17.090 -0.4517  0.3803 -0.3071
   6923SM  H14C 8933   4.603   1.368  17.000 -0.1689  0.6602  0.5957
   6923SM   C13 8934   4.425   1.261  16.819 -0.4537  0.0486  0.1631
   6923SM  H13A 8935   4.421   1.168  16.873  1.8683  0.5321  1.3075
   6923SM  H13B 8936   4.527   1.277  16.787  0.1572  0.3099  2.1277
   6923SM  H13C 8937   4.358   1.263  16.734 -1.1856  0.8733  0.7492
   6923SM   C12 8938   4.394   1.505  16.866  0.1711 -0.2031  0.4342
   6923SM  H12A 8939   4.312   1.517  16.796  1.8622 -0.8159 -1.7707
   6923SM  H12B 8940   4.492   1.520  16.823  1.1046 -1.8090  1.8704
   6923SM   C11 8941   4.370   1.631  16.962 -0.1351 -0.2359 -0.4069
   6923SM  H11A 8942   4.369   1.725  16.904 -2.1706 -1.1948 -2.0336
   6923SM  H11B 8943   4.462   1.644  17.023  0.5970 -1.0845 -1.2994
   6923SM     P 8944   4.107   1.649  16.984  0.1267  0.2497 -0.0097
   6923SM   O13 8945   4.000   1.579  17.059 -0.7762 -0.8035 -0.0809
   6923SM   O14 8946   4.098   1.793  16.985  0.0968  0.0352  0.1969
   6923SM   O11 8947   4.101   1.600  16.835  0.1625 -0.5211 -0.3422
   6923SM   O12 8948   4.253   1.608  17.040 -0.0549 -0.8870  0.0971
   6923SM   C1S 8949   3.984   1.573  16.754  0.1739  0.0035 -0.6778
   6923SM   H1S 8950   3.896   1.584  16.821  1.8041  4.0172  1.1386
   6923SM   H1T 8951   3.993   1.469  16.718 -0.3218  0.0025 -0.8066
   6923SM    NF 8952   3.858   1.660  16.552 -0.0113 -0.1035  0.2406
   6923SM   HNF 8953   3.855   1.639  16.455 -0.9671  0.5841  0.1062
   6923SM   C2S 8954   3.985   1.662  16.627  0.7364 -0.6840 -0.0600
   6923SM   H2S 8955   3.998   1.765  16.667 -1.6564 -0.3151 -0.0963
   6923SM   C3S 8956   4.110   1.645  16.533  0.7511 -0.8965 -0.0801
   6923SM   H3S 8957   4.097   1.550  16.477 -1.0176  0.3913 -1.9863
   6923SM    O3 8958   4.229   1.635  16.608 -0.3855  1.1267  0.3356
   6923SM   HO3 8959   4.190   1.635  16.696 -3.0718  4.9697 -0.5877
   6923SM   C4S 8960   4.122   1.748  16.424 -0.9759  1.0635 -0.5595
   6923SM   H4S 8961   4.063   1.722  16.335 -1.7403 -1.5072  0.6009
   6923SM   C5S 8962   4.190   1.869  16.431 -0.1503 -0.4425 -0.0950
   6923SM   H5S 8963   4.241   1.891  16.526 -0.1618 -2.0491  0.3131
   6923SM   C6S 8964   4.198   1.967  16.322 -0.0078 -0.3294 -0.3194
   6923SM   H6S 8965   4.303   2.000  16.309  0.4612 -1.3498  0.7171
   6923SM   H6T 8966   4.127   2.048  16.348  2.1909  1.1065  1.5656
   6923SM   C7S 8967   4.147   1.916  16.187  0.3624  0.5900 -0.3554
   6923SM   H7S 8968   4.038   1.895  16.195  0.0928  2.4495  2.1031
   6923SM   H7T 8969   4.199   1.819  16.173 -0.6876 -0.1304  0.4963
   6923SM   C8S 8970   4.179   2.004  16.071 -0.4775 -0.5595  0.4295
   6923SM   H8S 8971   4.282   2.045  16.068 -0.7728  0.1566 -0.3821
   6923SM   H8T 8972   4.111   2.092  16.067 -0.7653 -0.8058 -2.7911
   6923SM   C9S 8973   4.150   1.933  15.933  0.5176 -0.1068 -0.0170
   6923SM   H9S 8974   4.046   1.897  15.917  0.6583 -0.8073  0.5973
   6923SM   H9T 8975   4.211   1.840  15.933  2.1630  0.9219  0.8361
   6923SM  C10S 8976   4.202   2.014  15.813 -0.2525 -0.4764 -0.4453
   6923SM  H10S 8977   4.311   2.035  15.825 -0.4986  0.6416  0.0075
   6923SM  H10T 8978   4.162   2.118  15.818  4.0114  1.3427  0.5350
   6923SM  C11S 8979   4.171   1.958  15.676 -0.3820  0.7483 -0.8448
   6923SM  H11S 8980   4.060   1.950  15.667 -0.4173 -1.1741  0.7128
   6923SM  H11T 8981   4.201   1.853  15.658 -0.4929  1.2829 -5.1400
   6923SM  C12S 8982   4.227   2.049  15.562  0.4683 -0.1885 -0.6754
   6923SM  H12S 8983   4.335   2.075  15.574 -0.1945  2.0809  1.0824
   6923SM  H12T 8984   4.183   2.151  15.568  0.9929  0.0543 -0.8030
   6923SM  C13S 8985   4.188   1.998  15.423  0.3905 -0.1723 -0.1093
   6923SM  H13S 8986   4.088   1.952  15.434  0.1631  0.5387  0.9396
   6923SM  H13T 8987   4.265   1.929  15.383 -0.9056 -1.3628 -0.6181
   6923SM  C14S 8988   4.151   2.122  15.326  0.3372  0.2552 -0.0159
   6923SM  H14S 8989   4.226   2.204  15.327  0.2902  0.3583  2.6875
   6923SM  H14T 8990   4.054   2.169  15.354  0.2468 -0.7419  1.4702
   6923SM  C15S 8991   4.126   2.067  15.186  0.1882  0.1647  0.2033
   6923SM  H15S 8992   4.047   1.989  15.181  1.2621 -0.9307 -0.2242
   6923SM  H15T 8993   4.219   2.024  15.143  0.2530  1.4586 -1.0420
   6923SM  C16S 8994   4.067   2.176  15.088 -0.0428 -0.5429 -0.3535
   6923SM  H16S 8995   4.137   2.262  15.089 -0.5502 -0.0710  2.1571
   6923SM  H16T 8996   3.974   2.217  15.133  0.2782  0.4391 -0.5588
   6923SM  C17S 8997   4.040   2.128  14.950 -0.1337 -0.0745  0.4501
   6923SM  H17S 8998   3.955   2.057  14.960 -0.1192 -0.3092 -0.9263
   6923SM  H17T 8999   4.138   2.085  14.920  0.9513  2.1411  0.6037
   6923SM  C18S 9000   3.998   2.236  14.846  0.4911 -0.0790  0.1466
   6923SM  H18S 9001   4.082   2.304  14.823 -0.1232  0.5348 -0.3471
   6923SM  H18T 9002   3.906   2.289  14.878 -0.7014 -2.1939  0.4322
   6923SM  H18U 9003   3.982   2.189  14.747  2.1810 -0.8034  0.1910
   6923SM   C1F 9004   3.738   1.677  16.609  0.6201  0.3872 -0.2103
   6923SM    OF 9005   3.723   1.740  16.709  0.1222 -0.6068  0.0437
   6923SM   C2F 9006   3.624   1.612  16.543 -0.1075 -0.1381 -0.0628
   6923SM   H2F 9007   3.567   1.561  16.624 -0.5784  1.3869  0.6030
   6923SM   H2G 9008   3.663   1.545  16.464 -0.5759  0.3911 -0.7572
   6923SM   C3F 9009   3.518   1.705  16.476  0.0397 -0.2700 -0.1913
   6923SM   H3F 9010   3.576   1.759  16.398  0.7359  0.3546  0.7533
   6923SM   H3G 9011   3.475   1.780  16.546  0.6925  1.2234 -1.3236
   6923SM   C4F 9012   3.405   1.624  16.403  0.3189 -0.5702 -0.2849
   6923SM   H4F 9013   3.347   1.569  16.480 -1.3053  2.9380  1.2566
   6923SM   H4G 9014   3.460   1.556  16.335  1.5054  0.9738 -0.9444
   6923SM   C5F 9015   3.316   1.710  16.311  0.0517  0.1886  0.1821
   6923SM   H5F 9016   3.383   1.764  16.241  0.6663 -1.4250 -0.5070
   6923SM   H5G 9017   3.266   1.793  16.366 -0.6547  1.4695 -2.2004
   6923SM   C6F 9018   3.225   1.616  16.233  0.6274  0.4318  0.2613
   6923SM   H6F 9019   3.142   1.679  16.194 -1.1171 -1.5917  0.4727
   6923SM   H6G 9020   3.167   1.549  16.301  0.7489  1.3177  1.2713
   6923SM   C7F 9021   3.281   1.535  16.114 -0.6879 -0.7048 -0.8753
   6923SM   H7F 9022   3.201   1.464  16.084 -1.9896 -0.6434  2.1473
   6923SM   H7G 9023   3.374   1.480  16.142 -0.2586 -0.3565 -1.5735
   6923SM   C8F 9024   3.315   1.629  15.993 -0.5160 -0.4113  0.2254
   6923SM   H8F 9025   3.426   1.639  15.990 -0.6831  1.7482 -0.3147
   6923SM   H8G 9026   3.285   1.734  16.011  0.2791  0.0075 -0.7873
   6923SM   C9F 9027   3.248   1.581  15.862  0.0221  0.2166 -0.1037
   6923SM   H9F 9028   3.137   1.586  15.867 -0.1220  0.4992 -2.3899
   6923SM   H9G 9029   3.275   1.474  15.844 -0.9519  0.1680 -1.4522
   6923SM  C10F 9030   3.305   1.638  15.737 -0.4257  0.4843 -0.1568
   6923SM  H10F 9031   3.416   1.649  15.745 -0.2116 -1.6232  0.4449
   6923SM  H10G 9032   3.273   1.744  15.729  0.2015  0.8828  1.9146
   6923SM  C11F 9033   3.276   1.568  15.605 -0.2469  0.5611 -0.2294
   6923SM  H11F 9034   3.169   1.585  15.581 -0.1605  1.6791  0.1294
   6923SM  H11G 9035   3.286   1.459  15.626  0.9847  1.2626  3.6475
   6923SM  C12F 9036   3.377   1.614  15.503 -0.2025  0.3694 -0.1897
   6923SM  H12F 9037   3.478   1.569  15.519  0.3083  1.3672 -0.5514
   6923SM  H12G 9038   3.375   1.725  15.503  0.7893  0.3988  0.1621
   6923SM  C13F 9039   3.328   1.579  15.358  0.1221  0.1952  0.4815
   6923SM  H13F 9040   3.221   1.610  15.361  0.3685  1.1340 -0.1996
   6923SM  H13G 9041   3.330   1.468  15.356 -1.9042  0.1270 -2.1076
   6923SM  C14F 9042   3.412   1.639  15.247  0.4984  0.0510 -0.0423
   6923SM  H14F 9043   3.506   1.579  15.241  0.2585 -0.2414 -0.9342
   6923SM  H14G 9044   3.427   1.745  15.274  0.0902 -0.0720  0.7178
   6923SM  C15F 9045   3.344   1.634  15.114 -0.1678  0.3077  0.2174
   6923SM  H15F 9046   3.259   1.705  15.115 -0.9576 -0.6192  0.6843
   6923SM  H15G 9047   3.302   1.533  15.097 -2.0983  0.9500  0.9206
   6923SM  C16F 9048   3.450   1.677  15.008 -0.1308 -0.8298 -0.1465
   6923SM  H16F 9049   3.545   1.621  14.998 -0.6485 -1.6905 -0.2882
   6923SM  H16G 9050   3.476   1.783  15.031 -0.3677 -0.6636 -0.6277
   6923SM  C17F 9051   3.375   1.684  14.871 -0.1158 -0.8082 -0.1248
   6923SM  H17F 9052   3.288   1.753  14.875  0.4732 -0.0925  0.5161
   6923SM  H17G 9053   3.336   1.582  14.852  1.8074 -1.8550  1.2215
   6923SM  C18F 9054   3.464   1.717  14.749  0.2131 -0.1301 -0.7478
   6923SM  H18F 9055   3.420   1.695  14.649  0.8434  0.6332 -1.2066
   6923SM  H18G 9056   3.546   1.642  14.759  0.2020 -0.0858 -0.3161
   6923SM  C19F 9057   3.520   1.856  14.745 -0.2104  0.0577  0.0899
   6923SM  H19F 9058   3.604   1.861  14.672 -0.9836  0.5117 -0.7805
   6923SM  H19G 9059   3.556   1.889  14.845  0.0737 -0.8250  0.2943
   6923SM  C20F 9060   3.419   1.948  14.683  0.1660  0.0130  0.7970
   6923SM  H20F 9061   3.347   1.985  14.760 -0.5096  0.0480  0.1522
   6923SM  H20G 9062   3.372   1.909  14.591  0.3526  2.0255 -0.2044
   6923SM  C21F 9063   3.488   2.081  14.623  0.1556  0.0934  0.0153
   6923SM  H21F 9064   3.565   2.040  14.553  0.8832 -1.6801  1.7609
   6923SM  H21G 9065   3.536   2.128  14.712 -0.9560  1.4015 -0.0509
   6923SM  C22F 9066   3.391   2.177  14.550 -0.4729  0.2641  0.1994
   6923SM  H22F 9067   3.314   2.207  14.624  0.7253  1.2256  1.0956
   6923SM  H22G 9068   3.344   2.132  14.460  3.2605 -1.7487 -0.9335
   6923SM  C23F 9069   3.465   2.302  14.509 -0.7072 -0.4650 -0.0817
   6923SM  H23F 9070   3.407   2.396  14.495 -2.4983 -1.6140 -0.7361
   6923SM  H23G 9071   3.515   2.286  14.411 -0.3396  0.6407 -0.0828
   6923SM  H23H 9072   3.550   2.323  14.577 -0.3592 -0.1258 -0.6113
   7023SM     N 9073   2.361   1.808  17.051  0.0359  0.0706 -0.2671
   7023SM   C15 9074   2.382   1.835  17.193  0.2337 -0.4184 -0.1927
   7023SM  H15A 9075   2.295   1.799  17.246  0.4259 -0.1424  0.3261
   7023SM  H15B 9076   2.402   1.939  17.215  0.1851 -0.2415 -0.9822
   7023SM  H15C 9077   2.462   1.779  17.240 -0.3697 -1.8767 -0.8326
   7023SM   C14 9078   2.315   1.663  17.033  0.1844  0.5339 -0.0514
   7023SM  H14A 9079   2.278   1.636  16.935 -1.5659  0.2290  0.6557
   7023SM  H14B 9080   2.244   1.629  17.107  1.8126 -0.5941  1.0543
   7023SM  H14C 9081   2.399   1.597  17.045 -0.7028 -0.4003  1.3440
   7023SM   C13 9082   2.247   1.897  17.008 -0.6755 -0.5365 -0.8372
   7023SM  H13A 9083   2.225   1.874  16.905 -0.8481 -0.0342 -0.9145
   7023SM  H13B 9084   2.256   2.003  17.022 -0.5246 -0.6913  0.3504
   7023SM  H13C 9085   2.163   1.866  17.069 -0.2141 -0.2377 -0.0361
   7023SM   C12 9086   2.486   1.835  16.962  0.3798  0.0226 -0.5490
   7023SM  H12A 9087   2.505   1.940  16.942  2.9016 -0.2624  0.0264
   7023SM  H12B 9088   2.462   1.799  16.864 -1.3673 -1.2640  0.2971
   7023SM   C11 9089   2.620   1.765  17.015 -0.1581 -0.3601  0.5561
   7023SM  H11A 9090   2.637   1.793  17.121  0.4186  1.6529 -0.0353
   7023SM  H11B 9091   2.705   1.817  16.967  0.7464  0.6375  3.1093
   7023SM     P 9092   2.757   1.545  17.009 -0.2407  0.2571 -0.1889
   7023SM   O13 9093   2.812   1.570  17.146 -0.2952 -0.0170 -0.2118
   7023SM   O14 9094   2.728   1.401  16.977 -0.0956 -0.0852  0.3100
   7023SM   O11 9095   2.852   1.594  16.897  0.2101 -0.1282  0.0668
   7023SM   O12 9096   2.625   1.629  16.986  0.2246 -0.3076 -0.4166
   7023SM   C1S 9097   2.788   1.613  16.766  0.0377  0.0166 -0.2968
   7023SM   H1S 9098   2.769   1.722  16.761 -0.1928 -0.0165 -0.1516
   7023SM   H1T 9099   2.692   1.560  16.749 -0.5267 -0.3775  3.2646
   7023SM    NF 9100   2.807   1.593  16.525 -0.1126  0.0857 -0.1496
   7023SM   HNF 9101   2.750   1.527  16.476  0.3714 -0.3135 -0.1851
   7023SM   C2S 9102   2.875   1.558  16.649  0.5841  0.5945 -0.0872
   7023SM   H2S 9103   2.974   1.609  16.648  1.6944 -1.4142 -1.2498
   7023SM   C3S 9104   2.889   1.404  16.669 -0.4830 -0.4686  0.3830
   7023SM   H3S 9105   2.790   1.353  16.679 -0.6637 -0.0631  0.6753
   7023SM    O3 9106   2.966   1.361  16.779  0.7697 -0.5177 -0.4374
   7023SM   HO3 9107   2.957   1.434  16.841  2.6960  0.7687 -1.5568
   7023SM   C4S 9108   2.953   1.334  16.556 -0.0640 -0.2015 -0.1260
   7023SM   H4S 9109   3.058   1.356  16.530  0.3211 -2.1696 -0.3932
   7023SM   C5S 9110   2.903   1.245  16.469  0.9520 -0.7989 -0.3116
   7023SM   H5S 9111   2.796   1.218  16.468 -0.2932  3.4003 -0.4871
   7023SM   C6S 9112   2.979   1.199  16.347 -0.2714 -0.4263  0.5210
   7023SM   H6S 9113   2.963   1.089  16.344  1.0675 -0.7009  1.8375
   7023SM   H6T 9114   3.088   1.220  16.357 -0.5877  0.8881  1.5581
   7023SM   C7S 9115   2.936   1.265  16.215 -0.4699 -0.6043  0.1475
   7023SM   H7S 9116   2.951   1.375  16.224  0.4724 -0.9055  3.8477
   7023SM   H7T 9117   2.828   1.239  16.213 -0.0684 -2.3933 -2.4183
   7023SM   C8S 9118   3.006   1.214  16.094 -0.5285 -0.2329 -0.0857
   7023SM   H8S 9119   2.981   1.107  16.081 -2.2666  0.2192 -0.7033
   7023SM   H8T 9120   3.117   1.216  16.095 -0.3558  3.6315 -3.0106
   7023SM   C9S 9121   2.971   1.290  15.961  0.5407  0.5608 -0.4364
   7023SM   H9S 9122   3.006   1.394  15.977 -0.2197  0.6355  0.9014
   7023SM   H9T 9123   2.862   1.283  15.939  0.5119 -0.5867  0.0229
   7023SM  C10S 9124   3.042   1.239  15.843 -1.5919  0.3110  0.7232
   7023SM  H10S 9125   3.017   1.131  15.829 -1.9659  0.5953 -1.0969
   7023SM  H10T 9126   3.152   1.245  15.850 -1.3977  0.5957 -1.6135
   7023SM  C11S 9127   3.004   1.310  15.710 -1.1060 -0.4179  0.2975
   7023SM  H11S 9128   3.058   1.406  15.707  1.5311 -1.8426 -1.4710
   7023SM  H11T 9129   2.895   1.328  15.699 -1.2718 -0.6032  1.4862
   7023SM  C12S 9130   3.053   1.248  15.574  0.1436 -0.7578  0.4593
   7023SM  H12S 9131   3.024   1.143  15.556 -0.7132 -0.1710 -1.8605
   7023SM  H12T 9132   3.164   1.242  15.574  0.2977  1.2693 -0.9699
   7023SM  C13S 9133   3.003   1.336  15.456 -0.3501  0.6936 -0.6046
   7023SM  H13S 9134   3.047   1.437  15.465 -1.4621  1.0184  1.8470
   7023SM  H13T 9135   2.893   1.354  15.460 -0.0675  2.2956  1.6658
   7023SM  C14S 9136   3.028   1.269  15.317 -0.3603  0.2588  0.4698
   7023SM  H14S 9137   2.981   1.170  15.298  1.9787 -1.3783  2.5853
   7023SM  H14T 9138   3.136   1.243  15.315 -0.4739 -0.4548  2.2931
   7023SM  C15S 9139   2.998   1.376  15.211 -0.2675  0.2963  0.2513
   7023SM  H15S 9140   3.038   1.473  15.248 -0.9157  0.2553  1.0910
   7023SM  H15T 9141   2.889   1.395  15.206 -0.6135 -1.4859  0.3864
   7023SM  C16S 9142   3.052   1.353  15.069 -0.0528  0.8080 -0.2874
   7023SM  H16S 9143   3.159   1.328  15.076 -0.6110 -1.4790  0.8039
   7023SM  H16T 9144   3.025   1.445  15.011 -1.0588  1.4646  1.1658
   7023SM  C17S 9145   2.977   1.238  14.997  0.4377  0.6189 -0.4594
   7023SM  H17S 9146   2.867   1.250  15.001  0.4821  0.8392  0.2767
   7023SM  H17T 9147   2.986   1.147  15.060 -1.1413  0.8885  0.1819
   7023SM  C18S 9148   3.021   1.194  14.856 -0.5428  0.0190 -0.8273
   7023SM  H18S 9149   2.988   1.090  14.831  1.9772 -1.1035  0.1759
   7023SM  H18T 9150   3.131   1.181  14.853 -0.6857 -1.3785 -0.7042
   7023SM  H18U 9151   2.984   1.264  14.778  0.8987  0.8613 -0.7841
   7023SM   C1F 9152   2.821   1.716  16.474 -0.4627  0.5214 -0.3948
   7023SM    OF 9153   2.882   1.803  16.536  0.5083  0.1206  0.3199
   7023SM   C2F 9154   2.761   1.735  16.343  0.2887  0.5186  0.2569
   7023SM   H2F 9155   2.694   1.823  16.354 -2.2703 -1.0928 -1.3599
   7023SM   H2G 9156   2.692   1.651  16.320 -1.4660  1.8487  0.4271
   7023SM   C3F 9157   2.864   1.760  16.237 -0.1826  0.0729 -0.4099
   7023SM   H3F 9158   2.928   1.669  16.235  0.1988  0.3485 -0.8027
   7023SM   H3G 9159   2.927   1.848  16.260 -0.6003 -0.1000  1.5971
   7023SM   C4F 9160   2.808   1.768  16.094 -0.2312 -0.0673  0.0880
   7023SM   H4F 9161   2.745   1.859  16.089 -1.4534 -0.8000  1.1487
   7023SM   H4G 9162   2.739   1.681  16.089 -0.0920 -0.3942  2.4836
   7023SM   C5F 9163   2.915   1.763  15.982 -0.2626 -0.3517 -1.0101
   7023SM   H5F 9164   2.980   1.676  16.006 -1.1654 -0.8421 -0.3074
   7023SM   H5G 9165   3.000   1.835  15.991  1.5048 -2.4185 -0.1895
   7023SM   C6F 9166   2.850   1.749  15.847  0.1429 -0.6221 -0.5408
   7023SM   H6F 9167   2.765   1.819  15.849 -2.0723 -3.1429  1.0906
   7023SM   H6G 9168   2.811   1.645  15.837  2.4573 -1.6247  0.0065
   7023SM   C7F 9169   2.935   1.787  15.725  0.7123  0.3631  0.3681
   7023SM   H7F 9170   3.017   1.713  15.716 -1.0770 -1.5080 -1.9487
   7023SM   H7G 9171   2.970   1.890  15.747  0.8087  0.6730 -1.1416
   7023SM   C8F 9172   2.852   1.779  15.602 -0.4181 -0.3870  1.1554
   7023SM   H8F 9173   2.773   1.857  15.600 -0.6308 -0.5642 -2.1491
   7023SM   H8G 9174   2.802   1.681  15.585  0.1538 -0.3965 -0.7700
   7023SM   C9F 9175   2.934   1.777  15.471 -0.1335 -0.8408 -0.2259
   7023SM   H9F 9176   3.025   1.714  15.467  0.3802 -0.2522  1.5811
   7023SM   H9G 9177   2.971   1.881  15.453 -2.1613 -0.0008  0.1174
   7023SM  C10F 9178   2.853   1.748  15.344 -0.6643 -0.4480  0.4647
   7023SM  H10F 9179   2.768   1.818  15.331 -0.3149 -0.0046  0.5566
   7023SM  H10G 9180   2.813   1.645  15.337 -0.0878 -0.5524 -2.2691
   7023SM  C11F 9181   2.944   1.777  15.221 -0.0136 -0.1125  0.6865
   7023SM  H11F 9182   3.035   1.714  15.218 -1.7790 -2.8227  0.6310
   7023SM  H11G 9183   2.976   1.883  15.227  2.9658 -0.8558 -0.5491
   7023SM  C12F 9184   2.862   1.734  15.097  0.3288  0.2962  0.3122
   7023SM  H12F 9185   2.764   1.785  15.087  0.9090  1.3159 -0.2479
   7023SM  H12G 9186   2.833   1.628  15.114 -2.0149  0.5095 -1.6944
   7023SM  C13F 9187   2.944   1.744  14.965 -0.0269  0.3183  0.0328
   7023SM  H13F 9188   3.038   1.691  14.995 -0.8928 -0.1321  2.1791
   7023SM  H13G 9189   2.960   1.853  14.951  1.3767  0.3612  1.6471
   7023SM  C14F 9190   2.873   1.672  14.852  0.1278 -0.3062 -0.3462
   7023SM  H14F 9191   2.770   1.704  14.823 -0.0521 -0.8433 -0.3223
   7023SM  H14G 9192   2.861   1.566  14.885  2.1829 -0.0735  1.2771
   7023SM  C15F 9193   2.945   1.680  14.717  0.7317 -0.1639  0.2937
   7023SM  H15F 9194   2.887   1.613  14.650  0.3730  1.1590 -0.7723
   7023SM  H15G 9195   3.053   1.653  14.716  0.3246 -1.9245 -0.8832
   7023SM  C16F 9196   2.927   1.819  14.661 -0.1022 -0.0069  0.5640
   7023SM  H16F 9197   2.965   1.895  14.733  0.8612  0.0011  0.0543
   7023SM  H16G 9198   2.818   1.820  14.639 -0.1056 -0.6245  0.5198
   7023SM  C17F 9199   3.005   1.854  14.533 -0.4332 -0.0375 -0.1391
   7023SM  H17F 9200   2.983   1.771  14.463  1.1287 -0.6252  0.0099
   7023SM  H17G 9201   3.114   1.848  14.556 -0.0751  0.2551 -1.6818
   7023SM  C18F 9202   2.974   1.993  14.486 -0.2418  0.1862 -0.2450
   7023SM  H18F 9203   2.992   2.069  14.566 -0.0913  1.3094 -1.3068
   7023SM  H18G 9204   2.866   1.992  14.464 -0.1298  0.4427 -0.8021
   7023SM  C19F 9205   3.052   2.042  14.359 -0.0357 -0.4607 -0.2296
   7023SM  H19F 9206   3.018   1.975  14.277 -1.5721 -0.7298  0.5896
   7023SM  H19G 9207   3.160   2.024  14.376 -0.3773 -1.6757  0.7464
   7023SM  C20F 9208   3.017   2.187  14.327 -0.3268  0.0202 -0.4833
   7023SM  H20F 9209   3.051   2.249  14.412  0.0587 -0.5986 -0.1788
   7023SM  H20G 9210   2.906   2.191  14.325 -0.3177  0.1694 -1.3415
   7023SM  C21F 9211   3.095   2.230  14.204 -0.5153  0.0621 -0.2185
   7023SM  H21F 9212   3.068   2.170  14.114 -1.0716  0.2164 -0.1558
   7023SM  H21G 9213   3.202   2.202  14.219 -1.2343 -2.8147  0.1447
   7023SM  C22F 9214   3.107   2.381  14.180  0.6678 -0.2773  0.3470
   7023SM  H22F 9215   3.003   2.411  14.154  1.1712  0.9823 -0.2472
   7023SM  H22G 9216   3.174   2.395  14.092  0.9297  0.6009  0.6848
   7023SM  C23F 9217   3.171   2.456  14.295  0.5194  0.1574  0.0366
   7023SM  H23F 9218   3.224   2.384  14.361  0.9064  1.5238  1.2733
   7023SM  H23G 9219   3.097   2.492  14.369  0.4141 -1.5867  0.8477
   7023SM  H23H 9220   3.250   2.530  14.269  0.4140 -0.0256 -0.8297
   7123SM     N 9221   2.723   1.090  17.208 -0.2290  0.2648 -0.0301
   7123SM   C15 9222   2.802   1.211  17.209  0.4320 -0.2986  0.2860
   7123SM  H15A 9223   2.895   1.198  17.156 -1.0898 -3.1030 -1.9756
   7123SM  H15B 9224   2.808   1.242  17.312 -0.4498  2.4381 -0.3936
   7123SM  H15C 9225   2.759   1.290  17.150 -0.1164  0.2975  1.4479
   7123SM   C14 9226   2.791   0.970  17.286 -0.3739  0.7801  0.6140
   7123SM  H14A 9227   2.772   0.981  17.391  1.4069  0.3147  1.0122
   7123SM  H14B 9228   2.898   0.968  17.273 -0.5472 -0.1298 -1.0421
   7123SM  H14C 9229   2.752   0.878  17.245 -0.2889  1.3655 -0.8341
   7123SM   C13 9230   2.599   1.108  17.285 -0.5169  0.1352  0.1728
   7123SM  H13A 9231   2.621   1.150  17.382  0.0434 -1.1540  0.6304
   7123SM  H13B 9232   2.551   1.014  17.309 -3.4431  0.9940 -1.7874
   7123SM  H13C 9233   2.526   1.166  17.230 -0.0288 -0.0394 -0.6786
   7123SM   C12 9234   2.700   1.045  17.063  0.8246  0.4895 -0.3453
   7123SM  H12A 9235   2.637   1.123  17.022 -2.2938 -0.8502  1.5206
   7123SM  H12B 9236   2.648   0.950  17.068  0.3992  0.6421 -1.4852
   7123SM   C11 9237   2.823   1.026  16.970  0.0624 -0.2382 -0.4221
   7123SM  H11A 9238   2.893   1.112  16.978  2.0387 -1.6969 -1.1112
   7123SM  H11B 9239   2.791   1.025  16.864 -0.9893  0.9822 -0.1402
   7123SM     P 9240   2.824   0.766  16.971 -0.5357  0.0781  0.1348
   7123SM   O13 9241   2.924   0.662  16.998  0.0780  0.4188  0.4075
   7123SM   O14 9242   2.703   0.762  17.057  0.2237 -0.2452 -0.3120
   7123SM   O11 9243   2.784   0.758  16.816 -0.0032 -0.7130 -0.8102
   7123SM   O12 9244   2.892   0.906  17.007 -0.0218  0.4707  0.2875
   7123SM   C1S 9245   2.891   0.706  16.732  1.1774  0.1827 -0.1060
   7123SM   H1S 9246   2.909   0.598  16.754 -0.1938 -0.1646 -0.5513
   7123SM   H1T 9247   2.984   0.766  16.742  1.8435 -0.7747 -0.4144
   7123SM    NF 9248   2.922   0.634  16.498 -0.2981 -0.1234 -0.0854
   7123SM   HNF 9249   2.999   0.678  16.452 -1.8047  2.0651 -0.6678
   7123SM   C2S 9250   2.840   0.714  16.584  0.2319  0.1557  0.5999
   7123SM   H2S 9251   2.738   0.669  16.589 -0.5342  1.4692 -1.4032
   7123SM   C3S 9252   2.814   0.862  16.535  0.0668  0.3209  0.4390
   7123SM   H3S 9253   2.902   0.929  16.523 -2.1093  2.9027 -2.9861
   7123SM    O3 9254   2.732   0.932  16.626  0.0660 -0.4230 -0.0115
   7123SM   HO3 9255   2.721   0.880  16.706 -1.7597  1.4076  1.0117
   7123SM   C4S 9256   2.759   0.868  16.388 -0.7302 -0.0816  0.0027
   7123SM   H4S 9257   2.836   0.848  16.312  0.1513  0.6855  0.6643
   7123SM   C5S 9258   2.633   0.904  16.349  0.3146 -0.5109  0.4830
   7123SM   H5S 9259   2.564   0.924  16.433 -1.4595  1.9508 -1.4344
   7123SM   C6S 9260   2.574   0.916  16.214 -0.5707 -0.1724  0.5787
   7123SM   H6S 9261   2.520   1.014  16.219 -0.2529 -0.0120  0.8825
   7123SM   H6T 9262   2.496   0.839  16.199  1.2817 -2.0813  0.3865
   7123SM   C7S 9263   2.673   0.911  16.100  0.5972 -0.5694  1.0958
   7123SM   H7S 9264   2.725   0.814  16.085 -0.8829 -1.3821  1.1335
   7123SM   H7T 9265   2.748   0.993  16.110 -1.4880  1.5576  0.3696
   7123SM   C8S 9266   2.608   0.945  15.960 -0.4470  0.0091 -0.5103
   7123SM   H8S 9267   2.580   1.053  15.961 -0.1467  0.0925 -0.7615
   7123SM   H8T 9268   2.531   0.866  15.944  0.0887 -1.2296  2.4748
   7123SM   C9S 9269   2.712   0.919  15.848 -0.1557 -0.1143 -0.5824
   7123SM   H9S 9270   2.741   0.812  15.849  0.3057  0.0049  0.3792
   7123SM   H9T 9271   2.805   0.977  15.868 -0.5589  0.0007  1.0763
   7123SM  C10S 9272   2.654   0.970  15.716 -0.5221  0.0422  0.1224
   7123SM  H10S 9273   2.608   1.071  15.723 -1.8631 -0.5990  0.9125
   7123SM  H10T 9274   2.571   0.900  15.692 -1.1184  1.3591 -1.9189
   7123SM  C11S 9275   2.759   0.970  15.598 -0.2002  0.0211  0.3047
   7123SM  H11S 9276   2.839   0.897  15.623  0.3443  0.6003  0.3061
   7123SM  H11T 9277   2.808   1.070  15.604  1.0946 -0.6242  0.9172
   7123SM  C12S 9278   2.701   0.952  15.457  0.0750 -0.6490 -0.2415
   7123SM  H12S 9279   2.645   1.043  15.430  2.2677  1.0568  0.6736
   7123SM  H12T 9280   2.628   0.868  15.454  0.1393 -0.8638  2.2210
   7123SM  C13S 9281   2.798   0.913  15.344 -0.3984 -0.7239  0.3044
   7123SM  H13S 9282   2.817   0.804  15.338  1.5176 -0.3520 -2.9114
   7123SM  H13T 9283   2.895   0.967  15.355 -0.6327 -0.0658 -0.7404
   7123SM  C14S 9284   2.742   0.942  15.205  0.5325  1.1153 -0.4332
   7123SM  H14S 9285   2.785   1.038  15.168  0.5985  1.9494  1.6631
   7123SM  H14T 9286   2.631   0.938  15.212  0.5542 -0.8353 -0.5585
   7123SM  C15S 9287   2.785   0.830  15.105  0.2166  0.2974 -0.1675
   7123SM  H15S 9288   2.786   0.728  15.148  0.4168  0.1228 -0.5854
   7123SM  H15T 9289   2.891   0.849  15.078  0.3107 -0.5734 -0.4238
   7123SM  C16S 9290   2.702   0.831  14.975 -0.0077  0.9787  0.3999
   7123SM  H16S 9291   2.697   0.932  14.928 -1.0393  0.0419 -1.6031
   7123SM  H16T 9292   2.602   0.793  15.003 -0.5427 -0.1208 -2.6329
   7123SM  C17S 9293   2.759   0.741  14.862  0.3685  0.3866 -0.4886
   7123SM  H17S 9294   2.741   0.637  14.897 -1.6800  0.1045 -2.1457
   7123SM  H17T 9295   2.861   0.783  14.853 -0.1472  1.8864  0.4501
   7123SM  C18S 9296   2.683   0.747  14.726 -0.1151 -0.4372 -0.4065
   7123SM  H18S 9297   2.645   0.848  14.702  0.0306 -0.3593 -0.3197
   7123SM  H18T 9298   2.596   0.679  14.734  0.6621 -1.5435 -1.0713
   7123SM  H18U 9299   2.742   0.712  14.639 -3.2867  1.0464 -3.3765
   7123SM   C1F 9300   2.919   0.498  16.500  0.1529  0.2005 -0.2317
   7123SM    OF 9301   2.828   0.449  16.560  0.2456  0.5265 -0.1050
   7123SM   C2F 9302   3.036   0.425  16.429 -0.1721 -0.6071  0.4276
   7123SM   H2F 9303   3.096   0.371  16.505 -0.6159  0.6563  1.7200
   7123SM   H2G 9304   3.102   0.508  16.397 -0.4977 -0.5752 -0.1759
   7123SM   C3F 9305   2.999   0.343  16.304  0.0615  0.0268 -0.6469
   7123SM   H3F 9306   2.933   0.262  16.341  1.5142 -0.8536  0.0926
   7123SM   H3G 9307   3.088   0.289  16.265  0.6783  0.6730 -0.1716
   7123SM   C4F 9308   2.939   0.423  16.189 -0.2451 -0.5243 -0.2704
   7123SM   H4F 9309   3.020   0.495  16.165 -1.8777  0.1137 -4.9611
   7123SM   H4G 9310   2.842   0.470  16.213 -0.3504 -0.5705 -0.5968
   7123SM   C5F 9311   2.927   0.337  16.062 -0.2228  0.8233  0.0435
   7123SM   H5F 9312   2.842   0.266  16.070 -1.0038  1.7189 -0.0519
   7123SM   H5G 9313   3.023   0.288  16.035 -0.2420  0.6684  0.2589
   7123SM   C6F 9314   2.896   0.423  15.928 -0.1229  0.4536 -1.3538
   7123SM   H6F 9315   2.993   0.474  15.908  0.1186  0.7040  0.3117
   7123SM   H6G 9316   2.827   0.506  15.950 -0.2840 -0.2891  1.2482
   7123SM   C7F 9317   2.865   0.328  15.809  0.0186  0.0118 -0.2701
   7123SM   H7F 9318   2.769   0.279  15.835  0.3380  0.1337  1.1829
   7123SM   H7G 9319   2.947   0.253  15.806  0.9541  1.0040 -0.1825
   7123SM   C8F 9320   2.870   0.407  15.676  0.1760  0.8847 -0.0760
   7123SM   H8F 9321   2.966   0.462  15.665 -0.6621  2.8118  1.5882
   7123SM   H8G 9322   2.785   0.474  15.701 -0.6212 -0.5060  1.1089
   7123SM   C9F 9323   2.850   0.321  15.560  0.4076  0.4497  0.3988
   7123SM   H9F 9324   2.754   0.267  15.565  1.8894 -2.5937 -1.2761
   7123SM   H9G 9325   2.927   0.241  15.560 -2.0372 -2.0678 -1.1452
   7123SM  C10F 9326   2.855   0.399  15.426 -1.2721 -0.1680 -0.3984
   7123SM  H10F 9327   2.945   0.464  15.434 -1.8888  0.7108 -0.5296
   7123SM  H10G 9328   2.774   0.472  15.407 -0.9282  0.7246  1.3371
   7123SM  C11F 9329   2.863   0.295  15.301 -0.0387 -0.3546 -0.2556
   7123SM  H11F 9330   2.772   0.232  15.308 -0.5728  0.3432 -0.7365
   7123SM  H11G 9331   2.944   0.221  15.316 -0.2335 -0.2997  1.2433
   7123SM  C12F 9332   2.879   0.364  15.163  0.4484 -0.0299  0.0563
   7123SM  H12F 9333   2.979   0.412  15.156 -0.4421  1.6959 -2.2310
   7123SM  H12G 9334   2.805   0.447  15.164 -0.3226 -0.6920 -0.5846
   7123SM  C13F 9335   2.866   0.277  15.039  0.8236  0.3507  0.0941
   7123SM  H13F 9336   2.759   0.252  15.018  0.8170 -1.2694  1.7362
   7123SM  H13G 9337   2.912   0.177  15.053 -1.0600 -0.6795 -0.6419
   7123SM  C14F 9338   2.922   0.338  14.912  0.7059  0.5821  0.6888
   7123SM  H14F 9339   3.033   0.325  14.910  0.4460 -1.9615  0.1073
   7123SM  H14G 9340   2.897   0.447  14.912  2.7262  1.1012 -0.2884
   7123SM  C15F 9341   2.865   0.270  14.781 -0.2828  0.0937 -0.1643
   7123SM  H15F 9342   2.759   0.253  14.809 -0.9064  2.6499 -0.7600
   7123SM  H15G 9343   2.906   0.170  14.757 -2.0866 -1.6120  3.0611
   7123SM  C16F 9344   2.857   0.368  14.670  0.1900  0.0028 -0.1956
   7123SM  H16F 9345   2.960   0.409  14.665  0.3482 -0.3336  0.2354
   7123SM  H16G 9346   2.785   0.447  14.702 -0.2003 -0.9374  1.3633
   7123SM  C17F 9347   2.819   0.321  14.529  0.3846  0.6202 -0.2394
   7123SM  H17F 9348   2.767   0.224  14.548 -1.6635  1.7131 -0.0552
   7123SM  H17G 9349   2.909   0.288  14.473 -1.0543 -1.6227 -1.3914
   7123SM  C18F 9350   2.740   0.418  14.441 -0.1222 -0.1388  0.5502
   7123SM  H18F 9351   2.651   0.460  14.493 -0.9363  0.1492 -1.0163
   7123SM  H18G 9352   2.696   0.359  14.358  2.8451 -0.6541 -0.7764
   7123SM  C19F 9353   2.828   0.530  14.375  0.1611  0.4287  0.6972
   7123SM  H19F 9354   2.874   0.470  14.294  0.9804  2.2018 -0.2069
   7123SM  H19G 9355   2.903   0.572  14.446 -1.2631  3.0595  0.7875
   7123SM  C20F 9356   2.740   0.641  14.325 -0.0412 -0.0014  0.4395
   7123SM  H20F 9357   2.673   0.684  14.402  0.2185 -0.1353  0.7418
   7123SM  H20G 9358   2.663   0.622  14.248 -0.2626  1.1997  0.3313
   7123SM  C21F 9359   2.823   0.756  14.266  0.6943  0.3402 -0.3322
   7123SM  H21F 9360   2.758   0.816  14.199 -2.3096 -0.1126  1.9736
   7123SM  H21G 9361   2.908   0.710  14.212  1.2850 -1.0791  1.6772
   7123SM  C22F 9362   2.876   0.863  14.368  0.1320 -0.1803  0.2953
   7123SM  H22F 9363   2.926   0.810  14.451 -0.9801  1.3532  2.0211
   7123SM  H22G 9364   2.786   0.912  14.411 -0.6165  0.2936 -1.6944
   7123SM  C23F 9365   2.966   0.978  14.310 -0.1375  0.1153  0.1778
   7123SM  H23F 9366   3.044   0.941  14.240  0.6616  0.3093  0.9458
   7123SM  H23G 9367   3.006   1.049  14.387 -0.4812 -0.6621  1.0879
   7123SM  H23H 9368   2.899   1.042  14.248  1.4173  1.1548 -0.5118
   7223SM     N 9369   5.354   4.344  17.017  0.0337 -0.0095 -0.2200
   7223SM   C15 9370   5.398   4.478  17.073 -1.0123  0.2343  0.0690
   7223SM  H15A 9371   5.327   4.557  17.050 -1.1290  0.0685 -0.1426
   7223SM  H15B 9372   5.499   4.504  17.044  0.2048 -3.6106  0.3716
   7223SM  H15C 9373   5.410   4.466  17.179  2.2870  0.4169 -0.1635
   7223SM   C14 9374   5.474   4.250  17.033 -0.0392 -0.2485 -0.1610
   7223SM  H14A 9375   5.565   4.278  16.983  0.4532 -2.0958 -0.3759
   7223SM  H14B 9376   5.446   4.158  16.984 -0.2922 -0.1414 -0.2177
   7223SM  H14C 9377   5.481   4.234  17.140  1.0310 -1.2930 -0.3650
   7223SM   C13 9378   5.236   4.289  17.091  0.4147  0.5107  0.3576
   7223SM  H13A 9379   5.210   4.192  17.052  1.4531  0.2802  0.2201
   7223SM  H13B 9380   5.151   4.354  17.072 -0.2002  0.2820  2.1367
   7223SM  H13C 9381   5.255   4.278  17.197  3.0530  0.7913 -0.0106
   7223SM   C12 9382   5.325   4.367  16.872  0.1506 -0.2953  0.4771
   7223SM  H12A 9383   5.397   4.430  16.822 -0.2064 -0.9205 -0.8863
   7223SM  H12B 9384   5.234   4.425  16.869 -1.8185 -3.1890  0.0810
   7223SM   C11 9385   5.296   4.247  16.778  0.0777 -0.2582 -0.6358
   7223SM  H11A 9386   5.276   4.286  16.676 -0.4428  2.5589  0.4722
   7223SM  H11B 9387   5.196   4.216  16.816  0.1723  3.1967  3.1174
   7223SM     P 9388   5.369   3.995  16.762  0.1167  0.3082  0.0317
   7223SM   O13 9389   5.487   3.908  16.782  0.4515  0.0672 -0.3041
   7223SM   O14 9390   5.263   3.965  16.853  0.2321 -0.1119 -0.5147
   7223SM   O11 9391   5.313   3.977  16.617 -0.1528 -0.6854  0.6411
   7223SM   O12 9392   5.399   4.145  16.769  0.3730 -0.5664  1.0371
   7223SM   C1S 9393   5.404   4.023  16.514  0.5188  0.0762 -0.0126
   7223SM   H1S 9394   5.499   3.966  16.506 -0.3547 -1.2471 -1.5092
   7223SM   H1T 9395   5.402   4.134  16.518 -1.7617  0.1686 -1.7093
   7223SM    NF 9396   5.427   4.048  16.265  0.0074  0.5063  0.5190
   7223SM   HNF 9397   5.403   4.141  16.238 -0.1740  0.5718  0.8912
   7223SM   C2S 9398   5.337   4.006  16.370 -0.6592  0.3349 -0.2380
   7223SM   H2S 9399   5.320   3.897  16.359  0.0265  0.0001  1.6471
   7223SM   C3S 9400   5.198   4.073  16.365  0.4560 -0.4792  0.0668
   7223SM   H3S 9401   5.200   4.182  16.386 -4.5551  0.5255 -3.0486
   7223SM    O3 9402   5.100   4.028  16.462  0.0204  0.0565  0.1542
   7223SM   HO3 9403   5.153   3.985  16.528 -1.4156 -1.4826  0.3779
   7223SM   C4S 9404   5.143   4.055  16.221  0.6360 -0.3123  0.1060
   7223SM   H4S 9405   5.185   4.127  16.149  0.9149 -0.9569 -0.3825
   7223SM   C5S 9406   5.056   3.962  16.176  0.3207  0.2458  0.0671
   7223SM   H5S 9407   5.026   3.887  16.250  2.7901 -1.2562 -0.3165
   7223SM   C6S 9408   5.020   3.938  16.029 -0.2807  0.3322 -0.3954
   7223SM   H6S 9409   4.939   3.862  16.023 -0.4320  0.1403  2.5790
   7223SM   H6T 9410   5.106   3.890  15.977  0.7139  0.3901  1.1142
   7223SM   C7S 9411   4.979   4.063  15.955  0.5984 -0.2730 -0.6030
   7223SM   H7S 9412   5.066   4.128  15.933  0.9648 -0.5772 -0.0881
   7223SM   H7T 9413   4.909   4.119  16.021 -1.6833 -2.6966 -0.8020
   7223SM   C8S 9414   4.915   4.029  15.820  0.0207 -0.1730 -0.9339
   7223SM   H8S 9415   4.894   4.129  15.775  2.8275  0.7449 -0.3927
   7223SM   H8T 9416   4.816   3.979  15.829  0.1916 -0.2560  0.6930
   7223SM   C9S 9417   5.006   3.967  15.720  0.2420 -0.4045 -0.4732
   7223SM   H9S 9418   5.018   3.859  15.746  2.5882  0.1277  0.8497
   7223SM   H9T 9419   5.105   4.015  15.727 -0.2725  0.5901  0.2506
   7223SM  C10S 9420   4.956   3.981  15.578 -0.0509 -0.2686  0.6748
   7223SM  H10S 9421   4.931   4.086  15.551 -3.6428 -0.8297  1.3744
   7223SM  H10T 9422   4.858   3.931  15.569 -1.5071  2.7064 -2.0459
   7223SM  C11S 9423   5.066   3.925  15.484  0.8541 -0.0258 -0.2642
   7223SM  H11S 9424   5.078   3.820  15.516 -0.9033 -0.0197  0.5379
   7223SM  H11T 9425   5.164   3.975  15.498  0.7013  0.0470  0.6225
   7223SM  C12S 9426   5.027   3.934  15.335  0.5503 -0.1953 -0.4091
   7223SM  H12S 9427   5.010   4.044  15.325  0.4036 -0.0518  1.1229
   7223SM  H12T 9428   4.931   3.881  15.321  0.1831  0.1480  0.6712
   7223SM  C13S 9429   5.125   3.887  15.236 -0.1406  0.2461 -0.9019
   7223SM  H13S 9430   5.152   3.780  15.241 -1.6985 -0.1299  0.0418
   7223SM  H13T 9431   5.219   3.944  15.250  0.4362 -0.5098 -1.5938
   7223SM  C14S 9432   5.081   3.916  15.093 -0.1477 -0.3469  0.0040
   7223SM  H14S 9433   5.168   3.939  15.027  0.5924 -1.3522  0.6127
   7223SM  H14T 9434   5.023   4.011  15.099  0.7640  0.3746 -1.7372
   7223SM  C15S 9435   4.986   3.811  15.034  0.0994 -0.5382 -0.3481
   7223SM  H15S 9436   4.890   3.810  15.090  0.6120 -0.6072  0.5443
   7223SM  H15T 9437   5.016   3.705  15.047 -1.0149 -1.0466 -1.7461
   7223SM  C16S 9438   4.952   3.836  14.891  0.5706 -0.0242 -0.3016
   7223SM  H16S 9439   4.899   3.934  14.889  0.7432  0.1992  2.4725
   7223SM  H16T 9440   4.887   3.761  14.842  2.4615 -0.2764 -2.6264
   7223SM  C17S 9441   5.059   3.857  14.790  0.3512  0.4761  0.2377
   7223SM  H17S 9442   5.128   3.771  14.803 -0.4630  0.0036  1.6150
   7223SM  H17T 9443   5.115   3.950  14.815  1.0296 -0.2301  1.4874
   7223SM  C18S 9444   5.014   3.871  14.647  0.0367  0.7436 -0.0304
   7223SM  H18S 9445   5.098   3.877  14.575 -0.0857 -0.7298 -0.3104
   7223SM  H18T 9446   4.956   3.965  14.632 -0.9168 -0.0173 -1.3113
   7223SM  H18U 9447   4.944   3.790  14.616  0.7717 -0.1050  0.4835
   7223SM   C1F 9448   5.535   3.984  16.230 -0.1824 -0.0650  0.7202
   7223SM    OF 9449   5.555   3.881  16.287 -0.3793  0.2533 -0.4880
   7223SM   C2F 9450   5.637   4.038  16.129  0.2414  0.3455  0.4624
   7223SM   H2F 9451   5.729   3.977  16.140 -1.7809 -2.9029  0.9313
   7223SM   H2G 9452   5.661   4.144  16.153  1.7281 -0.1178  1.1327
   7223SM   C3F 9453   5.580   4.030  15.984  0.3411 -0.0875 -0.1885
   7223SM   H3F 9454   5.479   4.073  15.971 -1.4823 -3.6395  1.0376
   7223SM   H3G 9455   5.573   3.921  15.961  0.4070 -0.6131  2.0397
   7223SM   C4F 9456   5.672   4.105  15.878  0.2918  0.0145 -0.7031
   7223SM   H4F 9457   5.772   4.066  15.910 -0.4364 -0.8039  0.6692
   7223SM   H4G 9458   5.685   4.213  15.898  0.6544 -0.5751  3.1250
   7223SM   C5F 9459   5.643   4.056  15.732  0.3764 -0.1659  0.4329
   7223SM   H5F 9460   5.625   3.946  15.735  0.3387 -0.1704  0.0612
   7223SM   H5G 9461   5.730   4.081  15.667  0.0773 -0.5205 -0.1066
   7223SM   C6F 9462   5.509   4.111  15.663  0.1238 -0.0037 -0.4854
   7223SM   H6F 9463   5.525   4.219  15.639  0.4945 -0.3130 -1.6797
   7223SM   H6G 9464   5.436   4.113  15.747  1.6123  1.3206  0.8415
   7223SM   C7F 9465   5.470   4.024  15.541 -0.0922  0.0992  0.1625
   7223SM   H7F 9466   5.372   4.058  15.502 -0.0250  1.0323  0.7694
   7223SM   H7G 9467   5.457   3.923  15.585 -3.2339 -0.1713 -1.1648
   7223SM   C8F 9468   5.572   4.024  15.423  0.1315 -0.1060  0.1764
   7223SM   H8F 9469   5.661   3.960  15.437 -1.2754 -2.2913 -0.4864
   7223SM   H8G 9470   5.598   4.128  15.391 -0.5010 -0.2040 -0.6866
   7223SM   C9F 9471   5.519   3.973  15.291  0.1377 -0.3026  0.4035
   7223SM   H9F 9472   5.429   4.031  15.261  0.8993  0.2245 -0.9636
   7223SM   H9G 9473   5.492   3.868  15.316 -0.5009  0.1285  1.6417
   7223SM  C10F 9474   5.614   3.990  15.171 -0.1001  0.0079  0.4234
   7223SM  H10F 9475   5.708   3.939  15.201  0.2082 -0.4810 -1.2418
   7223SM  H10G 9476   5.629   4.092  15.130 -0.4349 -0.7125 -1.6045
   7223SM  C11F 9477   5.566   3.912  15.047  0.0208 -0.9404 -0.1810
   7223SM  H11F 9478   5.463   3.949  15.027 -0.3670 -0.2306  2.7314
   7223SM  H11G 9479   5.561   3.804  15.074  1.1671 -0.9881 -0.1210
   7223SM  C12F 9480   5.661   3.922  14.921  0.6781  0.5118 -0.9192
   7223SM  H12F 9481   5.753   3.868  14.954 -0.4176 -0.6602  0.3640
   7223SM  H12G 9482   5.671   4.032  14.912  0.1615  0.5645 -0.8630
   7223SM  C13F 9483   5.590   3.853  14.804 -0.2140  0.2903  0.3086
   7223SM  H13F 9484   5.489   3.896  14.788  0.7801  2.5688 -0.2479
   7223SM  H13G 9485   5.585   3.743  14.824  1.8782 -0.2856 -1.8319
   7223SM  C14F 9486   5.661   3.866  14.671  0.4366 -0.2932 -0.5179
   7223SM  H14F 9487   5.765   3.831  14.686  0.6041  0.2637 -0.3342
   7223SM  H14G 9488   5.669   3.974  14.647 -2.4493  0.7147  2.2175
   7223SM  C15F 9489   5.595   3.795  14.557  0.0051 -0.7201 -0.0182
   7223SM  H15F 9490   5.495   3.835  14.531 -0.2162 -0.1291  1.6292
   7223SM  H15G 9491   5.588   3.686  14.580 -0.6782 -0.8057 -0.6082
   7223SM  C16F 9492   5.681   3.813  14.433 -0.3829  0.3352 -0.3340
   7223SM  H16F 9493   5.787   3.783  14.451 -0.1091  1.1975 -0.4678
   7223SM  H16G 9494   5.673   3.919  14.402  0.6850  0.3163 -0.7185
   7223SM  C17F 9495   5.647   3.741  14.309  1.0136 -0.2922  0.1598
   7223SM  H17F 9496   5.544   3.764  14.276  0.9564 -0.1581  0.4294
   7223SM  H17G 9497   5.659   3.630  14.310 -0.8270 -0.5239 -0.4764
   7223SM  C18F 9498   5.740   3.796  14.195 -0.0172 -0.1261 -0.0521
   7223SM  H18F 9499   5.743   3.906  14.179  3.2650 -0.0182  0.4509
   7223SM  H18G 9500   5.694   3.760  14.101  0.8768  0.3922 -0.7001
   7223SM  C19F 9501   5.884   3.755  14.198  0.4481 -0.5413  0.4299
   7223SM  H19F 9502   5.898   3.645  14.188 -0.9541 -0.7890  0.9427
   7223SM  H19G 9503   5.939   3.784  14.291  0.9078  1.5438 -0.4422
   7223SM  C20F 9504   5.972   3.816  14.082 -0.0798  0.2113 -1.0674
   7223SM  H20F 9505   5.945   3.924  14.093 -2.3886 -0.3475 -0.6104
   7223SM  H20G 9506   5.946   3.772  13.983  0.0636 -2.3475 -0.0233
   7223SM  C21F 9507   6.121   3.785  14.112  1.2870 -0.6683 -0.2375
   7223SM  H21F 9508   6.123   3.675  14.130  3.2829 -0.6769 -0.3429
   7223SM  H21G 9509   6.123   3.830  14.214 -2.6594 -1.9241  0.5818
   7223SM  C22F 9510   6.223   3.832  14.009  0.4511  0.0810  0.6814
   7223SM  H22F 9511   6.185   3.816  13.906  2.3276  0.8505 -0.1624
   7223SM  H22G 9512   6.319   3.781  14.028 -0.4394 -2.2529 -0.7106
   7223SM  C23F 9513   6.248   3.980  14.003 -0.0943 -0.4854 -0.3388
   7223SM  H23F 9514   6.151   4.034  13.993 -0.1263 -0.6466 -0.9804
   7223SM  H23G 9515   6.304   4.000  13.909 -0.6634 -3.7316 -1.5357
   7223SM  H23H 9516   6.308   4.017  14.089 -2.1749  1.6993  0.2791
   7323SM     N 9517   3.586   1.254  17.014  0.6638 -0.3948 -0.3025
   7323SM   C15 9518   3.605   1.104  17.007  0.0019  0.4546 -0.0472
   7323SM  H15A 9519   3.636   1.077  16.907 -0.3226 -0.6042  0.1293
   7323SM  H15B 9520   3.518   1.041  17.019  1.0819 -0.6355  2.7861
   7323SM  H15C 9521   3.684   1.071  17.073 -0.1220  0.5408  0.1445
   7323SM   C14 9522   3.468   1.287  16.936 -0.4454  0.1674 -0.3341
   7323SM  H14A 9523   3.404   1.200  16.944 -1.2636  0.8310  0.6388
   7323SM  H14B 9524   3.497   1.296  16.832 -1.2009 -0.0132 -0.5679
   7323SM  H14C 9525   3.414   1.372  16.974 -1.8843 -0.1174 -1.6345
   7323SM   C13 9526   3.559   1.285  17.155 -0.6033 -0.0040 -0.8045
   7323SM  H13A 9527   3.479   1.222  17.189 -0.1611 -0.2958 -0.2875
   7323SM  H13B 9528   3.531   1.385  17.184  0.1054 -0.2060  0.6757
   7323SM  H13C 9529   3.653   1.270  17.207 -0.8403  2.8691  0.6276
   7323SM   C12 9530   3.709   1.330  16.961  0.1450  0.3811  0.4238
   7323SM  H12A 9531   3.795   1.292  17.014 -1.0213 -1.8451  0.8629
   7323SM  H12B 9532   3.701   1.437  16.974  0.3672  0.6754 -1.5878
   7323SM   C11 9533   3.736   1.311  16.805  0.0261 -0.5980  0.4148
   7323SM  H11A 9534   3.823   1.378  16.788  0.9784 -1.4111  1.8823
   7323SM  H11B 9535   3.639   1.347  16.764 -0.4863 -2.1543  0.2157
   7323SM     P 9536   3.919   1.132  16.776 -0.0007 -0.1311  0.1449
   7323SM   O13 9537   3.969   1.202  16.893 -0.7742 -0.1448 -0.6449
   7323SM   O14 9538   3.934   0.985  16.767  0.0469 -0.0291 -0.6353
   7323SM   O11 9539   3.980   1.208  16.650  0.4374  0.6011  0.2152
   7323SM   O12 9540   3.764   1.175  16.767  0.0608 -0.0725  0.1941
   7323SM   C1S 9541   3.930   1.171  16.515  0.2154  0.0683  0.0959
   7323SM   H1S 9542   3.821   1.190  16.504  0.3087 -0.4624 -2.3793
   7323SM   H1T 9543   3.949   1.064  16.493  0.4533  0.0908  0.1927
   7323SM    NF 9544   3.949   1.204  16.279  0.3745  0.2832 -0.2705
   7323SM   HNF 9545   4.005   1.163  16.208  0.4514  1.8900 -1.1756
   7323SM   C2S 9546   4.012   1.234  16.406  0.2034 -0.5753 -1.0844
   7323SM   H2S 9547   4.000   1.344  16.412  0.2204 -0.6327  0.0735
   7323SM   C3S 9548   4.158   1.198  16.412  0.2927 -0.2724  0.3815
   7323SM   H3S 9549   4.165   1.089  16.388 -1.0770 -0.1469 -0.6770
   7323SM    O3 9550   4.220   1.206  16.540 -0.1272  0.1110 -0.3271
   7323SM   HO3 9551   4.151   1.221  16.605  1.8307  2.4327  1.4368
   7323SM   C4S 9552   4.238   1.268  16.311 -0.4478 -0.0021 -0.8492
   7323SM   H4S 9553   4.222   1.225  16.211 -3.9829 -3.0772  0.8006
   7323SM   C5S 9554   4.301   1.385  16.333  0.3141 -0.0836 -0.1433
   7323SM   H5S 9555   4.293   1.436  16.431 -3.3386 -1.4156  0.3950
   7323SM   C6S 9556   4.354   1.476  16.221  1.0660  0.9351 -0.5125
   7323SM   H6S 9557   4.462   1.478  16.250  0.5779 -2.0277  2.0435
   7323SM   H6T 9558   4.306   1.575  16.227 -3.9550 -1.2436 -0.2510
   7323SM   C7S 9559   4.342   1.428  16.070  0.3067 -0.2641 -0.6205
   7323SM   H7S 9560   4.233   1.420  16.050  0.1871  1.0476 -0.6196
   7323SM   H7T 9561   4.384   1.326  16.065 -1.0977 -0.8106 -2.5542
   7323SM   C8S 9562   4.384   1.527  15.965  1.0182  0.0609  0.2393
   7323SM   H8S 9563   4.492   1.545  15.982  0.8372  0.1066  1.4138
   7323SM   H8T 9564   4.326   1.612  16.006 -0.9231 -1.0136 -0.1142
   7323SM   C9S 9565   4.348   1.490  15.814  0.3330 -0.5040 -0.7264
   7323SM   H9S 9566   4.241   1.462  15.809  0.3685 -1.0928  1.1393
   7323SM   H9T 9567   4.404   1.397  15.791  2.5335  1.3728 -3.7656
   7323SM  C10S 9568   4.377   1.601  15.714  0.3572  0.4004 -0.2288
   7323SM  H10S 9569   4.481   1.637  15.728  0.9837 -0.0952 -2.9585
   7323SM  H10T 9570   4.300   1.681  15.721 -1.3179 -1.0267 -1.4494
   7323SM  C11S 9571   4.372   1.554  15.568 -0.4952 -0.4498  0.4116
   7323SM  H11S 9572   4.273   1.504  15.556  0.2537 -1.6741 -0.9207
   7323SM  H11T 9573   4.457   1.485  15.553 -0.7862 -0.8720  0.6851
   7323SM  C12S 9574   4.389   1.665  15.450  0.1691 -0.6013  1.0676
   7323SM  H12S 9575   4.474   1.735  15.466  0.8154 -1.4269  1.2664
   7323SM  H12T 9576   4.298   1.729  15.455  0.5801 -0.0816  3.7271
   7323SM  C13S 9577   4.408   1.597  15.309  1.1792 -0.5251 -0.0997
   7323SM  H13S 9578   4.314   1.540  15.295 -0.1275  1.3157  0.6763
   7323SM  H13T 9579   4.500   1.535  15.315  3.0132  1.9468 -1.1249
   7323SM  C14S 9580   4.432   1.706  15.207  0.0881 -0.2485  0.1280
   7323SM  H14S 9581   4.528   1.755  15.235 -1.1607  1.0854  2.3549
   7323SM  H14T 9582   4.353   1.782  15.191 -0.8715 -1.4227 -0.9317
   7323SM  C15S 9583   4.455   1.644  15.067 -0.4307 -0.3525 -0.9227
   7323SM  H15S 9584   4.372   1.577  15.036 -0.7637 -1.1144  1.4162
   7323SM  H15T 9585   4.546   1.582  15.082  1.2303  1.9293 -1.0106
   7323SM  C16S 9586   4.484   1.739  14.958 -0.6456 -0.3430  0.6247
   7323SM  H16S 9587   4.565   1.810  14.983  1.2215  0.2578 -5.4321
   7323SM  H16T 9588   4.392   1.798  14.936 -0.8783 -0.7385  0.5233
   7323SM  C17S 9589   4.520   1.671  14.823 -0.2241  0.0578 -0.3047
   7323SM  H17S 9590   4.441   1.599  14.795 -0.6097 -0.1835  1.3567
   7323SM  H17T 9591   4.615   1.614  14.817 -1.5746 -2.1635 -2.9323
   7323SM  C18S 9592   4.528   1.778  14.708 -0.0930  0.3794  0.9010
   7323SM  H18S 9593   4.586   1.733  14.625 -0.6332 -0.4234  0.9518
   7323SM  H18T 9594   4.591   1.863  14.741  0.2738 -0.2406  1.8560
   7323SM  H18U 9595   4.430   1.819  14.675 -0.0043  1.4867  1.9151
   7323SM   C1F 9596   3.825   1.241  16.242  0.0076 -0.1067 -0.3122
   7323SM    OF 9597   3.756   1.314  16.312  0.7069  0.5214  0.4064
   7323SM   C2F 9598   3.782   1.188  16.110  0.2332 -0.1467 -0.0515
   7323SM   H2F 9599   3.798   1.078  16.108  0.0766 -0.1614 -1.3544
   7323SM   H2G 9600   3.849   1.240  16.038 -0.6685  1.4424  0.1948
   7323SM   C3F 9601   3.637   1.216  16.074  0.1603  0.1462 -0.0754
   7323SM   H3F 9602   3.598   1.318  16.097  0.0421  0.0643  0.0990
   7323SM   H3G 9603   3.580   1.153  16.146  0.5955  1.8945  1.9090
   7323SM   C4F 9604   3.608   1.175  15.932  0.4475 -0.5078 -0.2716
   7323SM   H4F 9605   3.635   1.068  15.920  0.8200 -0.2608 -1.8206
   7323SM   H4G 9606   3.682   1.222  15.863 -0.2331  2.1672  0.7188
   7323SM   C5F 9607   3.461   1.203  15.896  0.6304  0.2426  0.5061
   7323SM   H5F 9608   3.451   1.313  15.900  1.2472  0.2946  0.7268
   7323SM   H5G 9609   3.387   1.154  15.963  0.3190 -1.2205 -0.8445
   7323SM   C6F 9610   3.422   1.158  15.749  0.6319 -0.2168 -0.5810
   7323SM   H6F 9611   3.316   1.186  15.730  0.0035 -1.7699  0.3878
   7323SM   H6G 9612   3.429   1.047  15.741 -0.2948 -0.3110 -0.2990
   7323SM   C7F 9613   3.509   1.227  15.647  0.1972  0.1717 -0.3020
   7323SM   H7F 9614   3.613   1.189  15.658  0.1015 -0.1644 -0.5300
   7323SM   H7G 9615   3.511   1.337  15.661  1.3184  0.2254 -0.8009
   7323SM   C8F 9616   3.456   1.195  15.507 -0.0921  0.0204  0.0849
   7323SM   H8F 9617   3.353   1.232  15.490  0.3527  1.1354 -0.3119
   7323SM   H8G 9618   3.450   1.084  15.498 -0.0410 -0.5755  4.8042
   7323SM   C9F 9619   3.541   1.249  15.393 -0.9464 -0.3330  0.1972
   7323SM   H9F 9620   3.639   1.197  15.385 -0.1147  1.2983 -0.7649
   7323SM   H9G 9621   3.563   1.353  15.428  2.1526 -0.4608 -0.9948
   7323SM  C10F 9622   3.474   1.241  15.252  0.4179 -0.2995  0.2755
   7323SM  H10F 9623   3.378   1.296  15.253  0.7379  0.2967 -0.5282
   7323SM  H10G 9624   3.453   1.135  15.225  1.9523 -0.1174 -1.9148
   7323SM  C11F 9625   3.570   1.283  15.146 -0.3592 -0.0433  0.1326
   7323SM  H11F 9626   3.662   1.220  15.145  1.0391  1.8930  0.0939
   7323SM  H11G 9627   3.609   1.386  15.161 -0.4337  0.2947 -1.7166
   7323SM  C12F 9628   3.506   1.294  15.011 -0.5178 -0.5679 -0.6871
   7323SM  H12F 9629   3.419   1.361  15.028 -0.3155  0.3934 -3.0275
   7323SM  H12G 9630   3.463   1.195  14.984 -1.4201 -0.4483  0.2546
   7323SM  C13F 9631   3.605   1.352  14.907 -0.2029  0.1114 -0.7667
   7323SM  H13F 9632   3.664   1.433  14.954  1.0610 -1.0528 -0.2709
   7323SM  H13G 9633   3.545   1.410  14.834 -2.6603  0.3243  1.2753
   7323SM  C14F 9634   3.693   1.248  14.838 -0.2469 -0.1274  0.2900
   7323SM  H14F 9635   3.639   1.192  14.759  0.7152  0.2184 -0.6262
   7323SM  H14G 9636   3.732   1.177  14.914 -2.0955 -2.4359 -0.8184
   7323SM  C15F 9637   3.816   1.315  14.778 -0.0334 -0.2978  0.1696
   7323SM  H15F 9638   3.871   1.375  14.854 -2.0960  1.1547  0.6152
   7323SM  H15G 9639   3.776   1.395  14.712  0.5811 -0.6652 -0.6765
   7323SM  C16F 9640   3.908   1.226  14.687  0.2775 -0.2600 -0.1330
   7323SM  H16F 9641   3.944   1.135  14.740  0.1139  0.4037  1.1571
   7323SM  H16G 9642   3.996   1.292  14.668  1.3926 -1.7480 -0.2926
   7323SM  C17F 9643   3.842   1.170  14.553  0.2816  0.5871  0.0924
   7323SM  H17F 9644   3.773   1.093  14.592  0.2200  1.1881  1.2230
   7323SM  H17G 9645   3.915   1.121  14.486  2.5060  0.2809  2.5453
   7323SM  C18F 9646   3.770   1.273  14.470  0.8053  0.1481  0.4799
   7323SM  H18F 9647   3.834   1.351  14.423 -1.5579  1.4631 -0.7986
   7323SM  H18G 9648   3.698   1.331  14.532  0.0485 -1.2986  1.0073
   7323SM  C19F 9649   3.696   1.199  14.362  0.2018  0.2272 -0.3019
   7323SM  H19F 9650   3.628   1.126  14.411  0.2193  1.3801  1.5388
   7323SM  H19G 9651   3.756   1.142  14.288 -0.0998  0.3677 -0.6583
   7323SM  C20F 9652   3.601   1.283  14.278 -0.0633 -0.0881 -0.7311
   7323SM  H20F 9653   3.666   1.342  14.211 -0.9997  3.0482  0.9040
   7323SM  H20G 9654   3.550   1.359  14.341 -0.6586 -1.8030  0.9447
   7323SM  C21F 9655   3.496   1.201  14.204 -0.4004 -0.5213 -0.4849
   7323SM  H21F 9656   3.430   1.270  14.147  0.4171 -1.3714 -2.5456
   7323SM  H21G 9657   3.434   1.138  14.272 -1.1107  0.1277 -0.5088
   7323SM  C22F 9658   3.555   1.101  14.102 -0.1608 -0.7489  0.2287
   7323SM  H22F 9659   3.630   1.028  14.138 -2.0973 -2.4232  1.0795
   7323SM  H22G 9660   3.605   1.161  14.022  0.5151  1.2169  2.0388
   7323SM  C23F 9661   3.441   1.015  14.042 -0.0876 -0.4843 -0.3488
   7323SM  H23F 9662   3.362   1.073  13.990 -1.1360 -0.3982  1.2450
   7323SM  H23G 9663   3.392   0.953  14.121  0.8231 -1.6821 -0.6977
   7323SM  H23H 9664   3.480   0.942  13.968  0.2417  0.0340 -0.6848
   7423SM     N 9665   0.294   4.940  16.529 -0.0466  0.9599  0.4765
   7423SM   C15 9666   0.330   4.871  16.655  0.2979 -0.7648 -0.0683
   7423SM  H15A 9667   0.416   4.806  16.641  0.3931 -1.1067  1.7661
   7423SM  H15B 9668   0.256   4.803  16.695  1.2136 -1.8696 -0.1907
   7423SM  H15C 9669   0.349   4.940  16.736 -0.4411 -0.4884 -0.1224
   7423SM   C14 9670   0.411   5.028  16.495  0.2925 -0.3121 -0.1968
   7423SM  H14A 9671   0.412   5.059  16.391  1.4509  1.4288  0.2814
   7423SM  H14B 9672   0.511   4.998  16.521  0.0535 -1.1280 -0.1960
   7423SM  H14C 9673   0.401   5.119  16.553 -0.9595  0.4867 -1.5684
   7423SM   C13 9674   0.285   4.841  16.424 -0.3554  0.0804 -0.2089
   7423SM  H13A 9675   0.379   4.788  16.423  0.5932  1.6373  0.6522
   7423SM  H13B 9676   0.252   4.882  16.330  1.5881 -1.0302 -1.4382
   7423SM  H13C 9677   0.223   4.756  16.447  0.1830  0.2053  2.0486
   7423SM   C12 9678   0.160   5.016  16.530  0.3177 -0.1102 -0.2669
   7423SM  H12A 9679   0.080   4.950  16.560 -1.0710  1.8618  0.6028
   7423SM  H12B 9680   0.143   5.055  16.431  1.8106 -1.6915 -1.2023
   7423SM   C11 9681   0.156   5.145  16.621  0.5147  0.4120  0.3484
   7423SM  H11A 9682   0.190   5.108  16.720  0.7732  1.6945  0.7583
   7423SM  H11B 9683   0.047   5.168  16.630 -0.1397 -2.0139 -0.5203
   7423SM     P 9684   0.168   5.353  16.482 -0.4153  0.3559 -0.1237
   7423SM   O13 9685   0.038   5.396  16.547  0.6760 -0.0238 -0.2229
   7423SM   O14 9686   0.270   5.459  16.457  0.4134  0.9143 -0.2416
   7423SM   O11 9687   0.146   5.270  16.347  0.4548 -0.1969  0.4675
   7423SM   O12 9688   0.237   5.252  16.579  0.0034 -0.4188 -0.1045
   7423SM   C1S 9689   0.025   5.260  16.269 -0.3536 -0.9739 -0.5162
   7423SM   H1S 9690  -0.026   5.358  16.279 -2.5050 -2.0074 -0.8217
   7423SM   H1T 9691  -0.041   5.186  16.319 -2.1348  2.7319  3.2133
   7423SM    NF 9692  -0.062   5.240  16.043  0.2918 -0.0556  0.2093
   7423SM   HNF 9693  -0.106   5.152  16.025  1.7107 -0.4672 -1.5672
   7423SM   C2S 9694   0.056   5.240  16.122 -0.4729  0.1993  0.8528
   7423SM   H2S 9695   0.114   5.328  16.087 -0.6580 -0.3526 -0.9476
   7423SM   C3S 9696   0.143   5.110  16.106 -0.7924  0.6682  0.3861
   7423SM   H3S 9697   0.076   5.023  16.121  1.8656 -1.5974 -0.0049
   7423SM    O3 9698   0.250   5.083  16.198 -0.6237  0.4984  0.2610
   7423SM   HO3 9699   0.237   5.152  16.264  0.4603  0.4845  0.5050
   7423SM   C4S 9700   0.184   5.085  15.956 -0.3791 -0.1829 -0.3233
   7423SM   H4S 9701   0.100   5.063  15.889  0.0090  0.6365 -1.1102
   7423SM   C5S 9702   0.309   5.105  15.906 -0.2871  0.2571  0.8760
   7423SM   H5S 9703   0.384   5.154  15.970  2.5280 -0.6403 -1.5049
   7423SM   C6S 9704   0.353   5.091  15.763  0.3001 -0.5082 -0.0539
   7423SM   H6S 9705   0.414   4.998  15.759  0.5236 -0.4801  1.7229
   7423SM   H6T 9706   0.428   5.166  15.729  0.6698 -1.3499 -1.1653
   7423SM   C7S 9707   0.243   5.080  15.657 -0.4197 -0.2534  0.1822
   7423SM   H7S 9708   0.171   5.164  15.669 -0.1306  0.1005 -0.5131
   7423SM   H7T 9709   0.185   4.985  15.657 -0.0252 -0.5078 -0.9906
   7423SM   C8S 9710   0.301   5.102  15.516  0.3340  0.0626  1.2569
   7423SM   H8S 9711   0.397   5.158  15.508 -0.5664  1.4360 -1.0396
   7423SM   H8T 9712   0.236   5.159  15.447  0.0133  0.1378  1.6239
   7423SM   C9S 9713   0.335   4.970  15.446 -1.3966  0.0497 -0.1903
   7423SM   H9S 9714   0.242   4.911  15.438 -0.7585 -1.2122  1.1153
   7423SM   H9T 9715   0.409   4.909  15.502 -1.4073  1.8460  1.9486
   7423SM  C10S 9716   0.372   4.991  15.302  0.0717  0.0457 -0.0165
   7423SM  H10S 9717   0.483   4.989  15.291  0.1427  0.3858  0.6166
   7423SM  H10T 9718   0.337   5.093  15.278 -2.2245 -0.6472  0.1025
   7423SM  C11S 9719   0.302   4.891  15.209  0.0680  0.7729 -0.3824
   7423SM  H11S 9720   0.191   4.903  15.211 -0.2363  0.3411 -5.0148
   7423SM  H11T 9721   0.315   4.788  15.249 -2.6727  0.7782  0.7708
   7423SM  C12S 9722   0.341   4.918  15.058  0.2591 -0.0175 -0.2356
   7423SM  H12S 9723   0.342   5.029  15.057 -3.3846  0.1174  0.5450
   7423SM  H12T 9724   0.265   4.862  15.000  0.8452 -1.2212  0.1097
   7423SM  C13S 9725   0.480   4.854  15.022  0.4592 -0.2213  0.3246
   7423SM  H13S 9726   0.470   4.744  15.010 -0.8296  0.0435 -1.5701
   7423SM  H13T 9727   0.538   4.876  15.114  1.5295  0.5123 -0.4908
   7423SM  C14S 9728   0.553   4.919  14.897 -0.9081  0.0196  0.1462
   7423SM  H14S 9729   0.657   4.883  14.887 -0.7126  0.6609 -0.2276
   7423SM  H14T 9730   0.564   5.021  14.940  0.3724 -0.4176  0.8971
   7423SM  C15S 9731   0.462   4.938  14.770  0.0516 -0.0992 -0.3157
   7423SM  H15S 9732   0.505   5.015  14.702  0.4091 -0.8588 -0.9679
   7423SM  H15T 9733   0.359   4.966  14.800  0.4720  0.4188  0.6868
   7423SM  C16S 9734   0.442   4.808  14.689 -0.2009  0.2108 -0.5424
   7423SM  H16S 9735   0.365   4.748  14.742  1.7948 -0.6887  1.4542
   7423SM  H16T 9736   0.538   4.753  14.692 -0.3240 -0.1717 -2.4542
   7423SM  C17S 9737   0.407   4.838  14.545 -0.1842  0.1489  0.6479
   7423SM  H17S 9738   0.398   4.743  14.488 -2.5591  0.3739  0.5524
   7423SM  H17T 9739   0.492   4.900  14.510 -2.0015  1.1218 -2.3893
   7423SM  C18S 9740   0.277   4.922  14.530  0.1064 -0.3301 -0.0567
   7423SM  H18S 9741   0.213   4.894  14.616  0.2801  1.5372  0.7196
   7423SM  H18T 9742   0.222   4.903  14.436  0.8755 -1.2149 -0.3439
   7423SM  H18U 9743   0.293   5.031  14.541 -0.8621 -0.2121  0.2768
   7423SM   C1F 9744  -0.126   5.353  16.010  0.2843 -0.6796  0.3340
   7423SM    OF 9745  -0.075   5.463  16.031 -0.7074  0.6758  0.1880
   7423SM   C2F 9746  -0.271   5.352  15.974 -0.7820  0.1454 -0.1810
   7423SM   H2F 9747  -0.320   5.447  16.004 -0.1828  1.2000 -2.3237
   7423SM   H2G 9748  -0.312   5.260  16.020  1.8784 -0.2950  1.5563
   7423SM   C3F 9749  -0.284   5.336  15.815  0.0911  0.4549 -0.6956
   7423SM   H3F 9750  -0.232   5.420  15.765  2.7940 -0.9235 -0.3359
   7423SM   H3G 9751  -0.393   5.348  15.796  0.0702  1.5017 -0.0444
   7423SM   C4F 9752  -0.226   5.206  15.752 -0.4482 -0.4472 -0.1982
   7423SM   H4F 9753  -0.255   5.116  15.810 -4.0222  0.0892 -0.8719
   7423SM   H4G 9754  -0.118   5.223  15.735 -0.0423  0.5348  2.8196
   7423SM   C5F 9755  -0.292   5.181  15.618 -0.1724 -0.2628  0.7088
   7423SM   H5F 9756  -0.267   5.256  15.539 -1.5081 -1.2591 -0.7252
   7423SM   H5G 9757  -0.402   5.195  15.618 -0.4317 -2.0439  0.5841
   7423SM   C6F 9758  -0.278   5.041  15.565 -0.0343  0.2230 -0.0366
   7423SM   H6F 9759  -0.326   5.032  15.465  2.1724 -0.3613 -1.1203
   7423SM   H6G 9760  -0.326   4.963  15.628  0.0598 -0.3648 -0.6693
   7423SM   C7F 9761  -0.137   5.003  15.533  0.0449  0.2042  0.3304
   7423SM   H7F 9762  -0.143   4.901  15.490  2.0914  0.0109  0.4302
   7423SM   H7G 9763  -0.075   4.999  15.625  0.9797 -0.5647 -0.3186
   7423SM   C8F 9764  -0.070   5.094  15.427  0.1184  0.1963 -0.1434
   7423SM   H8F 9765   0.032   5.050  15.417 -0.4169 -1.9689  2.5388
   7423SM   H8G 9766  -0.056   5.199  15.460  1.0143  0.1128 -0.2428
   7423SM   C9F 9767  -0.131   5.100  15.286 -0.3875 -0.4928  0.6270
   7423SM   H9F 9768  -0.071   5.180  15.238 -1.2600  0.1534  0.5858
   7423SM   H9G 9769  -0.233   5.144  15.297 -0.0696  0.7867 -1.1539
   7423SM  C10F 9770  -0.146   4.969  15.213 -0.1660  0.3469 -0.1539
   7423SM  H10F 9771  -0.218   4.912  15.277 -0.5246  0.3480 -0.5564
   7423SM  H10G 9772  -0.049   4.916  15.211  0.0645  0.7762 -0.2872
   7423SM  C11F 9773  -0.186   4.981  15.067 -0.2206  0.2024  0.6911
   7423SM  H11F 9774  -0.264   5.061  15.068 -0.7097 -0.2693  1.8749
   7423SM  H11G 9775  -0.239   4.886  15.045 -1.1498  1.0632 -1.0170
   7423SM  C12F 9776  -0.070   5.029  14.979  0.5808  0.2184 -0.0804
   7423SM  H12F 9777   0.026   5.016  15.033  0.5571 -1.0049 -0.3014
   7423SM  H12G 9778  -0.083   5.134  14.945 -1.5278 -0.6605 -2.2497
   7423SM  C13F 9779  -0.050   4.949  14.843  0.0432 -0.1580 -0.5833
   7423SM  H13F 9780  -0.032   4.841  14.865  1.3626  0.3992  1.2583
   7423SM  H13G 9781   0.042   4.986  14.793  0.9176  0.9634  1.7278
   7423SM  C14F 9782  -0.177   4.970  14.754 -0.3280 -0.6231  0.4688
   7423SM  H14F 9783  -0.176   5.079  14.734  2.4582 -0.9039 -1.5141
   7423SM  H14G 9784  -0.276   4.935  14.789 -1.7395  0.6247 -2.0154
   7423SM  C15F 9785  -0.163   4.900  14.608 -0.3160 -0.0009  0.2637
   7423SM  H15F 9786  -0.067   4.930  14.561 -1.3351 -0.2464 -2.1031
   7423SM  H15G 9787  -0.246   4.942  14.547 -0.8075 -1.0246  0.2083
   7423SM  C16F 9788  -0.166   4.745  14.611  0.4997  0.0350  0.1905
   7423SM  H16F 9789  -0.263   4.720  14.660 -0.1831  3.8167  1.1399
   7423SM  H16G 9790  -0.085   4.697  14.671 -1.1298 -0.9627  1.6924
   7423SM  C17F 9791  -0.159   4.681  14.474 -0.6143  0.2233  0.5515
   7423SM  H17F 9792  -0.224   4.740  14.406 -0.6933  0.6760  1.0114
   7423SM  H17G 9793  -0.196   4.576  14.481 -0.8819  0.3011  0.2957
   7423SM  C18F 9794  -0.018   4.663  14.418  0.7420  0.1653 -0.0953
   7423SM  H18F 9795   0.038   4.582  14.471  1.5430 -0.6590 -2.1165
   7423SM  H18G 9796   0.044   4.755  14.414  0.3315  0.5363  1.2787
   7423SM  C19F 9797  -0.015   4.595  14.281  0.3742  0.0137 -0.0381
   7423SM  H19F 9798  -0.087   4.634  14.207  0.4660 -0.1806 -0.2296
   7423SM  H19G 9799  -0.045   4.488  14.288 -0.2492  0.2106  0.3634
   7423SM  C20F 9800   0.123   4.586  14.217 -0.1049  0.4888 -0.4892
   7423SM  H20F 9801   0.201   4.575  14.295 -0.4074  1.6915  0.0167
   7423SM  H20G 9802   0.137   4.679  14.157 -2.0349  1.3271  0.2668
   7423SM  C21F 9803   0.138   4.469  14.121 -0.8593  0.6470  0.2984
   7423SM  H21F 9804   0.132   4.372  14.174  0.8578 -0.1905 -0.9587
   7423SM  H21G 9805   0.243   4.477  14.086 -0.8648 -0.3845  0.0204
   7423SM  C22F 9806   0.072   4.479  13.984  0.4730  0.8145 -0.0633
   7423SM  H22F 9807  -0.035   4.501  14.004  0.5293 -0.6696  2.2827
   7423SM  H22G 9808   0.071   4.378  13.936 -3.0803  0.4977  0.4239
   7423SM  C23F 9809   0.117   4.588  13.884 -0.3326 -0.0109  0.1299
   7423SM  H23F 9810   0.056   4.605  13.793 -1.7834  0.0491  1.0884
   7423SM  H23G 9811   0.220   4.577  13.844 -0.2431  2.5395 -0.4714
   7423SM  H23H 9812   0.124   4.681  13.945 -1.0491 -1.0189  1.8193
   7523SM     N 9813   4.967   0.099  17.146  0.4436 -0.6339 -0.3018
   7523SM   C15 9814   4.925   0.036  17.280 -0.3638 -0.3441  0.5026
   7523SM  H15A 9815   4.819   0.017  17.283 -0.2921 -1.1160 -1.0752
   7523SM  H15B 9816   4.944   0.102  17.363 -0.7711 -0.0963  0.4024
   7523SM  H15C 9817   4.988  -0.049  17.300 -1.4364 -1.1886  0.4138
   7523SM   C14 9818   4.878   0.214  17.104 -0.1700  0.0709  0.0857
   7523SM  H14A 9819   4.854   0.282  17.185 -2.3791 -0.2114 -0.2775
   7523SM  H14B 9820   4.789   0.166  17.067  0.5483 -1.1105 -0.1626
   7523SM  H14C 9821   4.913   0.269  17.017 -1.6971  1.4473  0.2874
   7523SM   C13 9822   5.107   0.155  17.163  0.9535 -0.3491 -0.6268
   7523SM  H13A 9823   5.177   0.096  17.222  1.8512 -1.0047 -2.2961
   7523SM  H13B 9824   5.098   0.254  17.206 -2.0264  0.2285 -2.3311
   7523SM  H13C 9825   5.153   0.174  17.067 -1.1407  2.7249 -1.1728
   7523SM   C12 9826   4.959  -0.018  17.045 -0.0711  0.4634  0.2580
   7523SM  H12A 9827   4.862  -0.066  17.043 -0.2426  0.8276 -0.9867
   7523SM  H12B 9828   5.012  -0.105  17.079 -1.3070 -1.6172 -2.7054
   7523SM   C11 9829   5.022   0.006  16.901  0.3793  0.3886  0.6389
   7523SM  H11A 9830   4.961   0.085  16.852  0.6353  0.2383  0.0649
   7523SM  H11B 9831   5.009  -0.092  16.851  2.8201 -0.3445  1.2781
   7523SM     P 9832   5.222   0.102  16.763 -0.0962  0.2203 -0.1511
   7523SM   O13 9833   5.194   0.246  16.758  0.0462  0.2619 -0.3874
   7523SM   O14 9834   5.367   0.067  16.753 -0.1312  0.3396  0.3545
   7523SM   O11 9835   5.139   0.025  16.643 -0.1241  0.6638  0.7662
   7523SM   O12 9836   5.163   0.036  16.895  0.2628 -0.2491  0.4146
   7523SM   C1S 9837   5.131   0.092  16.514  0.5923  0.3860  0.6416
   7523SM   H1S 9838   5.142   0.202  16.526 -0.5914  0.3771  2.0383
   7523SM   H1T 9839   5.032   0.076  16.466  0.0722 -0.5104  1.9619
   7523SM    NF 9840   5.253   0.135  16.302  0.0663 -0.2715 -0.2475
   7523SM   HNF 9841   5.199   0.107  16.223 -0.5256  0.2342 -0.0341
   7523SM   C2S 9842   5.245   0.047  16.418  0.5948  0.4835 -0.2361
   7523SM   H2S 9843   5.343   0.044  16.470  1.6359 -1.4678 -2.1497
   7523SM   C3S 9844   5.222  -0.100  16.381 -0.4637 -0.5290 -0.0822
   7523SM   H3S 9845   5.121  -0.109  16.335 -0.4425 -1.3190  0.0221
   7523SM    O3 9846   5.190  -0.187  16.491 -0.3914  0.1457 -0.0955
   7523SM   HO3 9847   5.175  -0.132  16.568  1.8523 -1.3990  1.5611
   7523SM   C4S 9848   5.323  -0.159  16.290  0.1232  0.3906 -0.0425
   7523SM   H4S 9849   5.285  -0.160  16.186 -0.7631 -1.3347  0.2577
   7523SM   C5S 9850   5.445  -0.205  16.315  0.4384 -0.1790 -0.4395
   7523SM   H5S 9851   5.481  -0.208  16.419  1.4625  0.8467 -0.7383
   7523SM   C6S 9852   5.535  -0.257  16.204 -0.2514  0.0130 -0.2857
   7523SM   H6S 9853   5.562  -0.363  16.224 -2.0941 -0.3273  0.6188
   7523SM   H6T 9854   5.627  -0.196  16.217 -0.0653 -0.0000 -1.4014
   7523SM   C7S 9855   5.475  -0.252  16.060  0.5264 -0.1107  0.6156
   7523SM   H7S 9856   5.453  -0.146  16.035 -0.8353 -0.6042 -0.4649
   7523SM   H7T 9857   5.376  -0.303  16.069  0.0952  0.6448  0.3403
   7523SM   C8S 9858   5.569  -0.304  15.952  0.0005 -0.6130  0.3404
   7523SM   H8S 9859   5.583  -0.414  15.966 -0.7705 -0.7638 -0.0102
   7523SM   H8T 9860   5.667  -0.255  15.940 -0.9024  0.6439 -3.0725
   7523SM   C9S 9861   5.500  -0.285  15.813 -0.0960 -0.7406 -0.4149
   7523SM   H9S 9862   5.494  -0.175  15.803  0.0505 -0.7242 -0.3209
   7523SM   H9T 9863   5.403  -0.340  15.818  0.2714 -1.7161 -2.6807
   7523SM  C10S 9864   5.572  -0.353  15.706  0.3565  0.0317  0.1525
   7523SM  H10S 9865   5.574  -0.460  15.736  0.8971 -0.2550 -0.8583
   7523SM  H10T 9866   5.675  -0.310  15.699 -0.1499  1.6000  1.6540
   7523SM  C11S 9867   5.515  -0.336  15.565  0.0359  0.2318  0.1299
   7523SM  H11S 9868   5.530  -0.236  15.518  1.5828 -1.2558 -2.8478
   7523SM  H11T 9869   5.405  -0.351  15.575  0.4005 -2.5440  0.8467
   7523SM  C12S 9870   5.567  -0.435  15.462 -0.7975 -0.1497  0.2529
   7523SM  H12S 9871   5.548  -0.537  15.499  0.7218 -0.5222  0.0671
   7523SM  H12T 9872   5.676  -0.454  15.474 -1.3075 -3.3239  0.7352
   7523SM  C13S 9873   5.497  -0.421  15.325 -0.3903 -0.4707  0.0681
   7523SM  H13S 9874   5.427  -0.336  15.338  1.1692  0.8804  0.0977
   7523SM  H13T 9875   5.444  -0.517  15.310 -0.6140 -0.8997  3.0541
   7523SM  C14S 9876   5.600  -0.390  15.216 -0.1187  0.3567  0.8267
   7523SM  H14S 9877   5.668  -0.477  15.207  1.2873  1.6085 -3.1178
   7523SM  H14T 9878   5.668  -0.306  15.241  3.1450 -1.5742 -0.9000
   7523SM  C15S 9879   5.536  -0.362  15.079 -0.1063 -0.6212 -0.1208
   7523SM  H15S 9880   5.486  -0.263  15.081  1.4128  0.2102 -1.2773
   7523SM  H15T 9881   5.459  -0.442  15.074  0.6298 -1.2772 -1.6904
   7523SM  C16S 9882   5.616  -0.382  14.949  0.4098  0.1345 -0.0096
   7523SM  H16S 9883   5.548  -0.401  14.863 -1.6087 -0.9721  1.7355
   7523SM  H16T 9884   5.695  -0.458  14.966  2.1835  1.7755 -0.5097
   7523SM  C17S 9885   5.696  -0.254  14.934 -0.4854 -0.0218  0.3269
   7523SM  H17S 9886   5.721  -0.216  15.035  0.7939 -0.9723  0.3961
   7523SM  H17T 9887   5.625  -0.184  14.886 -1.3682  0.8493  2.7884
   7523SM  C18S 9888   5.828  -0.255  14.850  0.4976  0.2488  0.6383
   7523SM  H18S 9889   5.870  -0.155  14.827 -1.4359  0.6738 -1.4010
   7523SM  H18T 9890   5.799  -0.300  14.753  1.2974  0.7496  0.1552
   7523SM  H18U 9891   5.902  -0.327  14.893 -1.4866 -0.4937  3.1121
   7523SM   C1F 9892   5.294   0.257  16.302 -0.3322  0.6084 -0.0594
   7523SM    OF 9893   5.315   0.326  16.406 -0.3962  0.5080  0.2321
   7523SM   C2F 9894   5.296   0.315  16.166 -0.7258 -0.6284 -0.0878
   7523SM   H2F 9895   5.200   0.287  16.118 -1.0927 -0.6885  0.6637
   7523SM   H2G 9896   5.380   0.261  16.116  0.3240  0.9937 -0.1487
   7523SM   C3F 9897   5.320   0.467  16.152  0.3924 -0.0929  0.1291
   7523SM   H3F 9898   5.419   0.499  16.192  2.0460 -1.3859 -2.6302
   7523SM   H3G 9899   5.241   0.522  16.208  0.2942 -0.3089  0.2047
   7523SM   C4F 9900   5.330   0.511  16.004 -0.0610  0.2333  0.3141
   7523SM   H4F 9901   5.346   0.621  16.003  1.3055  0.0410  0.1616
   7523SM   H4G 9902   5.237   0.484  15.948  0.2218 -0.1278  0.0136
   7523SM   C5F 9903   5.445   0.446  15.923 -0.4904  0.2208  0.3126
   7523SM   H5F 9904   5.442   0.336  15.939  0.6663  0.1335  0.0416
   7523SM   H5G 9905   5.536   0.488  15.970  0.1186 -2.0352  1.3156
   7523SM   C6F 9906   5.445   0.471  15.771  0.4367 -0.0949 -0.7229
   7523SM   H6F 9907   5.347   0.446  15.725  0.6961 -1.2065 -0.6994
   7523SM   H6G 9908   5.503   0.388  15.726 -0.6084 -1.4305  0.3219
   7523SM   C7F 9909   5.477   0.615  15.738  0.4543 -0.2725  0.9481
   7523SM   H7F 9910   5.582   0.642  15.762  1.0538 -0.4503 -1.2211
   7523SM   H7G 9911   5.410   0.676  15.802 -1.3822 -1.5014  0.2784
   7523SM   C8F 9912   5.441   0.649  15.590 -0.3612 -0.4139 -0.8206
   7523SM   H8F 9913   5.441   0.757  15.568 -1.0496 -0.5694 -1.6673
   7523SM   H8G 9914   5.334   0.617  15.587 -0.7560  0.5987  1.0727
   7523SM   C9F 9915   5.508   0.568  15.487 -0.5244  0.1104 -0.8184
   7523SM   H9F 9916   5.480   0.461  15.497 -1.3378  0.3898  0.0164
   7523SM   H9G 9917   5.617   0.580  15.500 -0.5777 -0.8493  0.7971
   7523SM  C10F 9918   5.479   0.607  15.335  0.6504 -0.2672 -0.5883
   7523SM  H10F 9919   5.512   0.712  15.315  0.6072 -0.2003 -0.3087
   7523SM  H10G 9920   5.369   0.600  15.320  0.4460  2.1607 -0.6317
   7523SM  C11F 9921   5.549   0.511  15.242  0.1033 -0.0684  0.3603
   7523SM  H11F 9922   5.498   0.415  15.261  0.4719  0.0960  2.3632
   7523SM  H11G 9923   5.652   0.490  15.278 -0.1206 -0.5299  0.7389
   7523SM  C12F 9924   5.547   0.545  15.093  0.2812 -0.5664 -0.1777
   7523SM  H12F 9925   5.628   0.620  15.079  0.5901 -0.9825 -0.6326
   7523SM  H12G 9926   5.447   0.582  15.061  0.5005 -1.2121 -1.6392
   7523SM  C13F 9927   5.561   0.422  15.002 -0.1787  0.3489  0.0711
   7523SM  H13F 9928   5.464   0.367  14.997  0.1536 -0.4060  1.3319
   7523SM  H13G 9929   5.636   0.344  15.026  2.2525  2.3693 -0.5837
   7523SM  C14F 9930   5.589   0.470  14.858 -0.0030  0.1940 -0.2961
   7523SM  H14F 9931   5.698   0.481  14.843 -0.1862  2.3066 -0.2833
   7523SM  H14G 9932   5.538   0.567  14.838  0.6656  0.6541  0.2099
   7523SM  C15F 9933   5.544   0.377  14.744 -0.0283 -0.9084 -0.1157
   7523SM  H15F 9934   5.438   0.347  14.762 -0.1169  0.0087  0.9954
   7523SM  H15G 9935   5.604   0.285  14.762  0.4686 -0.4284  0.7922
   7523SM  C16F 9936   5.568   0.446  14.614 -0.5650 -0.2015  0.4694
   7523SM  H16F 9937   5.675   0.470  14.596 -1.1076  1.6883 -0.5506
   7523SM  H16G 9938   5.518   0.545  14.607  2.4553  1.3852 -0.9621
   7523SM  C17F 9939   5.526   0.355  14.500  0.6351  0.4122 -0.1271
   7523SM  H17F 9940   5.417   0.337  14.506  0.9421 -1.7169 -0.3097
   7523SM  H17G 9941   5.575   0.256  14.507 -0.1761  0.1131  2.0743
   7523SM  C18F 9942   5.538   0.413  14.365 -0.6307 -1.0357  0.3172
   7523SM  H18F 9943   5.642   0.443  14.342 -1.6714  1.4821 -1.6929
   7523SM  H18G 9944   5.479   0.507  14.354  1.3387  0.1109 -1.1598
   7523SM  C19F 9945   5.497   0.319  14.254  0.6708 -0.1920 -0.1726
   7523SM  H19F 9946   5.550   0.222  14.266 -1.6010 -1.6126 -0.9764
   7523SM  H19G 9947   5.547   0.347  14.158  0.3481 -0.6191 -0.4701
   7523SM  C20F 9948   5.347   0.313  14.219  0.4173  0.1400 -0.1197
   7523SM  H20F 9949   5.305   0.416  14.218 -0.2409 -0.1257  0.0675
   7523SM  H20G 9950   5.298   0.263  14.305  0.0083 -0.8068 -0.8928
   7523SM  C21F 9951   5.304   0.231  14.096  0.3251  0.0607 -0.0430
   7523SM  H21F 9952   5.193   0.226  14.101  0.2965 -0.8343 -1.0955
   7523SM  H21G 9953   5.351   0.131  14.107  0.0921 -0.2338 -1.4451
   7523SM  C22F 9954   5.332   0.301  13.961  0.3592  0.5935 -0.2148
   7523SM  H22F 9955   5.441   0.311  13.941  0.4558  1.0591  0.5063
   7523SM  H22G 9956   5.286   0.402  13.955  1.0204  0.9816  0.8885
   7523SM  C23F 9957   5.265   0.217  13.847 -0.0133  0.4627 -0.0410
   7523SM  H23F 9958   5.303   0.113  13.857  0.2059  0.5866  0.4904
   7523SM  H23G 9959   5.279   0.260  13.746 -0.0093 -0.8877 -0.6317
   7523SM  H23H 9960   5.158   0.232  13.870  0.0693  1.8354 -0.4402
   7623SM     N 9961   6.350   0.459  16.818 -0.0275  0.1829 -0.7674
   7623SM   C15 9962   6.258   0.548  16.739 -0.4306  0.1188  0.6446
   7623SM  H15A 9963   6.219   0.634  16.791 -2.5204 -0.0938 -0.4475
   7623SM  H15B 9964   6.174   0.492  16.700 -0.1576 -1.1524  1.8008
   7623SM  H15C 9965   6.305   0.581  16.648 -0.8259 -0.2868  0.2886
   7623SM   C14 9966   6.437   0.545  16.893 -0.2950 -0.6025 -0.5989
   7623SM  H14A 9967   6.384   0.626  16.941 -0.2402 -1.0043  0.1470
   7623SM  H14B 9968   6.508   0.591  16.825  2.8635 -1.4393  1.8734
   7623SM  H14C 9969   6.500   0.497  16.966  0.4358 -0.5812 -1.2024
   7623SM   C13 9970   6.254   0.382  16.911 -0.3057 -0.3560 -0.0453
   7623SM  H13A 9971   6.306   0.298  16.953  1.7254 -0.0065 -1.7239
   7623SM  H13B 9972   6.179   0.340  16.845 -1.4036  1.0066  0.2751
   7623SM  H13C 9973   6.202   0.440  16.986 -0.6145  1.7558 -1.7767
   7623SM   C12 9974   6.418   0.362  16.732 -0.0904  0.1195 -0.0118
   7623SM  H12A 9975   6.478   0.419  16.662  0.3062  0.1974  0.3893
   7623SM  H12B 9976   6.340   0.306  16.684  1.1435 -0.1520 -1.8150
   7623SM   C11 9977   6.501   0.258  16.804  0.2917  0.0032 -0.5188
   7623SM  H11A 9978   6.563   0.301  16.886 -1.0747  1.2041 -0.0790
   7623SM  H11B 9979   6.563   0.210  16.725 -2.2913  0.1975 -2.7838
   7623SM     P 9980   6.424   0.009  16.873 -0.5674  0.3334  0.3351
   7623SM   O13 9981   6.538  -0.028  16.961 -0.1580  0.0515  0.4430
   7623SM   O14 9982   6.295  -0.050  16.908  0.3911  0.0360 -0.2688
   7623SM   O11 9983   6.451  -0.025  16.723 -0.0425 -0.3772 -0.2963
   7623SM   O12 9984   6.413   0.162  16.867 -0.7659 -0.5454  0.2792
   7623SM   C1S 9985   6.339  -0.009  16.633  0.0861 -0.2752  0.7982
   7623SM   H1S 9986   6.288   0.083  16.668 -0.5457 -1.0750  2.0611
   7623SM   H1T 9987   6.267  -0.093  16.643 -2.4462  1.6233 -0.4016
   7623SM    NF 9988   6.311   0.061  16.400  0.2594  0.1454 -0.6158
   7623SM   HNF 9989   6.271  -0.006  16.338  3.1948 -2.0724 -0.2839
   7623SM   C2S 9990   6.403   0.001  16.495 -0.1679 -0.0983 -0.6106
   7623SM   H2S 9991   6.489   0.071  16.499  2.9472 -3.6942  0.9007
   7623SM   C3S 9992   6.454  -0.142  16.452 -0.2671  0.0578  0.6641
   7623SM   H3S 9993   6.366  -0.210  16.446  2.0225 -3.5036  3.2739
   7623SM    O3 9994   6.520  -0.217  16.554 -0.5587 -0.5674  0.2345
   7623SM   HO3 9995   6.524  -0.160  16.631 -0.4342 -0.7456  0.3594
   7623SM   C4S 9996   6.537  -0.125  16.325 -0.2797 -0.8942  0.2897
   7623SM   H4S 9997   6.470  -0.120  16.238 -0.0176  0.6076  0.1534
   7623SM   C5S 9998   6.671  -0.114  16.309 -0.2112 -0.4392 -0.3156
   7623SM   H5S 9999   6.739  -0.122  16.396  0.4737 -0.6631 -0.8602
   7623SM   C6S10000   6.733  -0.076  16.175 -0.0992 -0.4202 -0.5377
   7623SM   H6S10001   6.804  -0.157  16.150  1.2337  0.1211  1.2772
   7623SM   H6T10002   6.792   0.017  16.186  0.2047 -0.8487  2.0328
   7623SM   C7S10003   6.638  -0.060  16.054  1.1238  0.2083 -0.0938
   7623SM   H7S10004   6.564   0.021  16.075  1.9991  1.0870 -0.3270
   7623SM   H7T10005   6.574  -0.146  16.027 -0.6409  1.0220  1.2579
   7623SM   C8S10006   6.719  -0.028  15.925  0.0943 -0.1512 -0.0054
   7623SM   H8S10007   6.796  -0.108  15.926  0.1844 -0.0807 -0.7330
   7623SM   H8T10008   6.783   0.060  15.947 -0.5851 -0.0338  1.6624
   7623SM   C9S10009   6.647  -0.025  15.785  0.7639 -0.6058 -0.3468
   7623SM   H9S10010   6.580   0.063  15.796  1.3136 -0.3416  1.0014
   7623SM   H9T10011   6.586  -0.116  15.764 -0.7372 -0.1391  1.7341
   7623SM  C10S10012   6.737   0.012  15.668  0.4003 -0.9341  0.1634
   7623SM  H10S10013   6.818  -0.063  15.653  1.1801 -0.0089 -0.3021
   7623SM  H10T10014   6.785   0.109  15.693  0.5701 -1.3624  1.5975
   7623SM  C11S10015   6.658   0.035  15.533 -0.5666  0.3807 -0.1721
   7623SM  H11S10016   6.602   0.130  15.541  1.4356  1.7967 -2.0862
   7623SM  H11T10017   6.583  -0.048  15.529 -0.7277  0.2862  2.5500
   7623SM  C12S10018   6.741   0.041  15.403 -0.0403 -0.1223  0.4254
   7623SM  H12S10019   6.806  -0.048  15.389  3.0758  2.3065 -2.1516
   7623SM  H12T10020   6.813   0.126  15.410  0.2241 -0.4648  2.6750
   7623SM  C13S10021   6.658   0.057  15.275  0.1873 -0.7355 -0.1212
   7623SM  H13S10022   6.596   0.149  15.272 -0.1329 -0.9838 -1.6525
   7623SM  H13T10023   6.594  -0.033  15.271  1.5826 -1.7329 -0.9048
   7623SM  C14S10024   6.739   0.041  15.145 -0.4582  0.0261 -0.3728
   7623SM  H14S10025   6.804  -0.048  15.148  0.5374  0.7610  0.4857
   7623SM  H14T10026   6.808   0.128  15.139 -0.4945  0.0791 -0.0274
   7623SM  C15S10027   6.652   0.056  15.020  0.2654  0.0332 -0.1363
   7623SM  H15S10028   6.585   0.143  15.030 -0.0446 -0.3536  1.2650
   7623SM  H15T10029   6.586  -0.032  15.007 -1.8457  0.9585  3.2793
   7623SM  C16S10030   6.737   0.074  14.894 -0.6982 -0.3461 -0.0808
   7623SM  H16S10031   6.810   0.155  14.917  0.6660 -1.0291 -1.8067
   7623SM  H16T10032   6.664   0.113  14.821 -1.2078 -0.7576  0.2012
   7623SM  C17S10033   6.796  -0.045  14.840  0.1212  0.0928 -0.4263
   7623SM  H17S10034   6.787  -0.131  14.909 -4.3657 -2.6989 -3.8383
   7623SM  H17T10035   6.902  -0.021  14.817 -0.2239 -0.3114 -2.7491
   7623SM  C18S10036   6.725  -0.093  14.719 -0.6530  0.3499 -0.1459
   7623SM  H18S10037   6.770  -0.186  14.677 -1.6205  0.8394 -2.3879
   7623SM  H18T10038   6.741  -0.014  14.643 -0.9764  1.2893  0.7422
   7623SM  H18U10039   6.616  -0.106  14.734 -0.7976 -1.4027 -2.2210
   7623SM   C1F10040   6.255   0.191  16.407 -0.8730  0.2101 -0.1102
   7623SM    OF10041   6.306   0.279  16.481  0.9128  0.0059 -0.2955
   7623SM   C2F10042   6.122   0.214  16.344 -0.1829 -0.0234 -0.5486
   7623SM   H2F10043   6.045   0.246  16.418 -1.7692 -2.1741 -1.1797
   7623SM   H2G10044   6.077   0.118  16.312  0.8257  0.3211 -3.1925
   7623SM   C3F10045   6.131   0.324  16.232  0.1975  0.2377  0.1663
   7623SM   H3F10046   6.217   0.391  16.252  0.8016  0.4612 -2.6674
   7623SM   H3G10047   6.038   0.382  16.253  0.6446  0.1282  2.6710
   7623SM   C4F10048   6.147   0.256  16.087  1.1439  0.7136 -0.6374
   7623SM   H4F10049   6.046   0.221  16.057  0.6627  1.0544  0.4984
   7623SM   H4G10050   6.215   0.169  16.102  0.3385  0.0016 -0.9826
   7623SM   C5F10051   6.206   0.344  15.977 -0.5617 -0.8685 -0.9136
   7623SM   H5F10052   6.294   0.389  16.027 -0.6428  0.5714 -1.9990
   7623SM   H5G10053   6.127   0.417  15.946  0.1846  0.3488 -0.0353
   7623SM   C6F10054   6.242   0.263  15.857 -0.6935 -0.3632 -0.4110
   7623SM   H6F10055   6.159   0.198  15.823 -2.3261  0.2703  2.0439
   7623SM   H6G10056   6.331   0.208  15.895  0.2916  2.4598  1.7964
   7623SM   C7F10057   6.299   0.342  15.732 -0.3716  0.2645  0.1056
   7623SM   H7F10058   6.376   0.421  15.748  1.0609 -1.0786  0.0469
   7623SM   H7G10059   6.200   0.385  15.703  0.1526 -0.2337 -2.6993
   7623SM   C8F10060   6.341   0.248  15.617 -0.2556 -0.3865 -0.3061
   7623SM   H8F10061   6.299   0.146  15.625 -2.1043  0.2190 -1.5263
   7623SM   H8G10062   6.451   0.235  15.610  0.1934  2.8528 -0.8047
   7623SM   C9F10063   6.283   0.290  15.478 -0.5052 -0.4238 -0.6526
   7623SM   H9F10064   6.322   0.392  15.456  0.2954 -0.3264  1.0826
   7623SM   H9G10065   6.174   0.307  15.494 -0.1204  2.7696 -0.8151
   7623SM  C10F10066   6.301   0.182  15.371  0.4185 -0.3776 -0.0487
   7623SM  H10F10067   6.258   0.088  15.410 -0.4394 -0.1903 -0.5283
   7623SM  H10G10068   6.409   0.156  15.358 -0.2711 -3.3972 -0.4659
   7623SM  C11F10069   6.232   0.225  15.242 -0.3734  0.1230  0.3649
   7623SM  H11F10070   6.145   0.283  15.280  2.1492  3.5333  1.4773
   7623SM  H11G10071   6.215   0.133  15.183  2.7594  0.3226 -1.1052
   7623SM  C12F10072   6.309   0.335  15.164  0.2216 -0.3479  0.1998
   7623SM  H12F10073   6.419   0.318  15.162  0.2355 -0.5416 -3.3703
   7623SM  H12G10074   6.291   0.431  15.218  0.4241  0.0843 -0.5000
   7623SM  C13F10075   6.256   0.350  15.021 -0.0221 -0.8826 -0.4757
   7623SM  H13F10076   6.305   0.434  14.966 -1.4758 -1.4930 -2.8401
   7623SM  H13G10077   6.148   0.367  15.005 -0.0555 -2.2117 -1.8772
   7623SM  C14F10078   6.297   0.233  14.926 -0.3174 -0.2525 -0.5516
   7623SM  H14F10079   6.221   0.152  14.932  0.9015 -1.4331 -0.6432
   7623SM  H14G10080   6.382   0.182  14.976 -0.9418 -1.3230 -0.5575
   7623SM  C15F10081   6.330   0.274  14.786 -0.2960  1.2699  0.2742
   7623SM  H15F10082   6.422   0.333  14.766  1.9146 -2.4261 -1.5733
   7623SM  H15G10083   6.241   0.325  14.744 -0.3894  1.3890  0.6181
   7623SM  C16F10084   6.356   0.137  14.712  0.4783  0.7872 -0.6294
   7623SM  H16F10085   6.251   0.105  14.697  0.8352 -1.5270  1.1921
   7623SM  H16G10086   6.408   0.065  14.779 -0.3179  0.0975 -0.7383
   7623SM  C17F10087   6.424   0.154  14.581  0.9080  0.4565  0.2658
   7623SM  H17F10088   6.516   0.209  14.612  0.7556  0.8147  0.0744
   7623SM  H17G10089   6.366   0.223  14.517  0.3873  0.5148  0.7919
   7623SM  C18F10090   6.437   0.025  14.503  0.0833  0.2828  0.2980
   7623SM  H18F10091   6.337  -0.004  14.463  0.0219  1.9367 -0.8174
   7623SM  H18G10092   6.473  -0.057  14.569 -0.6050 -1.3717 -1.3001
   7623SM  C19F10093   6.555   0.046  14.397  0.4146  0.3075 -0.5232
   7623SM  H19F10094   6.653   0.013  14.436 -0.9245 -2.4305  0.8028
   7623SM  H19G10095   6.567   0.152  14.364  0.3108  0.2143 -0.8574
   7623SM  C20F10096   6.531  -0.050  14.285  0.3387  0.5065  0.3247
   7623SM  H20F10097   6.432  -0.061  14.237  1.4005  0.3365 -1.9779
   7623SM  H20G10098   6.573  -0.152  14.300 -1.0874 -0.0646  0.5485
   7623SM  C21F10099   6.614   0.012  14.166 -1.1017 -0.1365 -0.1344
   7623SM  H21F10100   6.714   0.021  14.213 -0.8139 -0.4268 -0.6881
   7623SM  H21G10101   6.578   0.112  14.135  1.1955  0.7655 -0.0522
   7623SM  C22F10102   6.639  -0.073  14.033  0.3661  0.0183 -0.2271
   7623SM  H22F10103   6.539  -0.095  13.991 -0.0323  3.4512 -1.4335
   7623SM  H22G10104   6.690  -0.162  14.074 -1.3787 -0.7212  0.4131
   7623SM  C23F10105   6.712   0.005  13.924  0.3475  0.1122  1.1045
   7623SM  H23F10106   6.812   0.044  13.955  0.4276 -0.1367  1.1626
   7623SM  H23G10107   6.653   0.084  13.875  0.6414 -0.0837  0.4269
   7623SM  H23H10108   6.733  -0.066  13.841  1.1374  1.3133  0.2354
   7723SM     N10109   0.395   3.116  17.318  0.7009 -0.0139 -1.2391
   7723SM   C1510110   0.503   3.061  17.409 -0.7931 -0.6569  0.4747
   7723SM  H15A10111   0.599   3.101  17.383 -1.9906  0.7438 -2.1135
   7723SM  H15B10112   0.507   2.954  17.393 -1.2934 -0.4199 -1.3793
   7723SM  H15C10113   0.494   3.072  17.516  1.5559  0.0970  0.6487
   7723SM   C1410114   0.261   3.052  17.370 -0.1036  0.0780  0.4751
   7723SM  H14A10115   0.180   3.069  17.301 -1.7844 -0.3417  2.2534
   7723SM  H14B10116   0.234   3.090  17.468  0.3875  0.6948  0.3788
   7723SM  H14C10117   0.271   2.945  17.377  1.3195  0.0367 -1.4279
   7723SM   C1310118   0.396   3.269  17.333 -0.1790 -0.0636  0.0256
   7723SM  H13A10119   0.489   3.309  17.297  1.6070 -2.5075  1.6418
   7723SM  H13B10120   0.373   3.302  17.433 -2.2129  0.4116 -0.5508
   7723SM  H13C10121   0.326   3.304  17.259  1.7542 -0.7213 -2.2106
   7723SM   C1210122   0.422   3.078  17.176 -0.0098  0.6353 -0.0176
   7723SM  H12A10123   0.427   2.971  17.162 -1.2800  0.1351  2.6207
   7723SM  H12B10124   0.514   3.123  17.141  1.1417 -3.5819 -3.1497
   7723SM   C1110125   0.315   3.119  17.068 -0.2404  0.3710  0.0608
   7723SM  H11A10126   0.221   3.068  17.098  0.8990 -0.3056  2.7721
   7723SM  H11B10127   0.332   3.078  16.966 -0.0987  1.4862 -0.3810
   7723SM     P10128   0.348   3.355  16.964  0.6356  0.0346  0.5952
   7723SM   O1310129   0.266   3.480  16.961  0.1909  0.1018  0.3560
   7723SM   O1410130   0.485   3.372  17.012 -0.5351 -0.0304  0.6383
   7723SM   O1110131   0.358   3.293  16.816 -0.2514 -0.1565 -0.1202
   7723SM   O1210132   0.284   3.254  17.066  0.2521  0.6629 -0.1532
   7723SM   C1S10133   0.230   3.277  16.754  0.3458  0.2670 -0.1115
   7723SM   H1S10134   0.176   3.374  16.751  0.6360  0.4190 -0.7965
   7723SM   H1T10135   0.162   3.207  16.806 -1.1284  0.9980 -0.9996
   7723SM    NF10136   0.121   3.239  16.534 -0.2738  0.5713 -0.9503
   7723SM   HNF10137   0.065   3.158  16.518 -1.0398  0.7848  0.4409
   7723SM   C2S10138   0.242   3.225  16.607 -0.3009 -0.5133  0.0001
   7723SM   H2S10139   0.315   3.291  16.556 -1.6376  0.8090 -0.2531
   7723SM   C3S10140   0.308   3.080  16.602  0.1439  0.1100 -0.8867
   7723SM   H3S10141   0.252   3.010  16.668 -0.4238  0.6492 -0.7811
   7723SM    O310142   0.437   3.086  16.659 -0.9571 -0.2678  0.7388
   7723SM   HO310143   0.434   3.156  16.725  2.2605 -1.3706  2.2559
   7723SM   C4S10144   0.317   3.019  16.466 -0.5593  0.8543 -0.0707
   7723SM   H4S10145   0.369   3.087  16.397  2.3582 -1.0739  0.0583
   7723SM   C5S10146   0.284   2.896  16.432  0.3321  0.1305  0.6175
   7723SM   H5S10147   0.249   2.826  16.509 -0.7627  1.4293  1.3447
   7723SM   C6S10148   0.300   2.836  16.290  0.2722 -0.6883  0.6825
   7723SM   H6S10149   0.223   2.759  16.268  0.4854 -0.9014  0.6853
   7723SM   H6T10150   0.393   2.776  16.287 -0.8884 -2.5482 -1.5914
   7723SM   C7S10151   0.275   2.922  16.162  0.0719 -0.6281 -0.2325
   7723SM   H7S10152   0.321   3.023  16.166 -1.4904  0.0998  0.0554
   7723SM   H7T10153   0.172   2.961  16.150  0.7430  1.2697 -0.1888
   7723SM   C8S10154   0.307   2.854  16.030  0.0756 -0.1141 -0.8463
   7723SM   H8S10155   0.233   2.771  16.020 -0.4133  0.3084 -0.7261
   7723SM   H8T10156   0.412   2.818  16.019  0.0401  0.3310 -3.2090
   7723SM   C9S10157   0.301   2.946  15.906  0.1322 -0.3026  0.0010
   7723SM   H9S10158   0.393   3.009  15.912  0.0516 -0.1921  0.0768
   7723SM   H9T10159   0.202   2.996  15.911  0.3660  0.0516  1.9206
   7723SM  C10S10160   0.314   2.859  15.776 -0.1912  0.2705 -0.2328
   7723SM  H10S10161   0.253   2.766  15.785 -2.1147  1.4937 -0.2081
   7723SM  H10T10162   0.417   2.821  15.756 -0.5357 -0.8191 -0.0331
   7723SM  C11S10163   0.267   2.935  15.652  0.9693  0.1679  0.1717
   7723SM  H11S10164   0.320   3.032  15.641 -1.3307  1.4353 -0.3112
   7723SM  H11T10165   0.156   2.943  15.647  1.1163  2.4386 -0.2724
   7723SM  C12S10166   0.317   2.858  15.523 -0.4805  0.0859 -0.0663
   7723SM  H12S10167   0.271   2.757  15.527 -1.1206  0.1836 -2.8007
   7723SM  H12T10168   0.428   2.853  15.524 -0.3027  2.1747 -1.4289
   7723SM  C13S10169   0.278   2.920  15.395 -0.3519 -0.1134 -0.3871
   7723SM  H13S10170   0.306   3.027  15.386  1.7012 -0.6237 -0.5142
   7723SM  H13T10171   0.167   2.917  15.390 -0.3777  0.2078 -0.0678
   7723SM  C14S10172   0.333   2.839  15.280 -0.4974 -0.0261  0.5043
   7723SM  H14S10173   0.285   2.740  15.293 -1.5648  0.5310  0.8881
   7723SM  H14T10174   0.444   2.835  15.294 -0.3660 -1.8080 -0.6896
   7723SM  C15S10175   0.292   2.899  15.142  0.0508  0.1273  0.9931
   7723SM  H15S10176   0.337   3.000  15.133  0.5816 -0.3084 -4.3183
   7723SM  H15T10177   0.181   2.904  15.135 -0.0683 -2.9450 -1.6015
   7723SM  C16S10178   0.340   2.809  15.028  0.6310 -0.4031 -0.6083
   7723SM  H16S10179   0.264   2.732  15.001  0.0112  0.5095 -1.5385
   7723SM  H16T10180   0.428   2.753  15.066  1.4442  1.4473  0.3582
   7723SM  C17S10181   0.383   2.880  14.897  0.1627 -0.1796 -0.1554
   7723SM  H17S10182   0.371   2.811  14.811  1.7009 -1.0792  0.3053
   7723SM  H17T10183   0.491   2.904  14.906 -0.4178  3.0302 -0.8334
   7723SM  C18S10184   0.302   3.007  14.865 -0.2990 -0.6559  0.0968
   7723SM  H18S10185   0.315   3.091  14.936  2.8370 -1.9501  1.2484
   7723SM  H18T10186   0.194   2.983  14.869 -0.8073  1.3669 -0.4104
   7723SM  H18U10187   0.319   3.046  14.763 -0.6298  0.2528  0.3871
   7723SM   C1F10188   0.081   3.361  16.505 -0.2661 -0.0077  0.7554
   7723SM    OF10189   0.157   3.458  16.505  0.4723 -0.0102  0.0754
   7723SM   C2F10190  -0.068   3.374  16.467  0.0961 -0.5081 -0.2626
   7723SM   H2F10191  -0.114   3.445  16.540 -1.0658  0.2268 -1.6736
   7723SM   H2G10192  -0.107   3.271  16.474  0.0171 -0.4478  0.2417
   7723SM   C3F10193  -0.081   3.423  16.321  0.7317 -0.5557  0.5899
   7723SM   H3F10194  -0.031   3.522  16.307  1.8549 -1.0179  1.1681
   7723SM   H3G10195  -0.188   3.437  16.297  0.9569 -2.8728 -2.4690
   7723SM   C4F10196  -0.029   3.322  16.227  0.0296 -0.6960 -0.5514
   7723SM   H4F10197  -0.087   3.230  16.247 -1.4693  0.0600 -1.2849
   7723SM   H4G10198   0.079   3.298  16.241  0.5725  1.6265 -0.2307
   7723SM   C5F10199  -0.040   3.366  16.075 -0.6716 -0.4043  0.0111
   7723SM   H5F10200  -0.000   3.287  16.007 -1.9315  0.2007 -1.4939
   7723SM   H5G10201   0.013   3.462  16.057 -1.0080 -0.6241 -2.5957
   7723SM   C6F10202  -0.184   3.395  16.043  0.5746 -0.1842  0.0759
   7723SM   H6F10203  -0.201   3.491  16.095 -0.2729 -0.1287 -0.2886
   7723SM   H6G10204  -0.238   3.321  16.106  0.3536 -0.1719 -0.0968
   7723SM   C7F10205  -0.228   3.393  15.901 -0.0807 -0.0393 -0.2272
   7723SM   H7F10206  -0.204   3.289  15.873  0.9735  0.4136 -1.1054
   7723SM   H7G10207  -0.166   3.467  15.845 -1.1820  0.7098 -0.4883
   7723SM   C8F10208  -0.372   3.443  15.892 -0.1037  0.0353 -0.4427
   7723SM   H8F10209  -0.390   3.543  15.936 -3.6966  1.0203 -3.5511
   7723SM   H8G10210  -0.436   3.387  15.962  0.8158  2.3797  2.4649
   7723SM   C9F10211  -0.427   3.473  15.756 -0.0093  0.1697  0.3532
   7723SM   H9F10212  -0.522   3.527  15.775 -1.6624 -2.6948  0.7214
   7723SM   H9G10213  -0.436   3.384  15.690  0.7365  1.5889 -1.8101
   7723SM  C10F10214  -0.333   3.567  15.677  0.0568 -0.0636  0.0931
   7723SM  H10F10215  -0.239   3.515  15.649 -0.3889 -0.6098 -0.4252
   7723SM  H10G10216  -0.304   3.656  15.737 -1.1152  0.9524 -0.7880
   7723SM  C11F10217  -0.401   3.607  15.543 -0.7440  0.1076  0.3251
   7723SM  H11F10218  -0.492   3.669  15.558 -1.9595 -1.6263  0.4708
   7723SM  H11G10219  -0.432   3.512  15.493 -1.1480  0.5962 -0.3764
   7723SM  C12F10220  -0.296   3.685  15.462 -0.1188  0.7078  0.7330
   7723SM  H12F10221  -0.205   3.621  15.472  0.8898  1.1900 -3.4489
   7723SM  H12G10222  -0.272   3.787  15.500  1.9516  0.8999 -0.9052
   7723SM  C13F10223  -0.330   3.700  15.314 -0.1587 -0.1326  0.1304
   7723SM  H13F10224  -0.241   3.754  15.274 -0.7219  1.4630  0.9685
   7723SM  H13G10225  -0.418   3.766  15.300  0.7651  0.7449 -2.1394
   7723SM  C14F10226  -0.353   3.569  15.236  0.1648 -0.6037 -0.8487
   7723SM  H14F10227  -0.456   3.529  15.249 -0.4215  1.5294  1.6858
   7723SM  H14G10228  -0.288   3.487  15.274 -0.2710 -0.9609 -0.8715
   7723SM  C15F10229  -0.336   3.587  15.084  0.5536  0.6007  0.5081
   7723SM  H15F10230  -0.269   3.672  15.058 -0.5069  1.3291  0.1365
   7723SM  H15G10231  -0.436   3.616  15.047  0.2063 -1.4673 -0.3153
   7723SM  C16F10232  -0.285   3.463  15.012  0.8623  0.5106 -0.5204
   7723SM  H16F10233  -0.346   3.377  15.046  0.9765  0.3292 -0.7787
   7723SM  H16G10234  -0.178   3.447  15.040  0.6018 -1.8160 -0.6736
   7723SM  C17F10235  -0.299   3.474  14.864 -0.3343  0.3137  0.2335
   7723SM  H17F10236  -0.399   3.468  14.814 -0.2319  0.0857  0.0524
   7723SM  H17G10237  -0.244   3.395  14.809  2.0591  2.6042 -0.8427
   7723SM  C18F10238  -0.238   3.601  14.801 -0.1325  0.4127 -0.1571
   7723SM  H18F10239  -0.136   3.627  14.838 -0.9088  1.6394  1.2705
   7723SM  H18G10240  -0.299   3.686  14.839  2.3406  2.9805 -1.4998
   7723SM  C19F10241  -0.242   3.599  14.651 -0.0744 -0.8193  0.4113
   7723SM  H19F10242  -0.337   3.556  14.612  0.9090 -3.7518  1.0443
   7723SM  H19G10243  -0.167   3.527  14.614  0.8814 -0.3885  1.4471
   7723SM  C20F10244  -0.220   3.734  14.582  0.6424 -0.5645  0.2633
   7723SM  H20F10245  -0.112   3.758  14.583  0.6154 -0.1392 -2.1564
   7723SM  H20G10246  -0.285   3.803  14.640 -1.4175 -1.8634 -0.3807
   7723SM  C21F10247  -0.262   3.746  14.438  0.5714  0.2131  0.5989
   7723SM  H21F10248  -0.230   3.844  14.396  0.7986  0.0918  0.4887
   7723SM  H21G10249  -0.373   3.747  14.441  0.5295 -0.7927  0.0385
   7723SM  C22F10250  -0.228   3.631  14.344 -0.2330  0.5749  0.7886
   7723SM  H22F10251  -0.272   3.651  14.244 -1.2174 -2.4726  0.4879
   7723SM  H22G10252  -0.278   3.540  14.386 -1.3839  0.4730 -0.7012
   7723SM  C23F10253  -0.080   3.601  14.325 -0.2228 -0.9291  0.0242
   7723SM  H23F10254  -0.024   3.687  14.281 -3.2099  0.7444 -0.8125
   7723SM  H23G10255  -0.067   3.511  14.260 -1.1298 -0.4929 -0.7887
   7723SM  H23H10256  -0.039   3.567  14.422  0.6902  0.8257  0.3054
   7823SM     N10257   0.297   0.473  16.898  0.5815  0.2561 -0.1623
   7823SM   C1510258   0.148   0.436  16.905 -0.1835 -0.2526 -0.6610
   7823SM  H15A10259   0.093   0.526  16.884  0.6805  0.7013  1.0066
   7823SM  H15B10260   0.124   0.391  17.001  0.4594  1.7512  0.4927
   7823SM  H15C10261   0.123   0.358  16.835  1.1898 -1.3961  0.0610
   7823SM   C1410262   0.338   0.571  17.001  0.9252  0.0707  0.3009
   7823SM  H14A10263   0.446   0.568  17.001  0.9108 -0.7329  0.3347
   7823SM  H14B10264   0.306   0.545  17.100  1.4067  1.2971  0.7994
   7823SM  H14C10265   0.294   0.666  16.974 -0.3001 -0.0962  1.5757
   7823SM   C1310266   0.382   0.350  16.923 -0.3649  0.2832 -0.4310
   7823SM  H13A10267   0.363   0.314  17.024  1.3952  1.5128  0.3812
   7823SM  H13B10268   0.481   0.392  16.922 -0.6911  1.1285  0.5129
   7823SM  H13C10269   0.365   0.265  16.858 -1.9745 -1.1395  1.6947
   7823SM   C1210270   0.331   0.531  16.761 -0.6333  0.4678  0.6950
   7823SM  H12A10271   0.277   0.624  16.748 -0.5891  0.4376  0.3070
   7823SM  H12B10272   0.302   0.466  16.680  2.0015  0.7086 -0.5482
   7823SM   C1110273   0.482   0.565  16.728  0.1447  0.2611  0.1444
   7823SM  H11A10274   0.491   0.596  16.622 -0.9550  0.1308  0.0003
   7823SM  H11B10275   0.537   0.471  16.746  0.1249  0.5886  2.2446
   7823SM     P10276   0.505   0.819  16.781  0.2242 -0.2614 -0.1548
   7823SM   O1310277   0.376   0.843  16.851  0.2549 -0.6144  0.2082
   7823SM   O1410278   0.619   0.894  16.831 -0.5297 -0.3893 -0.2604
   7823SM   O1110279   0.506   0.846  16.631  0.4004  0.3163 -0.0321
   7823SM   O1210280   0.538   0.668  16.813 -0.3913 -0.5314  0.0131
   7823SM   C1S10281   0.384   0.846  16.548 -0.0141 -0.4184 -0.1095
   7823SM   H1S10282   0.327   0.938  16.572 -0.6765 -0.5616 -1.0853
   7823SM   H1T10283   0.318   0.763  16.581 -1.5166  0.9916  0.5936
   7823SM    NF10284   0.283   0.853  16.335 -0.1102 -0.6453  0.3383
   7823SM   HNF10285   0.265   0.781  16.269 -0.9928 -0.6563  0.5764
   7823SM   C2S10286   0.409   0.836  16.395 -0.4559 -0.2106 -0.3243
   7823SM   H2S10287   0.474   0.922  16.367  0.7080 -0.5548  1.2057
   7823SM   C3S10288   0.494   0.718  16.358  1.3809  0.1782  0.5214
   7823SM   H3S10289   0.443   0.623  16.387 -0.5957  1.5930  2.0160
   7823SM    O310290   0.616   0.710  16.424  0.0136  0.1774  0.2770
   7823SM   HO310291   0.596   0.756  16.506 -0.3336 -1.4158  1.1159
   7823SM   C4S10292   0.501   0.700  16.204 -0.2826 -0.2699 -0.1045
   7823SM   H4S10293   0.426   0.631  16.162  0.5487 -1.1829 -0.1085
   7823SM   C5S10294   0.599   0.751  16.131  0.0243  0.2981  0.2453
   7823SM   H5S10295   0.678   0.816  16.172  0.1135  0.1993  0.2316
   7823SM   C6S10296   0.612   0.704  15.987 -0.2960  0.0094  0.8268
   7823SM   H6S10297   0.704   0.645  15.965  0.4892  0.9375  1.5557
   7823SM   H6T10298   0.621   0.787  15.914 -0.7314 -1.3991 -0.8956
   7823SM   C7S10299   0.501   0.609  15.927  0.5014 -0.6297  0.3147
   7823SM   H7S10300   0.401   0.655  15.933  0.4218 -0.2220 -2.5610
   7823SM   H7T10301   0.500   0.520  15.994 -1.3304 -0.6620  0.2777
   7823SM   C8S10302   0.531   0.567  15.785  0.7163  0.2177  0.3757
   7823SM   H8S10303   0.434   0.531  15.744  0.3139 -0.0978  1.5426
   7823SM   H8T10304   0.595   0.476  15.782 -0.7792 -0.8388 -0.3296
   7823SM   C9S10305   0.582   0.676  15.694 -0.0997  0.2661  0.1512
   7823SM   H9S10306   0.683   0.716  15.716 -0.8245  3.4584 -1.5952
   7823SM   H9T10307   0.516   0.765  15.685  1.7660  1.6172 -0.7776
   7823SM  C10S10308   0.596   0.635  15.542 -0.2876 -0.1071 -0.4092
   7823SM  H10S10309   0.499   0.593  15.507  0.6342 -1.8464 -1.0016
   7823SM  H10T10310   0.673   0.558  15.566  0.6603  0.9611  0.1016
   7823SM  C11S10311   0.661   0.740  15.448  0.4484  0.2932  0.1808
   7823SM  H11S10312   0.745   0.789  15.503 -0.3973  1.7339  0.2373
   7823SM  H11T10313   0.576   0.806  15.421 -0.5720 -1.3515 -0.7575
   7823SM  C12S10314   0.712   0.676  15.328 -0.0045  0.2429 -0.4445
   7823SM  H12S10315   0.805   0.618  15.344 -0.3524  0.3037  2.2167
   7823SM  H12T10316   0.759   0.760  15.273 -0.4443  0.0518 -1.1247
   7823SM  C13S10317   0.608   0.603  15.236 -0.4743  0.2824  0.2555
   7823SM  H13S10318   0.556   0.670  15.165 -1.3330 -0.0537  0.5563
   7823SM  H13T10319   0.528   0.556  15.297 -0.7069 -0.6666 -0.7349
   7823SM  C14S10320   0.692   0.507  15.152 -0.0799 -0.1054 -0.1097
   7823SM  H14S10321   0.631   0.454  15.075 -1.2621 -1.1109  1.4707
   7823SM  H14T10322   0.737   0.437  15.225  0.3713  0.6604  0.3502
   7823SM  C15S10323   0.809   0.576  15.074  0.4267  0.1831  0.4348
   7823SM  H15S10324   0.897   0.608  15.134 -0.7577  0.4031  2.1239
   7823SM  H15T10325   0.773   0.671  15.028  1.5992  1.2120  1.5437
   7823SM  C16S10326   0.867   0.496  14.958 -0.5376  0.0100 -0.2949
   7823SM  H16S10327   0.789   0.496  14.879 -1.2772 -1.3300  0.3964
   7823SM  H16T10328   0.897   0.393  14.988  2.1332  0.7585 -0.1442
   7823SM  C17S10329   1.006   0.533  14.900 -0.0410  0.7432  0.7267
   7823SM  H17S10330   1.014   0.469  14.809 -1.7583 -0.8816  1.6390
   7823SM  H17T10331   1.083   0.505  14.975 -0.3445  0.7107  1.0311
   7823SM  C18S10332   0.998   0.680  14.866  0.1727 -0.2185 -0.0690
   7823SM  H18S10333   0.982   0.738  14.960 -2.1937 -2.9847  1.4003
   7823SM  H18T10334   0.918   0.710  14.796  0.4299  0.6407 -0.0048
   7823SM  H18U10335   1.097   0.713  14.829 -0.3598  1.5197 -0.0094
   7823SM   C1F10336   0.197   0.961  16.329  0.0827 -0.0461 -0.2891
   7823SM    OF10337   0.225   1.058  16.406  0.8550  1.3350 -0.1981
   7823SM   C2F10338   0.070   0.964  16.245  0.0674  0.0019 -0.4021
   7823SM   H2F10339   0.040   1.067  16.219 -0.3400 -0.2594 -0.9800
   7823SM   H2G10340  -0.014   0.934  16.312  0.6497 -1.4536 -0.2840
   7823SM   C3F10341   0.076   0.886  16.114 -0.0960  0.5439  0.4219
   7823SM   H3F10342  -0.030   0.875  16.082 -0.7762  2.1755  1.9627
   7823SM   H3G10343   0.123   0.785  16.124  0.3300  0.6847 -0.1195
   7823SM   C4F10344   0.156   0.967  16.005 -0.1868  0.2352  0.0840
   7823SM   H4F10345   0.262   0.976  16.038 -0.3211 -1.3202  1.0546
   7823SM   H4G10346   0.111   1.067  15.991 -0.2904 -0.0783 -2.2571
   7823SM   C5F10347   0.153   0.899  15.869  0.3501  0.0990 -0.3991
   7823SM   H5F10348   0.048   0.879  15.838 -0.7992  0.5018  2.8187
   7823SM   H5G10349   0.201   0.799  15.871 -1.5972 -0.9783  3.5868
   7823SM   C6F10350   0.207   0.983  15.742  0.1307  0.1786  1.3933
   7823SM   H6F10351   0.317   0.992  15.754  0.6829  0.1672 -2.3677
   7823SM   H6G10352   0.164   1.085  15.733  1.7879  0.8220  0.4210
   7823SM   C7F10353   0.192   0.894  15.617 -0.2185 -0.3484  0.0783
   7823SM   H7F10354   0.083   0.876  15.616 -0.2966 -0.0723 -2.4331
   7823SM   H7G10355   0.232   0.793  15.640 -0.8397 -0.4807  0.6091
   7823SM   C8F10356   0.244   0.955  15.486  0.7406 -0.4244 -0.1247
   7823SM   H8F10357   0.354   0.967  15.493  0.7769  0.5499 -1.8915
   7823SM   H8G10358   0.203   1.054  15.457  0.3051 -0.3115  0.8288
   7823SM   C9F10359   0.228   0.859  15.366 -0.6240 -0.1735  0.2280
   7823SM   H9F10360   0.121   0.845  15.337 -0.5142 -0.2267 -0.1594
   7823SM   H9G10361   0.275   0.767  15.407 -1.7852 -0.7059  0.4104
   7823SM  C10F10362   0.314   0.913  15.251  0.4682 -0.5827  0.3490
   7823SM  H10F10363   0.419   0.930  15.280  1.1552 -0.4950 -1.9447
   7823SM  H10G10364   0.280   1.016  15.226 -0.2603 -0.0788  3.1216
   7823SM  C11F10365   0.306   0.830  15.114  0.0610  0.0117 -0.2608
   7823SM  H11F10366   0.200   0.852  15.088 -0.4292 -1.0192  0.7999
   7823SM  H11G10367   0.325   0.722  15.129 -0.9530 -0.0438  0.7235
   7823SM  C12F10368   0.411   0.881  15.009  0.3273 -0.0356 -0.2605
   7823SM  H12F10369   0.515   0.881  15.048  0.5770 -0.1601 -0.9169
   7823SM  H12G10370   0.384   0.989  14.999  0.2696 -0.0800 -0.5834
   7823SM  C13F10371   0.405   0.801  14.879 -0.5410 -0.0444  0.5972
   7823SM  H13F10372   0.300   0.804  14.844 -0.3790 -0.4697  0.0589
   7823SM  H13G10373   0.436   0.696  14.893 -0.1963 -0.1463 -0.7668
   7823SM  C14F10374   0.494   0.861  14.769  0.2477  0.6706  0.2600
   7823SM  H14F10375   0.602   0.861  14.793 -0.2576 -0.6355  2.8641
   7823SM  H14G10376   0.460   0.965  14.751  1.3206  0.8360 -0.9390
   7823SM  C15F10377   0.479   0.788  14.634 -0.5483 -0.3333 -0.1400
   7823SM  H15F10378   0.374   0.795  14.599 -0.4184  2.1895 -0.2318
   7823SM  H15G10379   0.508   0.682  14.651  3.9009  0.3703 -1.8612
   7823SM  C16F10380   0.568   0.849  14.519  0.0327 -0.3000 -0.4164
   7823SM  H16F10381   0.554   0.959  14.515 -0.0665  0.0467  4.0147
   7823SM  H16G10382   0.538   0.809  14.420 -0.2798 -0.1628 -0.3800
   7823SM  C17F10383   0.717   0.819  14.526 -0.3625  0.5667  0.4895
   7823SM  H17F10384   0.762   0.864  14.616  1.5123 -1.1455  0.4930
   7823SM  H17G10385   0.765   0.859  14.434 -0.6815  0.3414  0.2225
   7823SM  C18F10386   0.740   0.666  14.533  0.5980 -0.0972 -0.3837
   7823SM  H18F10387   0.709   0.624  14.631  2.7370  0.1795  0.4551
   7823SM  H18G10388   0.850   0.651  14.533  0.3144 -2.5347  0.5228
   7823SM  C19F10389   0.680   0.579  14.417 -0.0490 -0.3098 -0.8652
   7823SM  H19F10390   0.694   0.628  14.319 -0.7144  2.7186  0.4324
   7823SM  H19G10391   0.571   0.568  14.434  0.3993 -2.7834  0.9824
   7823SM  C20F10392   0.740   0.438  14.396 -0.1662  0.1083 -0.5675
   7823SM  H20F10393   0.799   0.417  14.488 -1.5120 -0.4368  0.2063
   7823SM  H20G10394   0.824   0.441  14.324 -0.3057  0.2127 -0.7251
   7823SM  C21F10395   0.632   0.332  14.372 -0.0874  0.4270  0.6651
   7823SM  H21F10396   0.552   0.329  14.449  1.5185 -1.3061  2.3672
   7823SM  H21G10397   0.675   0.230  14.376  0.6567  0.6107 -1.6223
   7823SM  C22F10398   0.575   0.346  14.226  0.4092 -0.5054  0.0732
   7823SM  H22F10399   0.520   0.442  14.221  1.9511  0.4256  0.2794
   7823SM  H22G10400   0.495   0.271  14.207  0.7594 -0.6144 -1.0403
   7823SM  C23F10401   0.681   0.326  14.116 -1.4242  0.5578  0.2952
   7823SM  H23F10402   0.703   0.222  14.084 -2.0608  0.2177  0.9277
   7823SM  H23G10403   0.767   0.395  14.134 -1.5622  0.4347  1.5496
   7823SM  H23H10404   0.645   0.368  14.020 -0.3997  2.2655  0.6098
   7923SM     N10405   5.139   1.691  17.150  0.7766  0.2306  0.0483
   7923SM   C1510406   5.194   1.763  17.267 -0.7429  0.1988 -0.1817
   7923SM  H15A10407   5.258   1.840  17.225 -0.2544 -1.8533 -3.6026
   7923SM  H15B10408   5.257   1.700  17.328 -1.4833 -0.1108  0.2676
   7923SM  H15C10409   5.126   1.808  17.338  0.8638  3.4899 -0.4834
   7923SM   C1410410   5.026   1.601  17.205  0.1671 -0.4818  0.2908
   7923SM  H14A10411   4.937   1.658  17.225  0.1963  0.3975 -1.8511
   7923SM  H14B10412   5.057   1.546  17.293  1.5559 -2.1419 -1.1463
   7923SM  H14C10413   5.004   1.531  17.126  0.4151 -0.5114  0.2443
   7923SM   C1310414   5.079   1.774  17.047  0.5679 -0.6456  0.2047
   7923SM  H13A10415   5.000   1.836  17.087  1.0088  0.9509 -1.2729
   7923SM  H13B10416   5.043   1.706  16.972  0.4681  0.6272 -0.9477
   7923SM  H13C10417   5.151   1.841  17.002 -1.9491  1.2671 -1.2625
   7923SM   C1210418   5.255   1.615  17.090 -0.4415  0.1726  0.1585
   7923SM  H12A10419   5.298   1.545  17.161 -1.2362 -1.8663 -1.2600
   7923SM  H12B10420   5.328   1.688  17.058 -1.9273  1.6935  0.0863
   7923SM   C1110421   5.215   1.527  16.969 -0.3168 -0.6748  0.7650
   7923SM  H11A10422   5.299   1.486  16.908 -0.1902  0.5499  0.0865
   7923SM  H11B10423   5.163   1.592  16.895  0.1075 -0.5982  0.5279
   7923SM     P10424   5.204   1.291  17.078 -0.4401  0.3083  0.1873
   7923SM   O1310425   5.297   1.334  17.182 -0.1174  0.5881 -0.1755
   7923SM   O1410426   5.100   1.191  17.116  0.4217  0.2618  0.3416
   7923SM   O1110427   5.292   1.239  16.957 -0.1037  0.1956  0.1647
   7923SM   O1210428   5.135   1.418  17.009  0.3453 -0.6601 -0.0430
   7923SM   C1S10429   5.221   1.174  16.845 -0.1032 -0.5543  0.1169
   7923SM   H1S10430   5.111   1.164  16.859  0.0614 -0.1638  1.8441
   7923SM   H1T10431   5.251   1.069  16.823 -0.8248 -0.2913 -2.4905
   7923SM    NF10432   5.176   1.184  16.607  0.4840  0.1887  0.2363
   7923SM   HNF10433   5.226   1.118  16.552 -1.7061  0.9624 -2.9268
   7923SM   C2S10434   5.245   1.246  16.714 -0.3218 -0.7256  0.4384
   7923SM   H2S10435   5.205   1.349  16.723 -0.7490 -0.7650 -0.7715
   7923SM   C3S10436   5.399   1.265  16.675 -0.1103  0.3413  0.4795
   7923SM   H3S10437   5.443   1.169  16.643 -0.4061  0.3335  0.0941
   7923SM    O310438   5.482   1.306  16.788 -0.1609 -0.2097 -0.3720
   7923SM   HO310439   5.436   1.275  16.866  1.6953  0.0355  0.8771
   7923SM   C4S10440   5.411   1.354  16.554 -0.3899 -0.2984  0.7775
   7923SM   H4S10441   5.400   1.305  16.455 -0.0540 -0.2640  0.7238
   7923SM   C5S10442   5.442   1.482  16.550 -0.3627  0.1705  0.6132
   7923SM   H5S10443   5.471   1.536  16.641 -0.2101 -0.5354  0.9923
   7923SM   C6S10444   5.456   1.553  16.416 -1.0086  0.3450 -0.1949
   7923SM   H6S10445   5.460   1.479  16.333  1.0879  0.7345 -0.5006
   7923SM   H6T10446   5.559   1.595  16.422 -0.9705  0.0118  2.5543
   7923SM   C7S10447   5.353   1.651  16.392  1.0634 -1.2615  0.3887
   7923SM   H7S10448   5.365   1.746  16.448 -0.1221 -0.5717 -0.4845
   7923SM   H7T10449   5.257   1.611  16.430  0.8276 -1.8348 -0.7552
   7923SM   C8S10450   5.341   1.678  16.239 -1.0640  0.3227 -0.7163
   7923SM   H8S10451   5.286   1.589  16.201  1.3065 -1.6364  0.2105
   7923SM   H8T10452   5.447   1.685  16.209 -0.5086 -0.7954  0.8755
   7923SM   C9S10453   5.276   1.812  16.211  0.3543 -0.3696 -0.3790
   7923SM   H9S10454   5.334   1.895  16.258  2.7100 -1.4091 -1.3204
   7923SM   H9T10455   5.177   1.813  16.263  1.2423  1.4876  1.4430
   7923SM  C10S10456   5.263   1.853  16.059 -0.2335  0.0960  0.0164
   7923SM  H10S10457   5.361   1.832  16.010 -0.4982 -0.6437 -0.1979
   7923SM  H10T10458   5.248   1.963  16.057 -0.5744  0.1084  1.5858
   7923SM  C11S10459   5.154   1.785  15.977  0.5332  0.2333  0.3387
   7923SM  H11S10460   5.055   1.804  16.023 -0.0295 -1.4537 -0.0888
   7923SM  H11T10461   5.172   1.676  15.990  1.6107  0.6439  2.7440
   7923SM  C12S10462   5.146   1.822  15.826 -0.6778  0.0964  0.6322
   7923SM  H12S10463   5.122   1.930  15.816  0.5737  0.2557 -1.0576
   7923SM  H12T10464   5.060   1.773  15.775 -1.2422  2.5885 -0.9861
   7923SM  C13S10465   5.276   1.802  15.738 -0.6947  0.7804  0.3665
   7923SM  H13S10466   5.284   1.695  15.709 -2.4789  0.9528 -0.8531
   7923SM  H13T10467   5.374   1.833  15.781  1.0872 -0.4731 -2.4903
   7923SM  C14S10468   5.252   1.880  15.606 -1.0056  0.3602  0.0456
   7923SM  H14S10469   5.346   1.883  15.548 -0.7214  0.5756  0.5162
   7923SM  H14T10470   5.237   1.988  15.631  0.1328  0.9307 -1.5351
   7923SM  C15S10471   5.135   1.836  15.517  0.1761 -0.2542  0.1261
   7923SM  H15S10472   5.037   1.856  15.566  0.1885  0.8025 -0.2426
   7923SM  H15T10473   5.133   1.726  15.500 -3.0799 -0.5381  1.5195
   7923SM  C16S10474   5.144   1.905  15.379  0.7611 -0.6181 -0.3460
   7923SM  H16S10475   5.166   2.013  15.395 -1.2811 -0.6330  3.6636
   7923SM  H16T10476   5.042   1.906  15.333  0.4429  1.2931  0.3268
   7923SM  C17S10477   5.252   1.844  15.286  0.3590  0.5529  0.4179
   7923SM  H17S10478   5.210   1.744  15.262 -1.6810  1.6439 -0.8775
   7923SM  H17T10479   5.349   1.835  15.339 -0.2803  1.9758  1.8973
   7923SM  C18S10480   5.256   1.932  15.168 -0.8389 -1.0904  0.1151
   7923SM  H18S10481   5.158   1.912  15.120  0.0630 -2.7060 -1.1627
   7923SM  H18T10482   5.341   1.919  15.098 -0.0208  0.7676  0.7100
   7923SM  H18U10483   5.271   2.040  15.190 -0.8798 -0.7285 -1.4724
   7923SM   C1F10484   5.041   1.181  16.600  0.4459 -0.5955 -0.3145
   7923SM    OF10485   4.972   1.236  16.689  0.3340 -0.0041 -0.3023
   7923SM   C2F10486   4.986   1.114  16.489 -0.0013  0.1205 -0.3346
   7923SM   H2F10487   4.998   1.004  16.502 -0.4788 -0.2866 -2.8014
   7923SM   H2G10488   5.043   1.142  16.398  0.6029  0.0180  0.0097
   7923SM   C3F10489   4.835   1.141  16.456 -0.5122 -0.3089 -0.6568
   7923SM   H3F10490   4.831   1.252  16.450  0.0123 -0.2264  0.3540
   7923SM   H3G10491   4.761   1.118  16.536  0.6352  1.4946  1.0410
   7923SM   C4F10492   4.783   1.086  16.325  0.2815 -0.8048  0.2756
   7923SM   H4F10493   4.786   0.975  16.333  2.0259 -0.6512  2.8566
   7923SM   H4G10494   4.847   1.127  16.244 -0.2391 -2.6470 -1.1656
   7923SM   C5F10495   4.639   1.129  16.278  0.2213  0.9474  0.0350
   7923SM   H5F10496   4.615   1.234  16.306 -1.2642  0.5003  0.5190
   7923SM   H5G10497   4.578   1.064  16.345  2.3435  0.0813  1.2218
   7923SM   C6F10498   4.616   1.084  16.138 -0.1902  0.2050 -0.0660
   7923SM   H6F10499   4.508   1.073  16.115 -0.2092 -4.3697  1.1939
   7923SM   H6G10500   4.666   0.985  16.133 -0.1944  0.2439 -1.7208
   7923SM   C7F10501   4.684   1.183  16.038 -0.2671  0.6186 -0.2950
   7923SM   H7F10502   4.793   1.189  16.056 -0.2825 -1.3054  0.6624
   7923SM   H7G10503   4.645   1.285  16.058 -0.3799  0.2987  1.1946
   7923SM   C8F10504   4.658   1.134  15.897  0.0153 -0.2513  0.7294
   7923SM   H8F10505   4.549   1.121  15.877  0.1842  0.5248 -0.8170
   7923SM   H8G10506   4.712   1.038  15.887  0.0861 -0.1145 -0.3119
   7923SM   C9F10507   4.713   1.229  15.792 -0.4516 -0.0739  0.2896
   7923SM   H9F10508   4.822   1.230  15.814 -0.0921 -3.9198 -0.4874
   7923SM   H9G10509   4.681   1.333  15.812  0.8192  0.2533  0.7569
   7923SM  C10F10510   4.696   1.173  15.644  0.2110 -0.0894  0.2765
   7923SM  H10F10511   4.589   1.163  15.617  0.3997  4.5155 -3.3885
   7923SM  H10G10512   4.741   1.071  15.640 -1.2745 -0.7965  0.6845
   7923SM  C11F10513   4.758   1.255  15.531  1.0899 -0.0454 -0.3411
   7923SM  H11F10514   4.852   1.305  15.563  0.0389  0.9930  1.2960
   7923SM  H11G10515   4.691   1.343  15.520  0.5452 -0.1934  1.4727
   7923SM  C12F10516   4.769   1.187  15.395  0.3519  0.8281  0.1331
   7923SM  H12F10517   4.676   1.129  15.374  0.6529  0.6198 -0.6539
   7923SM  H12G10518   4.857   1.122  15.413  0.2853  0.4778 -0.7406
   7923SM  C13F10519   4.786   1.280  15.277  0.1944 -0.2455  0.9287
   7923SM  H13F10520   4.858   1.359  15.306  2.2963 -1.9626  0.6100
   7923SM  H13G10521   4.694   1.336  15.251  1.7524  1.5633 -1.0001
   7923SM  C14F10522   4.826   1.202  15.145 -0.2877  1.4070 -0.2747
   7923SM  H14F10523   4.765   1.111  15.129  0.3458  1.0852 -0.9114
   7923SM  H14G10524   4.930   1.165  15.163 -0.5112  0.7360 -0.3436
   7923SM  C15F10525   4.835   1.289  15.023 -0.0857 -0.0302  0.0107
   7923SM  H15F10526   4.926   1.353  15.017  1.0295 -1.6067 -0.6101
   7923SM  H15G10527   4.739   1.344  15.009 -0.9354 -1.3803  0.4200
   7923SM  C16F10528   4.843   1.200  14.896  0.0923  0.0638  0.6787
   7923SM  H16F10529   4.749   1.141  14.898 -0.5627  1.0701  0.4623
   7923SM  H16G10530   4.936   1.138  14.898 -0.1095 -0.2187  1.4140
   7923SM  C17F10531   4.846   1.285  14.773  0.4339  0.1378  0.0696
   7923SM  H17F10532   4.947   1.331  14.781  1.9652 -3.0783  1.3832
   7923SM  H17G10533   4.773   1.368  14.772  0.9772  0.6531 -2.0513
   7923SM  C18F10534   4.834   1.192  14.652 -0.0820 -0.2415  0.0990
   7923SM  H18F10535   4.728   1.160  14.646  0.2592 -1.6197  1.0339
   7923SM  H18G10536   4.886   1.096  14.667  0.7369  0.1360 -0.2477
   7923SM  C19F10537   4.893   1.250  14.526 -0.4944 -0.2058 -0.4372
   7923SM  H19F10538   4.995   1.290  14.544 -0.3609 -1.0569  0.9310
   7923SM  H19G10539   4.833   1.337  14.493 -0.4559  0.0871  0.2429
   7923SM  C20F10540   4.880   1.154  14.413  0.6340  0.5472  1.0072
   7923SM  H20F10541   4.928   1.058  14.440 -0.1591 -0.1412  0.0437
   7923SM  H20G10542   4.922   1.200  14.321 -3.8658  1.1925 -0.9899
   7923SM  C21F10543   4.737   1.107  14.376 -0.6191 -0.7147  0.4258
   7923SM  H21F10544   4.678   1.196  14.346 -0.9912 -1.6023 -1.6786
   7923SM  H21G10545   4.684   1.074  14.468  0.1314 -0.4383  0.9725
   7923SM  C22F10546   4.725   1.012  14.262  0.4468  0.2625  0.5201
   7923SM  H22F10547   4.778   0.921  14.298  0.2263  0.9979  2.9118
   7923SM  H22G10548   4.782   1.042  14.172 -2.0967 -3.0275 -2.4310
   7923SM  C23F10549   4.586   0.993  14.207  0.2582 -0.1338  0.1670
   7923SM  H23F10550   4.560   1.089  14.157  1.0406 -0.6953 -1.4080
   7923SM  H23G10551   4.506   0.961  14.277  1.0464 -2.3583  0.1338
   7923SM  H23H10552   4.596   0.916  14.128  0.5238  0.0972 -0.0300
   8023SM     N10553   6.616   1.666  16.735  0.2009  0.6044  0.3125
   8023SM   C1510554   6.543   1.793  16.694 -0.1003 -0.4506  0.6919
   8023SM  H15A10555   6.456   1.803  16.756  0.2404  0.1453  1.0861
   8023SM  H15B10556   6.517   1.801  16.589  0.3010  0.8093  0.6766
   8023SM  H15C10557   6.594   1.884  16.721  1.7004 -1.1071 -0.3134
   8023SM   C1410558   6.754   1.673  16.689  0.4255  0.2750 -0.0212
   8023SM  H14A10559   6.803   1.764  16.724  2.4858 -1.1087  0.9106
   8023SM  H14B10560   6.754   1.682  16.581  0.3596  1.7623  0.0760
   8023SM  H14C10561   6.817   1.590  16.716 -0.1821  0.3718  1.8474
   8023SM   C1310562   6.623   1.665  16.883  0.2311 -0.5224 -0.4770
   8023SM  H13A10563   6.530   1.665  16.939 -0.1341 -1.2407 -1.0756
   8023SM  H13B10564   6.686   1.746  16.915 -0.2736 -0.2977 -0.0235
   8023SM  H13C10565   6.671   1.579  16.927  1.6961  0.1567 -0.7042
   8023SM   C1210566   6.544   1.541  16.696 -0.1857 -0.8407  0.2872
   8023SM  H12A10567   6.456   1.533  16.759 -0.5227 -1.4356 -0.2527
   8023SM  H12B10568   6.604   1.457  16.726 -0.8994 -0.5445  2.7852
   8023SM   C1110569   6.495   1.534  16.551 -0.8005 -0.1299  0.0688
   8023SM  H11A10570   6.439   1.628  16.533 -0.6223  0.2256  1.2700
   8023SM  H11B10571   6.431   1.447  16.528  1.0061 -0.9938 -2.1060
   8023SM     P10572   6.684   1.380  16.445 -0.0752  0.6903  0.0567
   8023SM   O1310573   6.805   1.403  16.359  0.2344  0.0139 -0.0741
   8023SM   O1410574   6.709   1.309  16.568  0.7317  0.1188 -0.3127
   8023SM   O1110575   6.573   1.306  16.359 -0.0236  0.2162 -0.4750
   8023SM   O1210576   6.615   1.527  16.467  0.4693 -0.1575  0.3785
   8023SM   C1S10577   6.531   1.370  16.236 -0.0928 -0.2813  0.3201
   8023SM   H1S10578   6.613   1.372  16.161 -1.3287 -0.3889 -1.1051
   8023SM   H1T10579   6.494   1.473  16.254 -0.5648 -0.3362 -0.2847
   8023SM    NF10580   6.405   1.330  16.025 -0.1457  0.4371 -0.5809
   8023SM   HNF10581   6.341   1.401  15.997 -0.1390  1.0312  0.8229
   8023SM   C2S10582   6.413   1.296  16.162 -0.8187 -0.4489 -0.5248
   8023SM   H2S10583   6.448   1.191  16.153  0.4901  0.1277 -3.3616
   8023SM   C3S10584   6.280   1.297  16.243 -0.2194  0.1792  0.0371
   8023SM   H3S10585   6.218   1.389  16.236  0.2362  0.6065  1.2697
   8023SM    O310586   6.298   1.279  16.380 -0.4819  0.7353  0.6055
   8023SM   HO310587   6.389   1.303  16.400 -1.1035  1.4899  2.7419
   8023SM   C4S10588   6.196   1.185  16.192 -0.3356 -0.0842  0.8008
   8023SM   H4S10589   6.245   1.089  16.171  2.1778  1.2063  0.4531
   8023SM   C5S10590   6.063   1.191  16.163  0.4675 -0.1484 -0.4293
   8023SM   H5S10591   6.008   1.286  16.165 -0.1677 -0.5161  1.4767
   8023SM   C6S10592   5.998   1.074  16.102  0.5657 -0.1041  0.1031
   8023SM   H6S10593   5.901   1.047  16.148 -0.9748  0.5646 -2.5427
   8023SM   H6T10594   6.061   0.982  16.108 -1.5444 -1.5845  0.5227
   8023SM   C7S10595   5.985   1.097  15.948  0.5453  0.3319  0.1601
   8023SM   H7S10596   5.916   1.181  15.925 -0.6304 -0.8957 -0.9943
   8023SM   H7T10597   5.926   1.005  15.926  0.7158  0.4082 -0.6306
   8023SM   C8S10598   6.103   1.102  15.858 -0.0431  0.0897  0.6233
   8023SM   H8S10599   6.188   1.038  15.888  0.0079 -0.4547 -0.6605
   8023SM   H8T10600   6.137   1.208  15.862 -0.7651  0.2958  2.1877
   8023SM   C9S10601   6.064   1.058  15.716  0.3917 -0.2134 -0.2412
   8023SM   H9S10602   5.967   1.107  15.692  0.8990  1.0774  0.2129
   8023SM   H9T10603   6.046   0.949  15.709  0.6119 -0.3936  1.6064
   8023SM  C10S10604   6.158   1.113  15.614  0.3032 -0.7849  0.6377
   8023SM  H10S10605   6.262   1.073  15.616  0.2826 -0.8463  0.5310
   8023SM  H10T10606   6.164   1.221  15.640 -1.9742 -0.3469 -0.3691
   8023SM  C11S10607   6.110   1.076  15.473  0.8374 -0.0828  0.2408
   8023SM  H11S10608   6.005   1.110  15.469  0.9658  0.3890  0.6700
   8023SM  H11T10609   6.100   0.966  15.472 -0.1000 -0.0044  0.5004
   8023SM  C12S10610   6.189   1.139  15.358 -0.0835  0.2984 -0.2455
   8023SM  H12S10611   6.296   1.112  15.372  0.0790 -0.7618 -2.9086
   8023SM  H12T10612   6.174   1.249  15.352 -1.3275  0.1251 -0.6955
   8023SM  C13S10613   6.138   1.088  15.225 -0.0728  0.3984  0.6489
   8023SM  H13S10614   6.032   1.115  15.203  0.3023  1.1391 -0.2924
   8023SM  H13T10615   6.139   0.978  15.237  0.6842  0.3706  0.3580
   8023SM  C14S10616   6.231   1.135  15.115 -0.4420  0.3097  0.3074
   8023SM  H14S10617   6.336   1.103  15.133 -0.8097 -0.3756  1.3443
   8023SM  H14T10618   6.231   1.246  15.116  0.1062  0.3111  0.5799
   8023SM  C15S10619   6.197   1.085  14.974 -0.1038 -0.9417  0.2646
   8023SM  H15S10620   6.092   1.114  14.950 -0.3544 -2.9084 -1.2946
   8023SM  H15T10621   6.193   0.974  14.976  1.0755 -0.9923  0.2757
   8023SM  C16S10622   6.305   1.133  14.877 -0.5207  0.3766 -0.0986
   8023SM  H16S10623   6.399   1.079  14.898 -1.9469 -1.9713  0.6333
   8023SM  H16T10624   6.315   1.243  14.891 -0.0030  0.4037 -0.6216
   8023SM  C17S10625   6.261   1.105  14.736  0.6056 -0.1383  0.3531
   8023SM  H17S10626   6.183   1.181  14.713  1.4081  0.4455 -0.5082
   8023SM  H17T10627   6.207   1.008  14.735 -1.2064  0.7241  2.8223
   8023SM  C18S10628   6.364   1.100  14.624  0.5341  0.3058 -0.3967
   8023SM  H18S10629   6.422   1.194  14.636 -1.6598  1.6803 -0.1228
   8023SM  H18T10630   6.317   1.095  14.524  0.8467  0.8938 -0.5768
   8023SM  H18U10631   6.437   1.017  14.640  0.8068  0.2353 -1.8462
   8023SM   C1F10632   6.486   1.292  15.928 -0.2476  0.4856  0.2061
   8023SM    OF10633   6.584   1.227  15.955 -0.4352 -0.4317  0.2806
   8023SM   C2F10634   6.457   1.333  15.790  0.3296  0.2690  0.5873
   8023SM   H2F10635   6.475   1.443  15.783  1.1895  0.1323  0.5234
   8023SM   H2G10636   6.349   1.312  15.771  0.3342 -0.1686  1.0316
   8023SM   C3F10637   6.545   1.255  15.693  0.4694 -0.2372  0.3387
   8023SM   H3F10638   6.535   1.146  15.711  1.8696 -0.8204 -2.0368
   8023SM   H3G10639   6.649   1.291  15.705  0.6551 -0.1886 -1.2568
   8023SM   C4F10640   6.521   1.281  15.546  0.1440 -0.0259 -0.1522
   8023SM   H4F10641   6.547   1.388  15.527 -0.0089  0.0052 -0.1901
   8023SM   H4G10642   6.413   1.272  15.523 -0.3648  1.3831  1.5033
   8023SM   C5F10643   6.619   1.203  15.468 -0.1144  0.1228  0.2472
   8023SM   H5F10644   6.604   1.096  15.493  0.1596  0.2318  0.8984
   8023SM   H5G10645   6.728   1.224  15.474  0.2861 -1.2510 -1.5343
   8023SM   C6F10646   6.587   1.223  15.316 -0.0746  0.1865 -0.1873
   8023SM   H6F10647   6.625   1.327  15.307 -0.8001  0.6707  1.8535
   8023SM   H6G10648   6.481   1.231  15.285 -0.3288 -1.2937  0.2221
   8023SM   C7F10649   6.660   1.132  15.224  0.3318 -0.1343 -0.7826
   8023SM   H7F10650   6.618   1.029  15.227  2.5026 -1.0452  0.2441
   8023SM   H7G10651   6.764   1.116  15.259 -0.7232 -2.9573  1.6024
   8023SM   C8F10652   6.651   1.187  15.082 -0.8200 -0.0321  1.2945
   8023SM   H8F10653   6.685   1.293  15.077  0.5934 -0.5169 -0.5151
   8023SM   H8G10654   6.545   1.191  15.047 -0.5527 -0.8534  0.3516
   8023SM   C9F10655   6.739   1.104  14.989  0.2613  0.0358  0.4936
   8023SM   H9F10656   6.706   1.000  15.010 -0.6359  0.5126  1.5146
   8023SM   H9G10657   6.839   1.115  15.035 -0.3440  1.0703  1.6416
   8023SM  C10F10658   6.712   1.137  14.840  0.5552  0.1658 -0.1867
   8023SM  H10F10659   6.767   1.228  14.809  1.3935 -1.1523 -2.9060
   8023SM  H10G10660   6.605   1.162  14.824 -0.0765 -1.7458  0.6759
   8023SM  C11F10661   6.756   1.031  14.737  0.9015 -0.8908 -0.8107
   8023SM  H11F10662   6.692   0.940  14.738 -2.1850  1.0791 -2.6226
   8023SM  H11G10663   6.862   1.004  14.760  1.3800  1.3290 -0.1205
   8023SM  C12F10664   6.770   1.086  14.589  0.7441 -0.2422  0.1757
   8023SM  H12F10665   6.812   1.189  14.588 -1.4233  0.7333 -2.0783
   8023SM  H12G10666   6.669   1.097  14.543  0.3333 -0.0958  1.0884
   8023SM  C13F10667   6.852   0.991  14.502 -0.2692  0.0061 -0.4979
   8023SM  H13F10668   6.795   0.896  14.510 -0.2556 -0.0801 -1.3090
   8023SM  H13G10669   6.953   0.985  14.548 -0.3256 -0.3778 -0.4221
   8023SM  C14F10670   6.868   1.024  14.351 -0.7254 -0.4932 -1.1369
   8023SM  H14F10671   6.891   1.132  14.340  1.4372 -0.7544  0.1090
   8023SM  H14G10672   6.772   0.996  14.303 -1.6541  0.6500 -0.0219
   8023SM  C15F10673   6.980   0.944  14.284  0.3370  0.6808  0.6107
   8023SM  H15F10674   6.968   0.835  14.303  0.8325  0.7305  1.2677
   8023SM  H15G10675   7.076   0.977  14.328 -0.2441  3.2203  0.1240
   8023SM  C16F10676   6.988   0.958  14.133  0.3132  0.2407  0.3186
   8023SM  H16F10677   6.890   0.937  14.086 -1.6812  2.5925  3.0940
   8023SM  H16G10678   7.058   0.879  14.098 -0.7077  0.2455 -1.9332
   8023SM  C17F10679   7.059   1.090  14.093 -0.0635 -0.0130 -0.0439
   8023SM  H17F10680   7.161   1.087  14.138 -0.8740 -0.9688  1.8445
   8023SM  H17G10681   7.001   1.169  14.145 -1.6568 -0.4426 -1.1078
   8023SM  C18F10682   7.066   1.116  13.947 -0.3336  0.8700 -0.1662
   8023SM  H18F10683   6.964   1.147  13.915 -1.0252  0.1575  1.2394
   8023SM  H18G10684   7.099   1.024  13.894 -1.2889  0.4333 -0.0185
   8023SM  C19F10685   7.167   1.226  13.917 -0.5520 -0.0357 -0.1354
   8023SM  H19F10686   7.270   1.193  13.941 -0.8431 -0.9661 -0.1209
   8023SM  H19G10687   7.149   1.309  13.989 -0.7481 -1.3080  1.3438
   8023SM  C20F10688   7.159   1.268  13.770  0.6715  0.1666  0.3738
   8023SM  H20F10689   7.155   1.175  13.710 -0.2479  0.0434  0.6176
   8023SM  H20G10690   7.245   1.331  13.740  0.4859  0.6418  0.8333
   8023SM  C21F10691   7.030   1.350  13.737  0.0393 -0.6356  0.2868
   8023SM  H21F10692   7.003   1.423  13.817 -0.3247 -0.8477  0.3573
   8023SM  H21G10693   6.942   1.284  13.742 -1.9105  1.8829  2.0512
   8023SM  C22F10694   7.014   1.430  13.604  0.2618 -0.0036 -0.5709
   8023SM  H22F10695   7.092   1.508  13.607 -0.7233  0.9819  0.3107
   8023SM  H22G10696   6.921   1.491  13.609 -0.5060 -1.1933  0.8966
   8023SM  C23F10697   7.035   1.336  13.484  0.2615  0.0450 -0.6307
   8023SM  H23F10698   7.024   1.385  13.385 -0.2766 -1.1547 -1.1836
   8023SM  H23G10699   6.957   1.258  13.489 -0.0323  0.3167 -0.9170
   8023SM  H23H10700   7.140   1.300  13.493 -0.2112 -0.9155  1.6061
   8123SM     N10701   3.451   5.328  11.538 -0.2964 -0.6289 -0.2998
   8123SM   C1510702   3.445   5.467  11.555 -0.5735 -0.1812  0.7500
   8123SM  H15A10703   3.540   5.507  11.590 -1.0047  1.5742 -0.0058
   8123SM  H15B10704   3.373   5.509  11.624 -0.5349  1.1277  0.0352
   8123SM  H15C10705   3.426   5.520  11.463 -2.3771 -0.4122  0.9603
   8123SM   C1410706   3.316   5.275  11.515  0.0547  0.6158  0.1373
   8123SM  H14A10707   3.243   5.306  11.589  0.8286  0.6154  0.9175
   8123SM  H14B10708   3.327   5.168  11.504 -1.1629  0.4556  0.3173
   8123SM  H14C10709   3.277   5.318  11.424  0.2115  2.2462  0.8040
   8123SM   C1310710   3.539   5.292  11.422  0.1084  0.3467  0.3115
   8123SM  H13A10711   3.547   5.188  11.394  2.3771  0.9870 -1.8284
   8123SM  H13B10712   3.644   5.306  11.443  0.7554 -0.9928 -1.7282
   8123SM  H13C10713   3.521   5.347  11.331 -0.3274 -0.0022  0.1808
   8123SM   C1210714   3.510   5.266  11.666 -0.1942 -1.1409  0.0749
   8123SM  H12A10715   3.500   5.158  11.662  0.9175 -1.2534  0.0294
   8123SM  H12B10716   3.450   5.308  11.745 -0.0760 -1.0293  0.1047
   8123SM   C1110717   3.653   5.306  11.693 -0.2348 -0.1919 -0.2869
   8123SM  H11A10718   3.661   5.280  11.800  0.0785  0.0155 -0.2607
   8123SM  H11B10719   3.676   5.411  11.665  0.0778 -0.3059 -0.4610
   8123SM     P10720   3.771   5.081  11.653  0.0863  0.1275  0.3828
   8123SM   O1310721   3.645   5.001  11.643 -0.0764  0.5536 -0.6817
   8123SM   O1410722   3.881   5.045  11.563 -0.0380 -0.8621 -0.2660
   8123SM   O1110723   3.821   5.073  11.799  0.2126 -0.5260 -0.7388
   8123SM   O1210724   3.739   5.231  11.621  0.4582  0.3519  0.4253
   8123SM   C1S10725   3.933   5.136  11.842 -0.8490 -0.6597  0.4477
   8123SM   H1S10726   3.937   5.238  11.797 -2.5231 -1.0258 -0.6053
   8123SM   H1T10727   4.019   5.078  11.802  0.0212 -0.6679  2.2394
   8123SM    NF10728   4.031   5.222  12.051 -0.5889 -0.0341  0.2215
   8123SM   HNF10729   4.101   5.177  12.106 -2.0224 -3.0821 -0.2082
   8123SM   C2S10730   3.933   5.132  11.993 -0.7592  0.1918  0.1765
   8123SM   H2S10731   3.835   5.168  12.031  0.6235  3.2078  1.2353
   8123SM   C3S10732   3.936   4.989  12.048 -0.3317 -0.0226 -0.2059
   8123SM   H3S10733   4.029   4.935  12.020  0.6129  1.5040 -0.1408
   8123SM    O310734   3.827   4.911  12.005  0.0846  0.3382 -0.0917
   8123SM   HO310735   3.778   4.964  11.942 -2.1903  0.0391  1.3380
   8123SM   C4S10736   3.928   4.995  12.198  0.2188  0.1810 -0.2228
   8123SM   H4S10737   3.825   5.016  12.228  0.2304 -0.5097  0.3366
   8123SM   C5S10738   4.014   4.947  12.285 -0.9865 -0.5315  0.7381
   8123SM   H5S10739   4.111   4.904  12.255 -0.8937  0.5983 -0.7170
   8123SM   C6S10740   3.979   4.928  12.427  0.3250  0.2362  0.1301
   8123SM   H6S10741   4.030   4.843  12.477  0.3877  0.1755 -0.0377
   8123SM   H6T10742   3.871   4.909  12.447 -0.2189  1.1177 -1.6868
   8123SM   C7S10743   4.019   5.050  12.521 -0.2592 -0.3736 -0.0737
   8123SM   H7S10744   3.976   5.148  12.493  0.8025 -0.4651 -2.2708
   8123SM   H7T10745   4.127   5.073  12.511 -0.7771  1.6960 -1.7512
   8123SM   C8S10746   3.993   5.023  12.671 -0.4980  1.1940  0.0474
   8123SM   H8S10747   3.898   4.967  12.687  1.1753 -1.8392  0.1593
   8123SM   H8T10748   3.988   5.116  12.732  3.5277  0.7213  1.3900
   8123SM   C9S10749   4.105   4.936  12.743  0.2302 -0.6547 -0.1965
   8123SM   H9S10750   4.203   4.982  12.716  0.6806  0.9494  3.6603
   8123SM   H9T10751   4.108   4.833  12.701 -2.8529 -0.7506 -0.4422
   8123SM  C10S10752   4.078   4.924  12.895  0.3090 -0.2704  0.2321
   8123SM  H10S10753   3.998   4.851  12.918  0.0259  0.3215  1.1470
   8123SM  H10T10754   4.038   5.023  12.924 -0.2828 -0.7591  1.1266
   8123SM  C11S10755   4.205   4.884  12.961 -0.0392 -0.1262  0.0683
   8123SM  H11S10756   4.290   4.947  12.928 -0.3299  0.5624  0.6279
   8123SM  H11T10757   4.220   4.783  12.917 -2.3857  0.0096 -1.2343
   8123SM  C12S10758   4.202   4.877  13.117  0.1110  0.1924  0.7191
   8123SM  H12S10759   4.287   4.810  13.141 -0.8777 -2.4372 -2.3586
   8123SM  H12T10760   4.109   4.819  13.134 -0.1926 -0.1133 -1.5842
   8123SM  C13S10761   4.200   5.016  13.187 -0.5625  0.1771  0.0965
   8123SM  H13S10762   4.106   5.067  13.158 -2.3287 -2.1170  1.4474
   8123SM  H13T10763   4.273   5.087  13.144 -0.0733 -0.1033  0.4531
   8123SM  C14S10764   4.223   5.018  13.342 -0.5738  0.8025  0.1414
   8123SM  H14S10765   4.211   5.124  13.374 -0.7382  1.1223 -0.9401
   8123SM  H14T10766   4.325   4.974  13.347 -1.8400 -2.3372  0.9332
   8123SM  C15S10767   4.125   4.935  13.430 -0.6343  0.3280  0.2419
   8123SM  H15S10768   4.123   4.830  13.394  0.3623 -0.0295  1.1632
   8123SM  H15T10769   4.020   4.970  13.428 -0.5016  0.8098  1.0767
   8123SM  C16S10770   4.169   4.933  13.582  0.0309 -0.2972  0.1952
   8123SM  H16S10771   4.167   5.035  13.626  3.6331 -0.9645  2.3205
   8123SM  H16T10772   4.272   4.892  13.589  1.0897  2.4088  2.4909
   8123SM  C17S10773   4.075   4.837  13.666  0.4545 -0.4183  0.1276
   8123SM  H17S10774   4.095   4.731  13.643  0.2837 -0.2805 -0.6984
   8123SM  H17T10775   3.969   4.850  13.634  0.6459 -0.2807 -0.4744
   8123SM  C18S10776   4.082   4.860  13.813  0.0680  0.0812 -0.4116
   8123SM  H18S10777   4.062   4.964  13.846 -1.9837  0.0079 -1.2584
   8123SM  H18T10778   4.182   4.830  13.850 -0.4993 -2.3813 -0.6714
   8123SM  H18U10779   4.008   4.804  13.875 -0.3292  1.4939  0.4500
   8123SM   C1F10780   4.026   5.351  12.037 -0.3134 -0.4948  0.3156
   8123SM    OF10781   3.937   5.404  11.968 -0.1354  0.2930 -0.5064
   8123SM   C2F10782   4.149   5.417  12.103 -0.3953 -0.3595 -0.3844
   8123SM   H2F10783   4.182   5.492  12.028 -1.6423  0.4982 -0.1126
   8123SM   H2G10784   4.222   5.341  12.138 -0.2414  0.3024  0.8028
   8123SM   C3F10785   4.099   5.508  12.215  0.2181 -0.5369  0.1098
   8123SM   H3F10786   4.007   5.562  12.184 -0.0753 -1.0687  0.0331
   8123SM   H3G10787   4.175   5.580  12.249 -0.3891  0.0636  0.2137
   8123SM   C4F10788   4.082   5.434  12.346  0.2310 -0.5678 -0.4116
   8123SM   H4F10789   4.164   5.366  12.377 -0.7000 -0.9710  1.2914
   8123SM   H4G10790   3.990   5.371  12.348 -0.4966  0.4968  0.6752
   8123SM   C5F10791   4.063   5.529  12.470 -0.9829 -0.3954 -0.3410
   8123SM   H5F10792   3.963   5.575  12.456 -0.8359 -0.1436 -0.5681
   8123SM   H5G10793   4.135   5.613  12.466  1.1634 -2.2083 -3.6350
   8123SM   C6F10794   4.054   5.446  12.599 -0.2900 -0.4483  0.3401
   8123SM   H6F10795   4.144   5.381  12.607 -1.2054 -1.9422 -0.8409
   8123SM   H6G10796   3.977   5.366  12.585  1.2446 -1.8321 -0.5961
   8123SM   C7F10797   4.035   5.529  12.724 -0.1497 -0.3802  0.0374
   8123SM   H7F10798   3.926   5.547  12.740 -0.0912 -2.0761  3.1055
   8123SM   H7G10799   4.093   5.624  12.714  1.2409 -1.1922  0.1776
   8123SM   C8F10800   4.078   5.445  12.842 -0.1859  0.0070  0.4588
   8123SM   H8F10801   4.186   5.419  12.834 -0.8107 -2.4740 -1.2460
   8123SM   H8G10802   4.018   5.351  12.836 -1.0855  0.6361 -4.1818
   8123SM   C9F10803   4.049   5.512  12.978  0.4177 -0.1740 -0.1079
   8123SM   H9F10804   3.940   5.517  12.996  0.1286 -0.5321 -1.6476
   8123SM   H9G10805   4.092   5.614  12.976 -0.1114  0.0461 -0.3433
   8123SM  C10F10806   4.114   5.439  13.107 -0.1048  0.5372  0.2899
   8123SM  H10F10807   4.225   5.444  13.099 -0.2243  0.4056 -2.4462
   8123SM  H10G10808   4.085   5.332  13.098  2.6777 -0.3272  0.4633
   8123SM  C11F10809   4.067   5.491  13.248  0.2154 -0.0228 -0.4665
   8123SM  H11F10810   3.959   5.466  13.253  0.1140  0.5325  0.2366
   8123SM  H11G10811   4.077   5.600  13.266 -1.1619 -0.2603  2.1394
   8123SM  C12F10812   4.118   5.405  13.359 -0.2469  0.1577  0.4399
   8123SM  H12F10813   4.228   5.395  13.350  0.2002  3.4669  1.0830
   8123SM  H12G10814   4.077   5.302  13.359 -0.5373  0.2716  0.3925
   8123SM  C13F10815   4.094   5.461  13.499  0.4792 -0.4986 -0.4269
   8123SM  H13F10816   3.997   5.515  13.507 -0.1144 -1.4224 -1.1612
   8123SM  H13G10817   4.156   5.548  13.530 -2.9088  1.3115  1.9802
   8123SM  C14F10818   4.098   5.351  13.603 -0.3741 -0.2190  0.5792
   8123SM  H14F10819   4.193   5.294  13.592 -0.2333 -0.1662  1.4574
   8123SM  H14G10820   4.007   5.288  13.598 -0.8480  0.5623 -2.4484
   8123SM  C15F10821   4.117   5.419  13.743 -0.5987  0.0044  0.1331
   8123SM  H15F10822   4.038   5.494  13.764 -0.6807 -0.1345  0.3360
   8123SM  H15G10823   4.209   5.480  13.736 -0.2105 -0.7773 -2.4418
   8123SM  C16F10824   4.141   5.320  13.857  0.3292 -0.8496  0.2796
   8123SM  H16F10825   4.228   5.250  13.847  1.4710  0.7822 -2.4032
   8123SM  H16G10826   4.059   5.245  13.856 -2.2602  1.8039  0.2367
   8123SM  C17F10827   4.155   5.399  13.991 -0.4145 -0.5072  0.3963
   8123SM  H17F10828   4.070   5.470  14.004 -0.8397 -0.4542 -2.2202
   8123SM  H17G10829   4.247   5.460  13.979 -0.1456 -0.4757  2.3263
   8123SM  C18F10830   4.185   5.316  14.116  0.4302  0.0576  0.3836
   8123SM  H18F10831   4.234   5.381  14.192  0.1260  1.1035 -0.3007
   8123SM  H18G10832   4.251   5.230  14.092  0.2459  0.4786 -1.8531
   8123SM  C19F10833   4.058   5.257  14.180 -0.5162  0.2710  0.3915
   8123SM  H19F10834   4.002   5.217  14.093  1.1283 -0.4809 -0.3549
   8123SM  H19G10835   4.000   5.334  14.236  3.2883  3.4088  0.4858
   8123SM  C20F10836   4.081   5.130  14.267  0.6918 -0.5014  0.3994
   8123SM  H20F10837   3.992   5.105  14.328  0.3497 -0.6729 -0.1608
   8123SM  H20G10838   4.159   5.168  14.336 -0.4856  1.0504  0.9263
   8123SM  C21F10839   4.118   5.010  14.183 -0.4697  0.1794 -0.5165
   8123SM  H21F10840   4.200   5.031  14.110  2.1878  1.2538  2.5682
   8123SM  H21G10841   4.020   4.976  14.143 -0.3924  0.2240 -0.7446
   8123SM  C22F10842   4.178   4.893  14.265 -0.8214 -0.4141  0.0911
   8123SM  H22F10843   4.276   4.938  14.293 -1.2480  1.0466 -0.6575
   8123SM  H22G10844   4.200   4.809  14.196  0.2268  0.5108 -0.7352
   8123SM  C23F10845   4.098   4.850  14.384  0.4537  0.9060 -0.0644
   8123SM  H23F10846   4.058   4.934  14.444 -1.3177  0.3671 -0.4528
   8123SM  H23G10847   4.154   4.783  14.453 -1.3993  0.8524  1.4422
   8123SM  H23H10848   4.008   4.796  14.348  0.4220  0.5926  0.4816
   8223SM     N10849   3.952   6.266  11.543 -0.2835  0.2257 -0.1063
   8223SM   C1510850   3.945   6.130  11.481 -0.1088 -0.3232  0.2227
   8223SM  H15A10851   3.950   6.053  11.557 -1.2469 -1.4481 -0.7956
   8223SM  H15B10852   4.031   6.115  11.417  1.7075  0.3279  2.3783
   8223SM  H15C10853   3.852   6.112  11.429  0.0834  0.1711 -0.2945
   8223SM   C1410854   3.993   6.360  11.429 -0.3030 -0.3090  0.9927
   8223SM  H14A10855   3.997   6.467  11.448  2.1895 -0.3030  0.7657
   8223SM  H14B10856   3.927   6.357  11.344 -1.5215  1.3307  1.8103
   8223SM  H14C10857   4.094   6.336  11.400 -1.2860 -1.4505 -1.7576
   8223SM   C1310858   3.815   6.298  11.593  0.3735 -0.5044 -0.3058
   8223SM  H13A10859   3.795   6.237  11.680  1.8859  1.3598  1.4783
   8223SM  H13B10860   3.744   6.286  11.513 -0.6325  0.8166  0.3635
   8223SM  H13C10861   3.805   6.403  11.617  0.7348 -0.0640 -1.9563
   8223SM   C1210862   4.055   6.274  11.651 -0.3363  0.5351 -0.0065
   8223SM  H12A10863   4.079   6.378  11.671  2.3480 -0.0421  0.1552
   8223SM  H12B10864   4.142   6.218  11.621 -1.1820 -1.0216  0.3176
   8223SM   C1110865   4.021   6.202  11.788  0.1395  0.3346 -0.1169
   8223SM  H11A10866   3.936   6.259  11.831  0.0238  0.6515 -0.7590
   8223SM  H11B10867   4.114   6.211  11.849 -1.0541 -1.5445  2.1680
   8223SM     P10868   4.093   5.954  11.780 -0.7043  0.2136  0.1522
   8223SM   O1310869   4.024   5.823  11.762 -0.4902  0.4624  0.1318
   8223SM   O1410870   4.196   5.989  11.676  0.2462  1.0909 -0.2279
   8223SM   O1110871   4.157   5.946  11.916  0.6110 -0.5641 -0.0506
   8223SM   O1210872   3.983   6.065  11.786  0.0750 -0.0222  0.0473
   8223SM   C1S10873   4.096   5.994  12.036  0.3679  0.3825  0.4817
   8223SM   H1S10874   3.985   5.986  12.037  0.4595 -1.1321  1.5941
   8223SM   H1T10875   4.119   6.101  12.057 -0.1501  0.7984 -0.9483
   8223SM    NF10876   4.046   5.935  12.268  0.5639  0.0422  0.6568
   8223SM   HNF10877   4.071   5.995  12.343  3.5377 -2.4356  1.8929
   8223SM   C2S10878   4.143   5.915  12.158 -0.5528  0.0709 -0.2349
   8223SM   H2S10879   4.150   5.810  12.122 -0.0122  0.5058 -1.4723
   8223SM   C3S10880   4.294   5.956  12.183  0.2076 -0.0088  0.3156
   8223SM   H3S10881   4.301   6.056  12.230  1.1227 -0.0663  0.3090
   8223SM    O310882   4.372   5.975  12.065 -0.1071  0.0548 -0.3218
   8223SM   HO310883   4.305   5.974  11.996 -0.1629 -0.4978 -0.2710
   8223SM   C4S10884   4.357   5.859  12.285  0.6331 -0.0045 -0.4087
   8223SM   H4S10885   4.368   5.919  12.377  0.5632 -0.1052 -0.3342
   8223SM   C5S10886   4.400   5.731  12.272  0.6221 -0.3687  0.4088
   8223SM   H5S10887   4.378   5.687  12.173 -1.3603  2.8424 -0.7578
   8223SM   C6S10888   4.456   5.649  12.380 -0.6720  0.1614 -0.2996
   8223SM   H6S10889   4.565   5.639  12.359 -1.3757 -3.4112 -3.0420
   8223SM   H6T10890   4.412   5.548  12.375 -0.6877  0.1002  0.8178
   8223SM   C7S10891   4.430   5.691  12.532 -1.0782 -0.0792  1.1200
   8223SM   H7S10892   4.321   5.697  12.551 -1.0843  0.8371  0.8635
   8223SM   H7T10893   4.460   5.798  12.545 -0.8761 -0.1068  0.8648
   8223SM   C8S10894   4.485   5.612  12.650 -0.4098  0.8560 -0.0118
   8223SM   H8S10895   4.596   5.611  12.658 -0.4802  1.7643  1.5005
   8223SM   H8T10896   4.441   5.511  12.637 -1.1891  1.2526 -0.5202
   8223SM   C9S10897   4.438   5.673  12.783 -0.0644  0.1728 -0.3236
   8223SM   H9S10898   4.327   5.687  12.784  0.2080  2.8090  0.3896
   8223SM   H9T10899   4.472   5.779  12.791 -0.7137  0.4327 -0.8608
   8223SM  C10S10900   4.478   5.588  12.898 -0.2243  0.2585  0.1271
   8223SM  H10S10901   4.588   5.588  12.907 -0.3369 -1.1472  2.2133
   8223SM  H10T10902   4.435   5.486  12.887  0.0128  0.1703  0.0118
   8223SM  C11S10903   4.436   5.639  13.041 -0.1084 -0.9201  0.0475
   8223SM  H11S10904   4.327   5.652  13.060 -0.6501 -2.2886 -1.8051
   8223SM  H11T10905   4.470   5.745  13.047 -0.3064 -0.8682  0.2737
   8223SM  C12S10906   4.504   5.564  13.158  0.7418 -0.5061 -0.1207
   8223SM  H12S10907   4.613   5.554  13.144  0.6581 -2.9548  0.5838
   8223SM  H12T10908   4.473   5.457  13.163  2.5891 -1.0411  0.4279
   8223SM  C13S10909   4.457   5.609  13.302 -0.0776 -0.0135 -0.2767
   8223SM  H13S10910   4.353   5.570  13.308 -0.5633  1.3186  0.5011
   8223SM  H13T10911   4.441   5.719  13.301 -2.1001 -0.1133  3.2997
   8223SM  C14S10912   4.545   5.557  13.414  0.1199 -0.1405 -0.1377
   8223SM  H14S10913   4.646   5.603  13.399 -0.7255  1.7232 -0.4629
   8223SM  H14T10914   4.551   5.446  13.412  1.0971 -0.1360  1.0347
   8223SM  C15S10915   4.503   5.599  13.563  0.8455  0.1394  0.0438
   8223SM  H15S10916   4.393   5.599  13.583  1.1190  1.2818  1.8031
   8223SM  H15T10917   4.541   5.702  13.576 -0.0855  0.5095 -0.0755
   8223SM  C16S10918   4.552   5.513  13.679 -0.6957 -0.2970 -0.2277
   8223SM  H16S10919   4.659   5.503  13.651 -0.5549  0.2992  0.0822
   8223SM  H16T10920   4.502   5.415  13.687 -0.1874 -0.5807 -0.5180
   8223SM  C17S10921   4.546   5.592  13.810 -0.0156  0.0237  0.2322
   8223SM  H17S10922   4.437   5.594  13.833  0.0795  0.0280  0.6987
   8223SM  H17T10923   4.592   5.693  13.802 -0.9206  0.6860  2.5200
   8223SM  C18S10924   4.629   5.521  13.916 -0.0409 -0.1541  0.3891
   8223SM  H18S10925   4.734   5.557  13.913 -0.0034 -0.1787  1.1625
   8223SM  H18T10926   4.618   5.410  13.916 -3.1156  0.0470 -0.7861
   8223SM  H18U10927   4.584   5.559  14.010 -0.2269  1.2636 -0.2382
   8223SM   C1F10928   3.936   5.861  12.271 -0.2615 -0.4903 -0.2069
   8223SM    OF10929   3.898   5.792  12.176  0.2317  0.5218 -0.1264
   8223SM   C2F10930   3.866   5.862  12.402 -0.0718  0.1429 -0.2931
   8223SM   H2F10931   3.842   5.969  12.423 -2.5240  0.4031 -3.4840
   8223SM   H2G10932   3.938   5.818  12.473 -0.5383 -0.4291 -0.1660
   8223SM   C3F10933   3.737   5.775  12.400  0.0259  0.0143  0.4285
   8223SM   H3F10934   3.760   5.669  12.376 -0.3566 -0.0893  0.5016
   8223SM   H3G10935   3.667   5.814  12.323 -1.7091 -0.9688  1.4424
   8223SM   C4F10936   3.653   5.792  12.523  0.4021  0.0242 -0.2263
   8223SM   H4F10937   3.559   5.734  12.506 -0.6257  1.8575 -1.1676
   8223SM   H4G10938   3.625   5.899  12.530 -2.0614 -0.6327  1.3339
   8223SM   C5F10939   3.713   5.728  12.648 -0.4575  0.1689  0.8054
   8223SM   H5F10940   3.817   5.761  12.666  0.0921 -1.6288  1.1320
   8223SM   H5G10941   3.715   5.618  12.630  1.8082  0.5213 -1.6872
   8223SM   C6F10942   3.637   5.738  12.779  0.1396  0.4126 -0.0999
   8223SM   H6F10943   3.543   5.681  12.768  1.0752 -1.6721  1.8012
   8223SM   H6G10944   3.617   5.844  12.803  0.2454  0.2772  0.6157
   8223SM   C7F10945   3.722   5.679  12.891 -0.0291  0.1701 -0.2500
   8223SM   H7F10946   3.820   5.727  12.911 -0.1741  0.5359 -0.3985
   8223SM   H7G10947   3.746   5.578  12.853 -0.9127  0.7304 -2.4537
   8223SM   C8F10948   3.637   5.664  13.014 -0.3709 -0.1466 -0.4293
   8223SM   H8F10949   3.572   5.577  12.992  0.5066 -0.4554 -1.8742
   8223SM   H8G10950   3.587   5.760  13.039  2.4650  1.1013  0.9332
   8223SM   C9F10951   3.713   5.629  13.144 -0.1871  0.4084  0.2493
   8223SM   H9F10952   3.799   5.699  13.157 -1.1763  1.6217  0.4937
   8223SM   H9G10953   3.754   5.527  13.133  0.6537  0.8227 -0.7588
   8223SM  C10F10954   3.625   5.637  13.267  0.0805  0.0310  0.0929
   8223SM  H10F10955   3.552   5.554  13.257  0.3230 -0.0961 -0.7636
   8223SM  H10G10956   3.565   5.730  13.269 -1.1114 -0.7181  0.2694
   8223SM  C11F10957   3.708   5.610  13.388  0.1601 -0.1148 -0.9552
   8223SM  H11F10958   3.777   5.694  13.412 -0.4405  0.1269 -0.0152
   8223SM  H11G10959   3.774   5.524  13.364 -1.5206 -1.7234 -0.0495
   8223SM  C12F10960   3.624   5.584  13.514  0.0501 -0.2515 -0.3402
   8223SM  H12F10961   3.547   5.508  13.489 -0.5985  0.1984  0.2727
   8223SM  H12G10962   3.558   5.669  13.538 -1.4322 -1.6850  0.9145
   8223SM  C13F10963   3.709   5.546  13.633 -0.5921 -0.2980  0.5233
   8223SM  H13F10964   3.785   5.622  13.659  2.0966 -1.2881 -3.5541
   8223SM  H13G10965   3.776   5.463  13.601 -1.2907 -0.5247 -0.4047
   8223SM  C14F10966   3.629   5.513  13.762 -0.3387  0.8726 -0.2580
   8223SM  H14F10967   3.587   5.413  13.735  2.5781 -0.1222 -1.5278
   8223SM  H14G10968   3.544   5.584  13.771  2.2582  4.2539 -0.4847
   8223SM  C15F10969   3.713   5.516  13.892 -0.0305  0.2942 -0.0207
   8223SM  H15F10970   3.737   5.623  13.910  0.2046  0.3627 -0.7008
   8223SM  H15G10971   3.802   5.452  13.876 -0.0813  0.7439 -2.4855
   8223SM  C16F10972   3.626   5.465  14.000  0.5454 -0.4541 -0.4608
   8223SM  H16F10973   3.601   5.362  13.967  0.2805 -0.1845 -1.1277
   8223SM  H16G10974   3.533   5.524  14.010  1.4755  1.1262 -0.8143
   8223SM  C17F10975   3.696   5.458  14.140  0.0954  0.3688  0.8146
   8223SM  H17F10976   3.799   5.418  14.131 -0.0132  0.1610  0.4593
   8223SM  H17G10977   3.633   5.390  14.201 -1.2960  0.2425 -0.6875
   8223SM  C18F10978   3.693   5.600  14.206  0.3778 -0.0523  0.1371
   8223SM  H18F10979   3.587   5.629  14.220  0.4710  0.2182  0.2926
   8223SM  H18G10980   3.740   5.675  14.139  1.1188 -2.0091 -1.6244
   8223SM  C19F10981   3.750   5.616  14.347  0.2238 -0.6252 -0.6033
   8223SM  H19F10982   3.694   5.543  14.410 -0.7263 -0.0480 -0.7479
   8223SM  H19G10983   3.725   5.718  14.386  0.1199 -1.3460  1.3599
   8223SM  C20F10984   3.897   5.588  14.353  0.0785  0.6808 -0.3222
   8223SM  H20F10985   3.945   5.615  14.256 -3.8164  2.5348 -1.9443
   8223SM  H20G10986   3.908   5.477  14.362  1.8314  0.8997  0.6600
   8223SM  C21F10987   3.981   5.641  14.469  0.0069 -0.6953  0.0151
   8223SM  H21F10988   3.923   5.643  14.564  2.0871 -1.0854  1.3416
   8223SM  H21G10989   4.008   5.747  14.447  2.4813 -0.9294  1.6102
   8223SM  C22F10990   4.119   5.583  14.486 -0.2919  0.9067 -0.0600
   8223SM  H22F10991   4.193   5.644  14.542 -0.5818  1.9339 -0.7701
   8223SM  H22G10992   4.155   5.560  14.383 -0.0298  1.1901 -0.0342
   8223SM  C23F10993   4.135   5.459  14.566 -0.2936  1.1416  0.2875
   8223SM  H23F10994   4.066   5.377  14.535 -2.6913  3.1757 -0.0390
   8223SM  H23G10995   4.108   5.474  14.673 -1.7622 -2.6764  0.6052
   8223SM  H23H10996   4.242   5.429  14.575 -0.6573 -0.7928 -1.0930
   8323SM     N10997   4.481   5.443  11.658 -0.0362 -0.1068  0.0790
   8323SM   C1510998   4.413   5.505  11.538 -0.0861 -0.2755  0.1680
   8323SM  H15A10999   4.474   5.553  11.463 -0.1480 -1.1983 -0.4993
   8323SM  H15B11000   4.353   5.584  11.581 -0.5396 -0.3287 -0.3527
   8323SM  H15C11001   4.344   5.431  11.500 -0.9320 -0.8418  2.5997
   8323SM   C1411002   4.588   5.346  11.604 -0.0363  0.1337 -0.5315
   8323SM  H14A11003   4.539   5.280  11.534  0.4313 -1.7202  0.7816
   8323SM  H14B11004   4.626   5.291  11.689  0.8825 -0.0394 -1.0437
   8323SM  H14C11005   4.674   5.391  11.557 -0.4062 -1.4023 -2.8677
   8323SM   C1311006   4.552   5.555  11.723  0.2452 -1.0597 -0.0259
   8323SM  H13A11007   4.495   5.633  11.770  1.6550  0.1091 -0.2079
   8323SM  H13B11008   4.626   5.606  11.664 -0.7933  1.1464  0.4765
   8323SM  H13C11009   4.605   5.507  11.804 -0.4018 -1.6674  0.0569
   8323SM   C1211010   4.385   5.387  11.755 -0.1178 -0.1030 -0.2406
   8323SM  H12A11011   4.330   5.304  11.715 -0.6740 -0.4104  1.1060
   8323SM  H12B11012   4.328   5.470  11.791  2.2129 -0.0110  3.8868
   8323SM   C1111013   4.443   5.324  11.894  0.5161 -0.1207  0.4549
   8323SM  H11A11014   4.362   5.297  11.964  0.8668 -0.7394  0.6286
   8323SM  H11B11015   4.509   5.404  11.936  0.3603  0.5027 -0.4323
   8323SM     P11016   4.490   5.080  11.808  0.1455  0.4983  0.2105
   8323SM   O1311017   4.365   5.092  11.729 -0.0730  0.2745  0.5573
   8323SM   O1411018   4.610   5.019  11.746 -0.1362 -0.6614  0.1680
   8323SM   O1111019   4.451   4.996  11.931 -0.1881 -0.4671  0.8521
   8323SM   O1211020   4.530   5.222  11.868  0.3254  0.2206  0.0021
   8323SM   C1S11021   4.554   4.943  12.021  0.4761  0.1099 -0.2026
   8323SM   H1S11022   4.655   4.932  11.976  0.2003 -2.6763 -0.3228
   8323SM   H1T11023   4.520   4.838  12.034 -1.7706  0.8522  0.2118
   8323SM    NF11024   4.674   4.943  12.223 -0.2559  0.0373 -0.0129
   8323SM   HNF11025   4.653   4.856  12.268 -2.6325  0.3154 -0.4422
   8323SM   C2S11026   4.567   5.016  12.154  0.2614  0.4380 -0.0503
   8323SM   H2S11027   4.603   5.119  12.132  3.0731 -0.2068  1.0586
   8323SM   C3S11028   4.424   5.020  12.223 -0.1313  0.0763 -0.0047
   8323SM   H3S11029   4.388   4.915  12.224 -1.0147  0.2474 -2.8453
   8323SM    O311030   4.322   5.098  12.151 -0.2412  0.5907 -0.3625
   8323SM   HO311031   4.355   5.086  12.062 -0.4062 -0.6670 -0.2719
   8323SM   C4S11032   4.447   5.080  12.359 -0.1258 -0.2440  0.0997
   8323SM   H4S11033   4.527   5.028  12.414  0.6319 -0.6858 -1.3541
   8323SM   C5S11034   4.393   5.192  12.420  0.0623 -0.2073 -1.0209
   8323SM   H5S11035   4.307   5.236  12.367 -1.7992 -0.5620  1.5180
   8323SM   C6S11036   4.432   5.250  12.554 -0.2880  0.4486 -0.9741
   8323SM   H6S11037   4.346   5.302  12.602 -1.1350 -0.4936 -1.4328
   8323SM   H6T11038   4.500   5.336  12.536  0.2009  0.2110 -0.3040
   8323SM   C7S11039   4.487   5.164  12.672 -0.2482  0.4459 -0.4163
   8323SM   H7S11040   4.581   5.112  12.642  0.1121  1.0972 -0.4419
   8323SM   H7T11041   4.421   5.077  12.690  2.3585 -1.5053  0.2970
   8323SM   C8S11042   4.498   5.239  12.800  0.0017  0.1782  0.1110
   8323SM   H8S11043   4.410   5.301  12.825 -0.5508 -0.0085 -1.2628
   8323SM   H8T11044   4.571   5.322  12.788 -2.1206  2.4262  1.8347
   8323SM   C9S11045   4.541   5.148  12.913  0.0504  0.1931  0.0881
   8323SM   H9S11046   4.643   5.104  12.905 -0.3989 -1.0865  1.1752
   8323SM   H9T11047   4.460   5.072  12.920  0.4686 -0.3088 -0.3815
   8323SM  C10S11048   4.535   5.214  13.055  0.0490  0.6761  0.4719
   8323SM  H10S11049   4.436   5.248  13.092 -2.0951 -3.5913 -0.7450
   8323SM  H10T11050   4.615   5.292  13.052  0.8952 -0.1971 -2.1417
   8323SM  C11S11051   4.586   5.112  13.164 -0.1394 -0.5473  0.0437
   8323SM  H11S11052   4.688   5.083  13.131  0.9110  1.5974  1.2245
   8323SM  H11T11053   4.527   5.019  13.145  1.0530 -0.6919 -4.1377
   8323SM  C12S11054   4.581   5.169  13.305 -0.5358  0.1153  0.2634
   8323SM  H12S11055   4.477   5.195  13.332 -0.3536 -1.0990  2.3831
   8323SM  H12T11056   4.647   5.258  13.318  0.4847  0.0076 -3.2549
   8323SM  C13S11057   4.629   5.064  13.404 -0.0551 -0.0325 -0.1619
   8323SM  H13S11058   4.721   5.014  13.365 -0.1605  0.2441 -0.7830
   8323SM  H13T11059   4.553   4.983  13.412 -1.3983  1.1780 -0.4269
   8323SM  C14S11060   4.654   5.123  13.542  0.7849  0.4331  0.2272
   8323SM  H14S11061   4.566   5.187  13.563 -1.0793 -1.1165 -2.3050
   8323SM  H14T11062   4.745   5.187  13.547  2.3015 -1.5182 -0.6859
   8323SM  C15S11063   4.676   5.003  13.639  0.1285 -0.8665 -0.3582
   8323SM  H15S11064   4.763   4.938  13.616 -0.6174 -2.9153  2.1026
   8323SM  H15T11065   4.590   4.932  13.636  0.7820 -1.6455 -2.0000
   8323SM  C16S11066   4.685   5.052  13.783  0.6436  0.3702  0.4870
   8323SM  H16S11067   4.749   5.143  13.787 -1.8300  2.2956 -1.0331
   8323SM  H16T11068   4.738   4.970  13.837  0.4555  1.1265  1.8822
   8323SM  C17S11069   4.546   5.076  13.839 -0.2168 -0.2829  0.3635
   8323SM  H17S11070   4.485   4.986  13.817  1.0245 -1.6014  2.0227
   8323SM  H17T11071   4.505   5.166  13.789  1.5244  0.7231  0.6565
   8323SM  C18S11072   4.552   5.102  13.994  0.2319 -0.8732  0.3047
   8323SM  H18S11073   4.641   5.164  14.016  0.6924 -1.9777  1.6754
   8323SM  H18T11074   4.565   5.010  14.055 -0.0472 -0.7484  0.5571
   8323SM  H18U11075   4.462   5.159  14.027 -1.9109 -2.6517 -1.9994
   8323SM   C1F11076   4.797   4.964  12.204  0.3470 -0.5764 -0.9194
   8323SM    OF11077   4.835   5.052  12.133  0.7209 -0.4859  0.1367
   8323SM   C2F11078   4.899   4.877  12.272  0.3334 -1.0940  0.5781
   8323SM   H2F11079   4.958   4.844  12.183 -0.5618  2.0122 -1.3447
   8323SM   H2G11080   4.861   4.790  12.329 -1.8880 -1.9858 -2.0033
   8323SM   C3F11081   5.003   4.941  12.357 -0.0868 -0.2040 -0.6680
   8323SM   H3F11082   5.042   5.027  12.298 -0.9480 -0.4664 -1.6363
   8323SM   H3G11083   5.092   4.876  12.347 -0.8556 -1.7946  1.9217
   8323SM   C4F11084   4.963   4.973  12.502  0.2005  0.2092 -0.2552
   8323SM   H4F11085   4.952   4.886  12.570  0.9805  0.5401  0.3007
   8323SM   H4G11086   4.859   5.012  12.501 -0.1731 -0.7377 -0.1886
   8323SM   C5F11087   5.052   5.071  12.576 -0.6091 -0.5330  0.0979
   8323SM   H5F11088   5.041   5.170  12.527  0.5933 -1.1799 -1.5746
   8323SM   H5G11089   5.159   5.044  12.572 -0.0076  1.7885 -2.7513
   8323SM   C6F11090   5.011   5.110  12.724 -0.1051  0.2949  0.3594
   8323SM   H6F11091   4.909   5.155  12.721 -0.1641  0.1872  0.6734
   8323SM   H6G11092   5.089   5.179  12.762 -1.1380  1.9152 -0.3539
   8323SM   C7F11093   5.003   4.998  12.826  0.1606  0.4517 -0.1024
   8323SM   H7F11094   5.111   4.971  12.830  0.1941  0.6276  0.1778
   8323SM   H7G11095   4.930   4.918  12.800  0.9160 -0.2983  0.0068
   8323SM   C8F11096   4.969   5.054  12.968  0.0657 -0.7358 -0.2668
   8323SM   H8F11097   4.873   5.109  12.956  0.9650  0.4782 -2.4970
   8323SM   H8G11098   5.049   5.117  13.013  1.1302 -1.9574 -0.4102
   8323SM   C9F11099   4.959   4.942  13.067 -0.1187  0.1594  0.4987
   8323SM   H9F11100   5.044   4.874  13.047  0.2724  1.3515 -2.2454
   8323SM   H9G11101   4.874   4.873  13.046  1.6270 -2.4857  1.5706
   8323SM  C10F11102   4.965   4.988  13.213  0.7743 -0.5959 -0.1465
   8323SM  H10F11103   4.873   5.045  13.236  0.7939 -1.4791  2.3708
   8323SM  H10G11104   5.055   5.052  13.220  2.2716 -2.3291 -2.1816
   8323SM  C11F11105   4.976   4.876  13.316 -0.1460 -0.0647 -0.3633
   8323SM  H11F11106   5.058   4.807  13.288  0.9273  1.5028 -1.2301
   8323SM  H11G11107   4.893   4.802  13.317  1.1330 -1.5645  0.0597
   8323SM  C12F11108   5.011   4.924  13.459  0.6626  0.3815  0.2029
   8323SM  H12F11109   4.918   4.979  13.482  0.4006  0.4677 -1.0017
   8323SM  H12G11110   5.102   4.988  13.461  0.5317  0.5832 -0.1465
   8323SM  C13F11111   5.017   4.808  13.561 -0.3572 -0.2308  0.0179
   8323SM  H13F11112   5.107   4.746  13.541 -0.2201 -0.1693  0.4357
   8323SM  H13G11113   4.926   4.747  13.578  0.2843 -0.6785  2.0500
   8323SM  C14F11114   5.046   4.860  13.706 -0.8073 -0.2059 -0.1247
   8323SM  H14F11115   4.980   4.949  13.719 -0.8958 -0.2518 -0.2569
   8323SM  H14G11116   5.148   4.902  13.719 -0.6001 -0.7564  0.0677
   8323SM  C15F11117   5.029   4.746  13.806  0.1126  0.4842 -0.0621
   8323SM  H15F11118   5.108   4.674  13.775  1.2470  2.3907 -1.8394
   8323SM  H15G11119   4.928   4.706  13.781  0.2329  0.2116 -0.1206
   8323SM  C16F11120   5.045   4.791  13.950  0.1308  0.4313 -0.1379
   8323SM  H16F11121   4.958   4.859  13.962 -0.6807 -0.2742 -1.7830
   8323SM  H16G11122   5.140   4.848  13.956  0.7771 -0.5603 -0.6814
   8323SM  C17F11123   5.059   4.684  14.053  0.1574  0.5061  0.2579
   8323SM  H17F11124   5.142   4.612  14.037 -0.0670  0.5996 -1.4087
   8323SM  H17G11125   4.966   4.624  14.057 -0.1716  1.0109  0.2677
   8323SM  C18F11126   5.084   4.739  14.198 -0.1856  0.5956 -0.0698
   8323SM  H18F11127   5.015   4.818  14.234 -0.3305  0.6851 -0.5393
   8323SM  H18G11128   5.187   4.780  14.187  0.4005 -1.0315 -1.0813
   8323SM  C19F11129   5.083   4.619  14.305 -0.0403 -0.4537  0.3175
   8323SM  H19F11130   5.121   4.537  14.240  0.0453 -0.6715  0.6330
   8323SM  H19G11131   4.974   4.604  14.324 -0.4351 -0.7275 -1.8718
   8323SM  C20F11132   5.181   4.631  14.428 -0.9498 -0.2049  0.1295
   8323SM  H20F11133   5.264   4.686  14.380 -1.2969 -1.0103 -1.4715
   8323SM  H20G11134   5.215   4.529  14.453 -1.4778 -0.4190 -0.0027
   8323SM  C21F11135   5.125   4.699  14.546 -1.4390 -0.0059  0.0774
   8323SM  H21F11136   5.026   4.654  14.566 -1.7833  0.5253 -0.4319
   8323SM  H21G11137   5.107   4.808  14.536 -2.4751 -0.2743 -1.0963
   8323SM  C22F11138   5.218   4.669  14.669 -0.0672  0.6362  0.6357
   8323SM  H22F11139   5.324   4.690  14.645  0.4945 -2.7836 -0.4188
   8323SM  H22G11140   5.219   4.561  14.694 -1.0378  0.6024  0.5716
   8323SM  C23F11141   5.188   4.744  14.801 -0.2145 -0.7597 -0.4349
   8323SM  H23F11142   5.080   4.729  14.818 -0.7282 -0.5894 -3.0051
   8323SM  H23G11143   5.212   4.853  14.797  1.1365 -0.8328  2.7495
   8323SM  H23H11144   5.248   4.709  14.887  1.2382  0.9557 -0.6825
   8423SM     N11145   4.814   2.786  11.716  0.7390  0.1059  0.7271
   8423SM   C1511146   4.927   2.698  11.678  0.1337 -0.1435  0.5524
   8423SM  H15A11147   4.931   2.609  11.738 -1.6620 -1.5305 -1.2777
   8423SM  H15B11148   5.020   2.749  11.698  0.9065 -0.9435 -0.8250
   8423SM  H15C11149   4.931   2.673  11.573  0.9904 -1.0323  0.7821
   8423SM   C1411150   4.822   2.917  11.638 -0.3056 -0.2031 -0.0053
   8423SM  H14A11151   4.910   2.979  11.650 -0.3612  0.1663 -1.3772
   8423SM  H14B11152   4.733   2.971  11.668 -0.3497 -0.8275  1.0379
   8423SM  H14C11153   4.817   2.893  11.533  1.9980  0.0056 -0.2203
   8423SM   C1311154   4.685   2.712  11.680 -0.1361  0.5382  0.3024
   8423SM  H13A11155   4.600   2.773  11.708  0.8856  2.5322 -0.6893
   8423SM  H13B11156   4.683   2.615  11.727 -1.8136  0.7152  0.6481
   8423SM  H13C11157   4.673   2.699  11.574 -2.5799 -0.2139  0.6211
   8423SM   C1211158   4.813   2.809  11.863  0.2835 -0.6667  0.3022
   8423SM  H12A11159   4.912   2.844  11.890 -0.6681  1.0124  1.7950
   8423SM  H12B11160   4.810   2.716  11.918  1.4154 -0.7414  0.2648
   8423SM   C1111161   4.714   2.909  11.927  0.6211  1.1178  0.0949
   8423SM  H11A11162   4.720   3.008  11.877  0.6298  0.1114 -1.9897
   8423SM  H11B11163   4.738   2.928  12.034  0.1205 -1.3742  0.7065
   8423SM     P11164   4.468   2.946  11.972  0.1529 -0.1261  0.4561
   8423SM   O1311165   4.457   3.067  11.886 -0.8373 -0.9386  0.3203
   8423SM   O1411166   4.345   2.867  11.989  0.4063 -0.0227  0.0536
   8423SM   O1111167   4.514   2.994  12.113 -0.5324 -0.0383  0.2853
   8423SM   O1211168   4.584   2.853  11.923 -0.1878 -0.2137 -0.1408
   8423SM   C1S11169   4.525   2.891  12.215 -0.4259 -0.3991 -0.4502
   8423SM   H1S11170   4.594   2.813  12.177  0.5943 -0.0142  0.5764
   8423SM   H1T11171   4.430   2.843  12.247  0.0181  0.4938  2.5423
   8423SM    NF11172   4.608   2.858  12.447 -0.2106 -0.1492  0.4856
   8423SM   HNF11173   4.538   2.813  12.502  0.1654 -2.0511 -0.5040
   8423SM   C2S11174   4.569   2.958  12.349  0.5873 -0.8541 -0.1932
   8423SM   H2S11175   4.657   3.017  12.315  1.2904 -1.4455  0.5759
   8423SM   C3S11176   4.461   3.058  12.396  0.1260 -0.6231  0.1790
   8423SM   H3S11177   4.371   2.993  12.405  0.6816 -1.6471 -1.3709
   8423SM    O311178   4.431   3.165  12.305 -0.4387 -0.4291  0.4245
   8423SM   HO311179   4.470   3.129  12.225 -1.5502 -2.7333  0.8454
   8423SM   C4S11180   4.497   3.111  12.529 -0.1924  0.2986  0.1272
   8423SM   H4S11181   4.471   3.036  12.605 -0.0807  0.3444  0.2112
   8423SM   C5S11182   4.541   3.230  12.570  0.0719  0.2390 -1.1155
   8423SM   H5S11183   4.537   3.310  12.495 -0.6594  2.1021  0.8148
   8423SM   C6S11184   4.562   3.274  12.712  0.4756  0.2408 -0.0417
   8423SM   H6S11185   4.493   3.355  12.744  0.4502 -0.7946  2.8146
   8423SM   H6T11186   4.662   3.322  12.714 -0.0186  1.2578  1.0560
   8423SM   C7S11187   4.550   3.177  12.833 -0.1520  0.3301 -0.0206
   8423SM   H7S11188   4.621   3.093  12.816 -0.8242  0.2428 -2.9471
   8423SM   H7T11189   4.449   3.132  12.831 -0.5600  1.2081 -1.3602
   8423SM   C8S11190   4.570   3.241  12.973 -0.0349  0.3022  0.2443
   8423SM   H8S11191   4.506   3.332  12.981 -1.0868 -0.3011 -0.9091
   8423SM   H8T11192   4.675   3.275  12.977 -0.3073  1.1931  0.0899
   8423SM   C9S11193   4.551   3.145  13.091  0.3253  0.1439 -0.4497
   8423SM   H9S11194   4.618   3.057  13.076 -0.5381 -0.7525  0.7204
   8423SM   H9T11195   4.448   3.108  13.073  0.2780  0.7570 -1.5502
   8423SM  C10S11196   4.571   3.204  13.233  0.3766  0.1434  0.2087
   8423SM  H10S11197   4.492   3.283  13.231 -0.0444 -0.2492 -2.4563
   8423SM  H10T11198   4.671   3.248  13.252 -0.2470  1.2933  0.9895
   8423SM  C11S11199   4.552   3.099  13.350  0.1058  0.1637 -0.5559
   8423SM  H11S11200   4.622   3.013  13.347 -0.9822 -0.7390 -0.5529
   8423SM  H11T11201   4.445   3.070  13.348 -0.3753  1.8346 -0.8549
   8423SM  C12S11202   4.571   3.181  13.480 -0.1037  0.7386 -0.4062
   8423SM  H12S11203   4.490   3.253  13.502 -0.0029  0.5065  0.8305
   8423SM  H12T11204   4.667   3.235  13.467  0.5950 -0.5294 -0.6885
   8423SM  C13S11205   4.587   3.097  13.614 -0.0520  0.8303  0.4252
   8423SM  H13S11206   4.662   3.018  13.595 -3.0812 -2.8190  2.2936
   8423SM  H13T11207   4.496   3.035  13.627  0.5139  0.3417  2.3270
   8423SM  C14S11208   4.614   3.174  13.746  0.0805  0.3534 -0.1871
   8423SM  H14S11209   4.539   3.254  13.760  3.5466  3.5611  2.4230
   8423SM  H14T11210   4.718   3.215  13.744  0.9968 -1.7780  0.4144
   8423SM  C15S11211   4.618   3.087  13.873  0.2556  0.2789  0.8035
   8423SM  H15S11212   4.702   3.015  13.876 -0.1643 -0.2997 -0.6148
   8423SM  H15T11213   4.529   3.020  13.875 -1.1688  1.9682 -1.0575
   8423SM  C16S11214   4.614   3.184  13.991  0.0356 -0.5087 -0.2602
   8423SM  H16S11215   4.528   3.253  13.987 -0.1082 -0.5754  1.2111
   8423SM  H16T11216   4.702   3.250  13.974  0.0109 -0.1161  1.0583
   8423SM  C17S11217   4.625   3.107  14.119 -0.4950 -0.9257 -0.5613
   8423SM  H17S11218   4.569   3.012  14.109  1.2265 -2.4051  2.3922
   8423SM  H17T11219   4.587   3.170  14.203  1.2393 -0.7205  0.1147
   8423SM  C18S11220   4.764   3.070  14.157 -0.5697  0.0137  0.7771
   8423SM  H18S11221   4.838   3.146  14.123  0.3342 -1.5539 -0.9745
   8423SM  H18T11222   4.788   2.969  14.117  0.5418  0.0064  1.4238
   8423SM  H18U11223   4.781   3.062  14.266 -1.3690 -2.1505  0.7872
   8423SM   C1F11224   4.725   2.797  12.429 -0.2843  0.1366 -0.1833
   8423SM    OF11225   4.798   2.819  12.332 -0.3555  0.0354 -0.5303
   8423SM   C2F11226   4.757   2.692  12.538  0.2614  0.2588  0.1576
   8423SM   H2F11227   4.854   2.645  12.511 -0.1152  0.3029 -1.3641
   8423SM   H2G11228   4.685   2.608  12.536 -0.4598  0.6074  3.8463
   8423SM   C3F11229   4.756   2.748  12.676  0.4534  0.0156  0.5371
   8423SM   H3F11230   4.654   2.767  12.714 -0.8414 -2.8225 -1.1987
   8423SM   H3G11231   4.809   2.845  12.677 -2.7577  1.8754  0.9020
   8423SM   C4F11232   4.823   2.668  12.782  0.4875  0.1763  0.3797
   8423SM   H4F11233   4.924   2.646  12.741 -0.9881 -1.5242 -2.6892
   8423SM   H4G11234   4.760   2.577  12.795  2.0583 -0.9248  0.5468
   8423SM   C5F11235   4.838   2.748  12.918 -0.3679  0.2993 -0.2657
   8423SM   H5F11236   4.739   2.792  12.942 -0.5920 -1.1124  1.5912
   8423SM   H5G11237   4.917   2.826  12.909  0.9413 -0.7151  1.6570
   8423SM   C6F11238   4.871   2.655  13.031 -0.3475  0.1405 -0.7815
   8423SM   H6F11239   4.973   2.612  13.016  0.0110  0.3139  0.9431
   8423SM   H6G11240   4.798   2.571  13.029 -0.3790  0.1420 -0.0339
   8423SM   C7F11241   4.846   2.720  13.171 -0.5690 -0.2246  0.0539
   8423SM   H7F11242   4.746   2.765  13.186 -0.8023 -1.0220  1.0906
   8423SM   H7G11243   4.930   2.791  13.183 -1.3980  0.8509 -0.4078
   8423SM   C8F11244   4.883   2.625  13.286 -0.6808 -0.3713  0.5625
   8423SM   H8F11245   4.990   2.601  13.273 -0.4524  0.6624  0.4840
   8423SM   H8G11246   4.823   2.531  13.276 -0.5399 -0.2862 -1.5047
   8423SM   C9F11247   4.856   2.685  13.423  0.4198 -0.6831  0.8542
   8423SM   H9F11248   4.753   2.725  13.426  1.5994  2.7954 -0.0059
   8423SM   H9G11249   4.922   2.773  13.441 -0.7929  0.2565  0.8017
   8423SM  C10F11250   4.875   2.580  13.533  0.1784  0.1986 -0.3074
   8423SM  H10F11251   4.976   2.534  13.525 -0.0523 -0.4626  0.4240
   8423SM  H10G11252   4.798   2.500  13.531  0.0106  0.3658 -1.5295
   8423SM  C11F11253   4.873   2.636  13.679  0.0803 -0.0714 -0.4659
   8423SM  H11F11254   4.775   2.642  13.731  0.3813 -2.0824  0.4239
   8423SM  H11G11255   4.920   2.737  13.672 -0.2285  0.2829  1.6832
   8423SM  C12F11256   4.966   2.556  13.784  0.6592  0.3308  0.4853
   8423SM  H12F11257   5.071   2.558  13.748  0.0877  2.4366 -1.3630
   8423SM  H12G11258   4.929   2.452  13.775  0.6067  0.4228 -0.5202
   8423SM  C13F11259   4.956   2.623  13.923  0.1698 -0.0111 -0.0900
   8423SM  H13F11260   4.845   2.635  13.930 -0.1844 -2.4215 -0.8667
   8423SM  H13G11261   5.001   2.725  13.923 -1.3621  0.7037 -0.1293
   8423SM  C14F11262   5.000   2.535  14.038 -0.5718  0.5874 -0.3274
   8423SM  H14F11263   5.100   2.493  14.016 -1.3012 -0.9677 -0.8657
   8423SM  H14G11264   4.926   2.453  14.053  0.2697 -0.3176 -1.0262
   8423SM  C15F11265   5.014   2.625  14.164 -0.2178 -0.7394 -0.6272
   8423SM  H15F11266   5.060   2.722  14.135 -0.2246 -0.1340  1.2287
   8423SM  H15G11267   5.091   2.572  14.224 -0.3437 -1.2932 -0.9461
   8423SM  C16F11268   4.888   2.643  14.244  0.6658  0.0329 -0.2511
   8423SM  H16F11269   4.813   2.693  14.180  0.1195  0.4686  0.7126
   8423SM  H16G11270   4.913   2.718  14.322 -3.4315  1.2479  0.0967
   8423SM  C17F11271   4.826   2.513  14.296 -0.4690 -0.9595  0.5482
   8423SM  H17F11272   4.845   2.427  14.228  0.5696  0.0043 -0.4132
   8423SM  H17G11273   4.715   2.520  14.305 -0.7629 -1.4186 -1.8975
   8423SM  C18F11274   4.895   2.483  14.437  0.4184  1.1560 -0.1686
   8423SM  H18F11275   5.006   2.483  14.437  0.4531  1.1382  1.8139
   8423SM  H18G11276   4.865   2.382  14.474 -2.3524  0.9475 -2.6570
   8423SM  C19F11277   4.853   2.578  14.547 -0.3784 -0.6223 -0.3051
   8423SM  H19F11278   4.749   2.612  14.530  0.1672  1.1788 -0.2595
   8423SM  H19G11279   4.917   2.666  14.525  1.5127 -2.4178 -2.5814
   8423SM  C20F11280   4.865   2.527  14.690  0.4979 -0.8912  0.4950
   8423SM  H20F11281   4.969   2.495  14.712  1.4324  0.4710 -1.6296
   8423SM  H20G11282   4.802   2.437  14.706 -3.0976  1.5255  1.2588
   8423SM  C21F11283   4.834   2.644  14.786  0.5231  0.0529  0.5442
   8423SM  H21F11284   4.732   2.687  14.774  1.2602  1.6454 -0.3029
   8423SM  H21G11285   4.905   2.725  14.756 -1.5341  1.6721 -0.2301
   8423SM  C22F11286   4.857   2.604  14.931  0.2934  0.0167  0.6623
   8423SM  H22F11287   4.967   2.588  14.929  0.5948  1.6764  1.8238
   8423SM  H22G11288   4.806   2.509  14.958  1.0093 -1.2088 -2.0450
   8423SM  C23F11289   4.827   2.724  15.035  0.3661  0.0347  1.1298
   8423SM  H23F11290   4.891   2.812  15.014  0.0197 -0.0620 -0.4335
   8423SM  H23G11291   4.839   2.703  15.144  1.1835 -0.2576  0.9895
   8423SM  H23H11292   4.725   2.761  15.011  0.9651  0.6197 -0.6397
   8523SM     N11293   5.739   4.251  11.058  0.1359  0.5831  0.0557
   8523SM   C1511294   5.743   4.184  10.918  0.3550 -0.1936 -0.0138
   8523SM  H15A11295   5.846   4.179  10.885  0.2674 -3.5822 -0.1407
   8523SM  H15B11296   5.681   4.242  10.852  0.1145  0.3334  0.6669
   8523SM  H15C11297   5.699   4.085  10.922 -0.2296 -0.0799 -2.2562
   8523SM   C1411298   5.794   4.392  11.045  0.4072 -0.0008  0.2141
   8523SM  H14A11299   5.893   4.381  11.003  0.8497  1.1599  0.9231
   8523SM  H14B11300   5.788   4.449  11.136 -1.0388  0.7386 -0.3106
   8523SM  H14C11301   5.733   4.442  10.972  0.5960  0.3376  0.2881
   8523SM   C1311302   5.596   4.264  11.114 -0.2641 -0.2457  0.6319
   8523SM  H13A11303   5.532   4.178  11.097 -0.5294 -0.7935  3.8629
   8523SM  H13B11304   5.563   4.352  11.061  2.5717  1.3017  1.2459
   8523SM  H13C11305   5.609   4.295  11.216 -0.6988  1.8167  0.0984
   8523SM   C1211306   5.823   4.165  11.154  0.2900 -0.3588  0.2414
   8523SM  H12A11307   5.901   4.111  11.102 -0.1413 -0.7451 -0.0080
   8523SM  H12B11308   5.765   4.080  11.186  1.1111 -1.1124 -0.2228
   8523SM   C1111309   5.877   4.244  11.275 -0.1875  0.4035  0.5773
   8523SM  H11A11310   5.935   4.332  11.238 -1.6100  0.9522 -0.4308
   8523SM  H11B11311   5.953   4.186  11.332 -0.1814 -0.7345 -0.5529
   8523SM     P11312   5.741   4.189  11.491  0.0348  0.0856  0.1243
   8523SM   O1311313   5.632   4.252  11.572  0.3199 -0.8488  0.5523
   8523SM   O1411314   5.733   4.046  11.458 -0.3250  0.3912  0.5541
   8523SM   O1111315   5.875   4.222  11.570 -0.6585  0.2175  0.4744
   8523SM   O1211316   5.767   4.282  11.360  0.0019  0.6917  0.0433
   8523SM   C1S11317   5.911   4.352  11.604 -0.0991  0.1447 -0.1198
   8523SM   H1S11318   5.832   4.423  11.571  0.4038  0.6503 -0.2408
   8523SM   H1T11319   6.008   4.387  11.563  0.5712 -1.7336 -0.1949
   8523SM    NF11320   5.956   4.502  11.797 -0.0995 -0.5706 -0.7832
   8523SM   HNF11321   6.053   4.525  11.793 -0.6512  2.3178  0.5095
   8523SM   C2S11322   5.915   4.369  11.761 -0.8178 -0.2906 -0.1180
   8523SM   H2S11323   5.818   4.342  11.807 -0.7277 -1.2993 -0.5010
   8523SM   C3S11324   6.022   4.260  11.817  0.2993 -0.4063 -0.0358
   8523SM   H3S11325   6.117   4.283  11.764  0.4060 -0.5588  0.0902
   8523SM    O311326   5.979   4.125  11.795 -0.1860 -0.1065 -0.5268
   8523SM   HO311327   5.916   4.128  11.723 -0.4132  1.8777 -0.3189
   8523SM   C4S11328   6.036   4.276  11.960 -1.3630 -0.0200 -0.8234
   8523SM   H4S11329   5.939   4.285  12.009 -0.2720  2.7581  1.0420
   8523SM   C5S11330   6.146   4.297  12.040 -0.3435  0.5302  0.1717
   8523SM   H5S11331   6.242   4.301  11.987 -1.5096 -0.6621 -2.2202
   8523SM   C6S11332   6.156   4.311  12.186 -0.6144  0.1137 -0.2454
   8523SM   H6S11333   6.209   4.403  12.219 -0.3294 -0.2862  0.4401
   8523SM   H6T11334   6.209   4.223  12.229  0.1502  0.6642 -0.0309
   8523SM   C7S11335   6.027   4.314  12.262  0.0421 -0.4655 -0.2355
   8523SM   H7S11336   5.968   4.225  12.231 -2.2159  1.0358 -0.5012
   8523SM   H7T11337   5.963   4.401  12.234  0.3745  0.8539  2.7122
   8523SM   C8S11338   6.058   4.331  12.410  0.2163  0.3659 -0.3377
   8523SM   H8S11339   6.146   4.264  12.426  0.2900  0.4268 -0.4840
   8523SM   H8T11340   5.986   4.294  12.486  0.8429 -0.0757  0.0480
   8523SM   C9S11341   6.087   4.479  12.445  1.1272  0.4067 -0.2482
   8523SM   H9S11342   5.990   4.533  12.453  0.6908 -0.2558 -0.9219
   8523SM   H9T11343   6.152   4.530  12.370  0.2604  2.8499  0.5678
   8523SM  C10S11344   6.168   4.486  12.574 -0.3972  0.3899  0.9894
   8523SM  H10S11345   6.219   4.584  12.576 -0.8186  0.7624 -2.1291
   8523SM  H10T11346   6.247   4.408  12.568  0.9457  1.8118 -1.0852
   8523SM  C11S11347   6.081   4.467  12.696 -0.6104 -0.6194 -0.3265
   8523SM  H11S11348   6.044   4.364  12.681 -2.0858  0.0911 -2.0213
   8523SM  H11T11349   6.001   4.543  12.675  1.0513  1.4392  0.4281
   8523SM  C12S11350   6.159   4.502  12.827 -0.2215  0.3044  0.2639
   8523SM  H12S11351   6.185   4.608  12.809 -0.3040  0.2354 -0.2873
   8523SM  H12T11352   6.245   4.433  12.844  1.5691  2.6241  1.1197
   8523SM  C13S11353   6.058   4.500  12.949 -0.8514  0.7211  0.9208
   8523SM  H13S11354   6.009   4.400  12.938 -1.0037  1.0029 -1.6312
   8523SM  H13T11355   5.976   4.572  12.932 -1.0698  0.1012 -0.9231
   8523SM  C14S11356   6.125   4.525  13.084  0.1628  0.2821 -0.1426
   8523SM  H14S11357   6.153   4.631  13.099  1.0164 -0.2608  2.6985
   8523SM  H14T11358   6.222   4.470  13.080  0.5443  1.0011 -1.1434
   8523SM  C15S11359   6.038   4.463  13.192 -0.0459 -0.1495 -0.1683
   8523SM  H15S11360   6.033   4.356  13.163  2.0070 -0.5571  0.7676
   8523SM  H15T11361   5.937   4.507  13.177  0.5565  1.6177  0.6341
   8523SM  C16S11362   6.081   4.485  13.337  0.2020 -0.0991  0.3225
   8523SM  H16S11363   6.123   4.585  13.363 -0.5357  0.3643 -0.2348
   8523SM  H16T11364   6.171   4.420  13.346  0.1982 -0.0631  0.6370
   8523SM  C17S11365   5.980   4.437  13.444 -0.2329 -0.2257 -0.6770
   8523SM  H17S11366   5.937   4.338  13.416 -1.1815 -0.1272  0.3677
   8523SM  H17T11367   5.902   4.516  13.450 -0.6028 -0.6549  4.1332
   8523SM  C18S11368   6.042   4.420  13.579  0.1109  0.0249 -0.5924
   8523SM  H18S11369   6.097   4.323  13.580 -1.6521 -1.0018  0.0329
   8523SM  H18T11370   5.965   4.424  13.659  0.8752 -0.7450  0.2079
   8523SM  H18U11371   6.115   4.503  13.596 -0.0240  0.3732 -1.6665
   8523SM   C1F11372   5.864   4.599  11.793  0.2101 -0.4959 -0.4254
   8523SM    OF11373   5.745   4.575  11.789 -0.2976 -0.3355 -0.0076
   8523SM   C2F11374   5.927   4.736  11.784 -0.0703 -0.5402  0.0571
   8523SM   H2F11375   5.862   4.804  11.725  0.7636 -0.1639 -0.4575
   8523SM   H2G11376   6.014   4.724  11.716 -0.1750 -0.7278 -0.0476
   8523SM   C3F11377   5.962   4.799  11.911  0.5244 -0.1478  0.1439
   8523SM   H3F11378   5.882   4.874  11.931 -0.1068 -1.0874  1.2697
   8523SM   H3G11379   6.056   4.858  11.901  1.0094 -0.8599  0.5226
   8523SM   C4F11380   5.966   4.708  12.035  0.1491  0.3261 -0.0097
   8523SM   H4F11381   6.033   4.621  12.021  0.6422  0.5608  0.8063
   8523SM   H4G11382   5.873   4.652  12.057 -0.0284  0.4890 -0.3400
   8523SM   C5F11383   6.004   4.776  12.164 -0.5188 -0.0054 -0.2268
   8523SM   H5F11384   6.027   4.884  12.157  0.2902 -0.1078  0.6817
   8523SM   H5G11385   6.096   4.728  12.204 -0.0983 -1.6947 -2.9942
   8523SM   C6F11386   5.900   4.753  12.278  0.1367 -0.9783  0.4342
   8523SM   H6F11387   5.896   4.646  12.308  1.9425 -1.0299  0.6294
   8523SM   H6G11388   5.802   4.800  12.257  1.4106  1.2749 -0.9081
   8523SM   C7F11389   5.955   4.816  12.404 -0.4186  0.3124 -0.2888
   8523SM   H7F11390   5.984   4.920  12.377  1.8798  0.0618  0.9196
   8523SM   H7G11391   6.051   4.772  12.441 -0.8884  0.7449  1.5680
   8523SM   C8F11392   5.853   4.822  12.520 -0.7822  0.4321  0.1746
   8523SM   H8F11393   5.827   4.715  12.537  0.7622  0.2179  1.3710
   8523SM   H8G11394   5.764   4.883  12.497  1.3769  3.6136 -0.3804
   8523SM   C9F11395   5.914   4.879  12.647  0.9509  0.2388  0.3388
   8523SM   H9F11396   5.936   4.987  12.632 -0.4666  0.5561  0.4063
   8523SM   H9G11397   6.012   4.829  12.661  0.8641  0.1610  0.6736
   8523SM  C10F11398   5.831   4.857  12.771  0.4848  0.1602 -0.1991
   8523SM  H10F11399   5.795   4.753  12.785  0.5278  0.1127 -0.4372
   8523SM  H10G11400   5.736   4.914  12.761  0.8882  0.6656 -1.3423
   8523SM  C11F11401   5.904   4.888  12.902 -0.1810  0.5856 -0.4234
   8523SM  H11F11402   5.927   4.997  12.905 -0.7968  0.9600 -4.0447
   8523SM  H11G11403   6.006   4.847  12.891 -0.0865  1.0572 -1.5319
   8523SM  C12F11404   5.840   4.832  13.037  0.1651 -0.2899  0.5967
   8523SM  H12F11405   5.823   4.727  13.004 -1.9707 -0.1101  0.9653
   8523SM  H12G11406   5.738   4.874  13.047  0.4638  1.0468 -1.2970
   8523SM  C13F11407   5.919   4.850  13.161 -0.6899  0.2073  0.1859
   8523SM  H13F11408   5.934   4.960  13.169  2.2344 -0.2090  2.0837
   8523SM  H13G11409   6.020   4.802  13.157 -0.5440  0.5447 -0.3972
   8523SM  C14F11410   5.844   4.804  13.279  0.0076  0.5939 -0.3893
   8523SM  H14F11411   5.840   4.693  13.285 -0.7063  0.6588  0.3351
   8523SM  H14G11412   5.740   4.843  13.281 -0.8945 -1.4356 -2.5237
   8523SM  C15F11413   5.910   4.846  13.413  0.7323  0.0802  0.6940
   8523SM  H15F11414   5.900   4.956  13.413 -0.4523 -0.0066  1.4589
   8523SM  H15G11415   6.018   4.821  13.410  0.4053 -1.3531 -0.2020
   8523SM  C16F11416   5.846   4.797  13.549 -0.5262 -0.6857  0.5286
   8523SM  H16F11417   5.804   4.696  13.534  0.8758 -1.3109  0.6063
   8523SM  H16G11418   5.767   4.870  13.578 -0.5774  0.1918 -1.6275
   8523SM  C17F11419   5.955   4.795  13.660  0.3813  0.2430  0.2801
   8523SM  H17F11420   6.004   4.895  13.661 -0.4186  0.6389  0.5130
   8523SM  H17G11421   6.030   4.715  13.643 -1.0885 -1.4614  1.4997
   8523SM  C18F11422   5.892   4.778  13.795 -0.1968  0.3093  0.7977
   8523SM  H18F11423   5.845   4.677  13.788  1.1702 -0.4523  2.0904
   8523SM  H18G11424   5.813   4.856  13.805 -0.8088 -0.0851 -0.7342
   8523SM  C19F11425   5.991   4.807  13.913 -0.1069  0.1800  0.4553
   8523SM  H19F11426   6.004   4.914  13.941  0.2053 -0.0239  1.1091
   8523SM  H19G11427   6.089   4.761  13.890  0.0731  1.3815 -1.4232
   8523SM  C20F11428   5.959   4.729  14.039  0.3717 -0.1253 -0.0824
   8523SM  H20F11429   6.050   4.724  14.103 -0.2422 -1.5159  0.7515
   8523SM  H20G11430   5.943   4.624  14.005 -0.1396 -0.6823  1.7117
   8523SM  C21F11431   5.844   4.784  14.132 -0.0402  0.4027  0.3506
   8523SM  H21F11432   5.853   4.706  14.211  2.1637 -0.5883 -0.7868
   8523SM  H21G11433   5.749   4.768  14.076 -0.1187 -1.3901  0.9412
   8523SM  C22F11434   5.876   4.921  14.192 -0.0773 -0.0285  0.4080
   8523SM  H22F11435   5.891   4.989  14.105  0.0364 -0.6657 -0.0710
   8523SM  H22G11436   5.972   4.918  14.249 -0.8374  1.2365  1.8451
   8523SM  C23F11437   5.765   4.973  14.280  0.1926 -0.5124  0.2682
   8523SM  H23F11438   5.793   5.059  14.345  0.1994 -1.7267  1.9220
   8523SM  H23G11439   5.716   4.890  14.335 -1.0840  0.7424  1.1089
   8523SM  H23H11440   5.689   5.011  14.208  1.2905  1.2429 -0.0477
   8623SM     N11441   4.440   2.150  11.329  0.3829  0.2158 -1.4014
   8623SM   C1511442   4.383   2.037  11.420  0.0543  0.0762  0.3215
   8623SM  H15A11443   4.453   2.005  11.496 -0.1129 -1.3972 -0.1203
   8623SM  H15B11444   4.359   1.953  11.357 -0.7909 -0.7596  1.7083
   8623SM  H15C11445   4.292   2.065  11.470 -0.3960  1.6079 -1.2338
   8623SM   C1411446   4.530   2.093  11.227  0.0161 -0.2649 -0.0308
   8623SM  H14A11447   4.482   2.016  11.169  0.4110 -2.1663  2.0598
   8623SM  H14B11448   4.620   2.047  11.263  1.0003  1.6279  0.0514
   8623SM  H14C11449   4.555   2.171  11.156 -1.0820 -0.4107 -0.6097
   8623SM   C1311450   4.332   2.220  11.253  0.2122 -0.2066  1.0239
   8623SM  H13A11451   4.253   2.255  11.319 -1.6128 -2.4608  0.1566
   8623SM  H13B11452   4.300   2.146  11.181  1.5476  0.5141 -0.3490
   8623SM  H13C11453   4.371   2.301  11.195  1.3052  0.3719  2.5024
   8623SM   C1211454   4.517   2.247  11.432  0.0445  0.8353 -0.3157
   8623SM  H12A11455   4.438   2.271  11.501  0.5077 -0.3850  0.6752
   8623SM  H12B11456   4.536   2.341  11.383 -1.2541  1.1339 -0.2820
   8623SM   C1111457   4.634   2.196  11.511  0.4802 -0.2939 -0.1120
   8623SM  H11A11458   4.692   2.277  11.559 -0.0628 -0.9275  1.7217
   8623SM  H11B11459   4.701   2.153  11.434 -0.6312  0.4373 -1.5451
   8623SM     P11460   4.509   2.160  11.735  0.2505  0.2825  0.2414
   8623SM   O1311461   4.522   2.304  11.761  0.3280 -0.7135  0.0176
   8623SM   O1411462   4.369   2.120  11.708  0.6558 -0.3485 -0.5128
   8623SM   O1111463   4.559   2.075  11.860  0.6117  0.1298  0.7664
   8623SM   O1211464   4.595   2.105  11.613 -0.1332 -0.0111 -0.5063
   8623SM   C1S11465   4.690   2.115  11.906 -0.3077  0.6658 -0.6845
   8623SM   H1S11466   4.686   2.219  11.944 -0.8456 -0.6636  3.3060
   8623SM   H1T11467   4.767   2.119  11.826 -2.0493 -0.5474 -2.5346
   8623SM    NF11468   4.856   2.095  12.092  0.7316  0.1046 -0.3108
   8623SM   HNF11469   4.948   2.076  12.060  0.6376 -0.7883 -0.0749
   8623SM   C2S11470   4.740   2.024  12.025 -0.0581  0.2348  0.1872
   8623SM   H2S11471   4.660   2.011  12.101  0.4743  0.0696  0.7281
   8623SM   C3S11472   4.769   1.875  11.984  0.2389 -0.7383 -0.6225
   8623SM   H3S11473   4.841   1.880  11.900  0.0766  0.3621 -0.7111
   8623SM    O311474   4.657   1.809  11.921  0.1001 -0.7182 -0.2477
   8623SM   HO311475   4.594   1.880  11.905 -0.0047 -1.0079 -1.1507
   8623SM   C4S11476   4.820   1.798  12.102  0.0111  0.3044 -0.4847
   8623SM   H4S11477   4.929   1.779  12.103 -0.1615 -0.7412  0.3435
   8623SM   C5S11478   4.741   1.739  12.199  0.0185  0.9857 -0.1463
   8623SM   H5S11479   4.633   1.754  12.192  0.0271  1.2131  0.1963
   8623SM   C6S11480   4.794   1.651  12.311 -0.1867  0.0022 -1.0115
   8623SM   H6S11481   4.900   1.622  12.295  0.0072  0.8776 -1.3291
   8623SM   H6T11482   4.741   1.552  12.312 -0.4734  0.1537 -0.8098
   8623SM   C7S11483   4.778   1.730  12.440 -0.3165 -0.2796 -0.6074
   8623SM   H7S11484   4.671   1.755  12.459 -0.0435 -0.4893  1.4168
   8623SM   H7T11485   4.838   1.823  12.439  1.8693 -1.6271 -1.1480
   8623SM   C8S11486   4.825   1.655  12.563  0.3476  0.2811 -0.3264
   8623SM   H8S11487   4.934   1.640  12.553  0.3396  0.0898 -0.1379
   8623SM   H8T11488   4.767   1.560  12.563 -1.9653  1.5360  2.0541
   8623SM   C9S11489   4.793   1.727  12.689  0.3621 -0.8889 -0.6049
   8623SM   H9S11490   4.683   1.746  12.690  0.4922 -0.1070  0.6190
   8623SM   H9T11491   4.848   1.820  12.664  2.5429 -1.7594  0.7306
   8623SM  C10S11492   4.848   1.664  12.816 -0.0632 -0.8291  0.1093
   8623SM  H10S11493   4.956   1.648  12.800 -0.2338 -0.6103 -1.4480
   8623SM  H10T11494   4.804   1.562  12.813  0.6372 -1.1326  0.1053
   8623SM  C11S11495   4.812   1.740  12.943  0.0755  0.0396 -0.0960
   8623SM  H11S11496   4.701   1.737  12.957  0.0453  0.4905 -0.2043
   8623SM  H11T11497   4.828   1.850  12.935 -2.5022  0.5251  0.2650
   8623SM  C12S11498   4.886   1.688  13.071  0.1200  0.3263  0.4332
   8623SM  H12S11499   4.996   1.699  13.056  0.2175 -0.1999  0.7276
   8623SM  H12T11500   4.863   1.580  13.084  1.0978  0.2606  1.8876
   8623SM  C13S11501   4.853   1.760  13.198  0.2223  0.1547 -0.1662
   8623SM  H13S11502   4.744   1.781  13.187 -0.1545 -2.0619 -1.2417
   8623SM  H13T11503   4.895   1.862  13.187 -1.2855  0.7768 -0.4376
   8623SM  C14S11504   4.894   1.688  13.324 -0.3322  0.5726 -0.0827
   8623SM  H14S11505   5.003   1.668  13.319 -0.4743  0.1023 -2.3460
   8623SM  H14T11506   4.854   1.588  13.299  2.0508 -0.1445 -1.3721
   8623SM  C15S11507   4.840   1.729  13.463  0.7521  0.9017  0.2969
   8623SM  H15S11508   4.730   1.739  13.452  0.6863 -1.5159 -2.4406
   8623SM  H15T11509   4.875   1.833  13.481  2.0929  0.6257 -0.5690
   8623SM  C16S11510   4.894   1.626  13.568 -0.2346  1.1774  0.1613
   8623SM  H16S11511   5.003   1.606  13.564 -0.0022  2.3617  0.2888
   8623SM  H16T11512   4.851   1.527  13.540  1.3569  0.8113 -1.1416
   8623SM  C17S11513   4.854   1.672  13.705 -0.3332  0.2473  0.2978
   8623SM  H17S11514   4.743   1.679  13.714 -0.4649 -1.4370  0.2317
   8623SM  H17T11515   4.899   1.773  13.715  0.4785  0.1571 -1.9201
   8623SM  C18S11516   4.918   1.589  13.817  0.5528 -0.5377  0.1329
   8623SM  H18S11517   4.879   1.614  13.918  2.9477  1.5433  0.6392
   8623SM  H18T11518   5.027   1.609  13.813  0.6624 -1.2551 -0.8820
   8623SM  H18U11519   4.898   1.483  13.788  1.5988 -0.8650  0.5662
   8623SM   C1F11520   4.835   2.214  12.144  0.0826 -0.4085 -0.4911
   8623SM    OF11521   4.725   2.247  12.188  0.3148 -0.5436  0.1188
   8623SM   C2F11522   4.945   2.324  12.141  0.2216 -0.2896  0.3160
   8623SM   H2F11523   4.923   2.394  12.057 -0.5079  1.1873  1.6887
   8623SM   H2G11524   5.036   2.271  12.105 -1.0881 -1.4368 -1.4973
   8623SM   C3F11525   4.957   2.399  12.275  0.3652 -0.1455 -0.2896
   8623SM   H3F11526   4.857   2.443  12.297 -0.1148 -1.2381 -0.2449
   8623SM   H3G11527   5.015   2.491  12.251 -0.0675 -0.2440 -1.8523
   8623SM   C4F11528   5.008   2.313  12.394  0.0107  0.0403  0.1400
   8623SM   H4F11529   5.107   2.272  12.366 -1.1491 -1.0389 -2.8629
   8623SM   H4G11530   4.942   2.224  12.407 -0.9097  0.7173  0.2076
   8623SM   C5F11531   5.000   2.393  12.524 -0.0217 -0.8048  0.1004
   8623SM   H5F11532   4.893   2.415  12.546  0.0655  0.9561 -1.0625
   8623SM   H5G11533   5.039   2.494  12.500 -2.5830  0.2988  0.1994
   8623SM   C6F11534   5.072   2.319  12.638  0.4471 -0.1870  0.6389
   8623SM   H6F11535   5.181   2.327  12.614 -0.2311  0.9579 -2.4759
   8623SM   H6G11536   5.050   2.210  12.644 -1.1623 -0.0836 -2.0932
   8623SM   C7F11537   5.056   2.381  12.782 -0.0157  0.3802 -0.0340
   8623SM   H7F11538   4.947   2.397  12.800 -0.1135 -1.8701  1.7864
   8623SM   H7G11539   5.090   2.486  12.772 -1.6617  1.0155  0.6454
   8623SM   C8F11540   5.129   2.290  12.891  0.7267 -0.7772  0.3608
   8623SM   H8F11541   5.234   2.304  12.858  0.0676  1.1647 -1.1189
   8623SM   H8G11542   5.096   2.184  12.886  0.1117 -0.6603  1.4622
   8623SM   C9F11543   5.114   2.338  13.041  0.4901 -0.9672  0.4544
   8623SM   H9F11544   5.005   2.358  13.050  0.1556 -1.1855 -2.1378
   8623SM   H9G11545   5.173   2.432  13.045 -0.8940 -0.0223 -0.4886
   8623SM  C10F11546   5.179   2.255  13.142  0.2769  0.4879 -0.3847
   8623SM  H10F11547   5.278   2.224  13.102 -0.5202 -0.9284 -1.3434
   8623SM  H10G11548   5.119   2.163  13.154 -1.4637  1.1662 -2.9222
   8623SM  C11F11549   5.189   2.329  13.268 -0.1618  0.1125  0.2987
   8623SM  H11F11550   5.086   2.361  13.295 -0.1485  1.1614 -0.8019
   8623SM  H11G11551   5.254   2.419  13.266  1.3752 -0.9637 -2.0943
   8623SM  C12F11552   5.230   2.241  13.386 -0.1733 -0.7991  0.1401
   8623SM  H12F11553   5.328   2.197  13.358  0.5820  0.4171  0.8049
   8623SM  H12G11554   5.154   2.162  13.407 -1.3538 -0.1526 -1.5374
   8623SM  C13F11555   5.255   2.314  13.523 -0.0369  0.4832 -0.0825
   8623SM  H13F11556   5.166   2.381  13.526 -0.7192 -0.3710 -0.5438
   8623SM  H13G11557   5.348   2.374  13.519 -1.5239  3.1628  1.9790
   8623SM  C14F11558   5.257   2.210  13.640  0.7182 -0.3866  0.1402
   8623SM  H14F11559   5.345   2.146  13.622 -0.2174 -1.2674 -1.4552
   8623SM  H14G11560   5.166   2.148  13.629  0.9106 -0.5255 -0.6815
   8623SM  C15F11561   5.271   2.269  13.780  0.3889  0.2821  0.3984
   8623SM  H15F11562   5.179   2.329  13.799 -1.6530 -1.5094 -2.9388
   8623SM  H15G11563   5.360   2.333  13.796  0.2747  0.4967  0.1786
   8623SM  C16F11564   5.254   2.158  13.883 -0.3768 -0.6417 -0.2723
   8623SM  H16F11565   5.316   2.069  13.856 -0.9357 -1.2940  0.5533
   8623SM  H16G11566   5.151   2.118  13.899 -0.1068 -0.7065  1.5105
   8623SM  C17F11567   5.311   2.203  14.017 -0.0279  0.0185  0.6465
   8623SM  H17F11568   5.295   2.312  14.033  0.4040 -0.0492  1.5978
   8623SM  H17G11569   5.420   2.185  14.019  0.5102  2.8864  1.4181
   8623SM  C18F11570   5.247   2.124  14.130 -0.0213  0.0274  0.3435
   8623SM  H18F11571   5.233   2.020  14.094  1.2160 -0.2397  0.5686
   8623SM  H18G11572   5.152   2.175  14.156  0.0475 -0.4309  1.5515
   8623SM  C19F11573   5.339   2.114  14.258  0.5543  0.3525 -0.3310
   8623SM  H19F11574   5.383   2.215  14.261 -1.2388  1.3188 -2.8965
   8623SM  H19G11575   5.415   2.036  14.233 -0.3159 -0.1606 -1.5060
   8623SM  C20F11576   5.269   2.086  14.395  0.0325 -0.7542  0.4814
   8623SM  H20F11577   5.196   2.003  14.387 -1.0258  0.2144 -0.1856
   8623SM  H20G11578   5.206   2.176  14.414 -0.4613 -0.7535 -1.0256
   8623SM  C21F11579   5.360   2.081  14.515  0.3875 -0.2571 -0.1887
   8623SM  H21F11580   5.435   2.162  14.523  0.7135 -0.5525 -0.2642
   8623SM  H21G11581   5.422   1.992  14.493 -0.1317 -0.7450  0.2666
   8623SM  C22F11582   5.288   2.062  14.653 -0.1122  0.4581 -1.0735
   8623SM  H22F11583   5.234   1.965  14.647  1.2998 -0.3766 -0.9690
   8623SM  H22G11584   5.218   2.140  14.688 -1.5465 -2.1156  2.4453
   8623SM  C23F11585   5.395   2.058  14.761 -0.0859  0.3422 -0.4484
   8623SM  H23F11586   5.350   2.062  14.862  1.9239  0.2857  0.4884
   8623SM  H23G11587   5.467   2.142  14.748 -0.2196  0.5631  0.2105
   8623SM  H23H11588   5.459   1.968  14.754  1.0777  1.0310  0.8734
   8723SM     N11589   5.528   3.162  11.295 -0.1070 -0.1975 -0.8937
   8723SM   C1511590   5.460   3.262  11.206  0.4596 -0.2684  0.1672
   8723SM  H15A11591   5.353   3.261  11.218  0.4621  3.1530  1.8080
   8723SM  H15B11592   5.484   3.245  11.102 -0.4547  3.4681 -0.8247
   8723SM  H15C11593   5.489   3.363  11.233  0.1028  0.3517 -1.6180
   8723SM   C1411594   5.493   3.034  11.237  0.1862  0.0580 -1.1269
   8723SM  H14A11595   5.520   2.957  11.308 -0.3879  0.9621  0.1083
   8723SM  H14B11596   5.543   3.021  11.142  0.6509  0.7623 -0.9891
   8723SM  H14C11597   5.385   3.028  11.232  0.2162 -3.0810 -0.1204
   8723SM   C1311598   5.679   3.182  11.296 -0.2111  0.1659 -0.0723
   8723SM  H13A11599   5.726   3.146  11.206  0.3228  0.4335  0.0898
   8723SM  H13B11600   5.729   3.134  11.379  0.1620 -1.3334 -1.1285
   8723SM  H13C11601   5.699   3.288  11.303  0.3973 -0.0378  2.6080
   8723SM   C1211602   5.476   3.186  11.437  0.4452 -0.2694 -0.3167
   8723SM  H12A11603   5.369   3.179  11.428  0.4827  0.3953 -1.4632
   8723SM  H12B11604   5.497   3.290  11.457  0.0479 -0.1677 -0.4232
   8723SM   C1111605   5.528   3.089  11.552 -0.1966  0.2293  0.1596
   8723SM  H11A11606   5.492   3.141  11.644 -1.1915 -1.7010  0.9192
   8723SM  H11B11607   5.638   3.102  11.548 -0.5128  3.3845 -0.3404
   8723SM     P11608   5.319   2.936  11.548  0.4552 -0.1184 -0.3450
   8723SM   O1311609   5.245   3.025  11.453 -0.5963 -0.2428 -0.2652
   8723SM   O1411610   5.289   2.791  11.546 -0.0155 -0.4032  0.6192
   8723SM   O1111611   5.305   2.992  11.695 -0.0826 -0.3704 -0.3025
   8723SM   O1211612   5.475   2.954  11.532 -0.3744 -0.0797 -0.2138
   8723SM   C1S11613   5.255   2.901  11.791  0.8337  0.4745 -0.9091
   8723SM   H1S11614   5.280   2.793  11.784 -0.1768  0.2167 -0.7309
   8723SM   H1T11615   5.144   2.892  11.785  0.7373 -0.3458  1.1645
   8723SM    NF11616   5.219   3.054  11.986 -0.2431 -0.2294 -0.3349
   8723SM   HNF11617   5.260   3.142  11.962  0.2729  0.3736  2.3964
   8723SM   C2S11618   5.296   2.942  11.930  0.4149  0.4314 -0.1907
   8723SM   H2S11619   5.268   2.856  11.995 -1.6427 -0.0054 -1.5863
   8723SM   C3S11620   5.454   2.962  11.943 -0.2729  0.5922 -0.5740
   8723SM   H3S11621   5.473   3.036  11.862 -1.8704 -0.2338 -1.7497
   8723SM    O311622   5.533   2.855  11.896  0.1645  0.0766  0.3373
   8723SM   HO311623   5.477   2.788  11.856 -0.1258  0.1852  0.5642
   8723SM   C4S11624   5.509   3.001  12.078 -0.4537  0.3867  0.6684
   8723SM   H4S11625   5.450   2.954  12.159 -1.8680  0.7983 -0.0875
   8723SM   C5S11626   5.599   3.095  12.108  0.2534 -0.4426  0.2320
   8723SM   H5S11627   5.667   3.141  12.035  0.3765 -1.0528 -0.0472
   8723SM   C6S11628   5.639   3.134  12.249 -0.3685 -0.0594  0.0058
   8723SM   H6S11629   5.622   3.243  12.255 -1.7905 -0.2054 -1.0048
   8723SM   H6T11630   5.750   3.129  12.257 -0.3974  0.8828  1.3596
   8723SM   C7S11631   5.583   3.055  12.368 -0.0290  0.6126 -0.0929
   8723SM   H7S11632   5.601   2.948  12.346  0.0714  0.5588  0.2483
   8723SM   H7T11633   5.475   3.075  12.381 -0.0294  0.2659  0.4564
   8723SM   C8S11634   5.656   3.090  12.499  1.0615  0.5993  0.1453
   8723SM   H8S11635   5.656   3.199  12.520 -2.9749  0.1333  4.1452
   8723SM   H8T11636   5.764   3.061  12.500  0.6427 -1.0392  0.3072
   8723SM   C9S11637   5.597   3.029  12.627  0.0702 -0.2353 -1.0548
   8723SM   H9S11638   5.620   2.920  12.627  1.4667  0.0143  0.3947
   8723SM   H9T11639   5.489   3.049  12.643 -0.1553 -1.5759 -0.7831
   8723SM  C10S11640   5.664   3.073  12.755  0.2593 -0.0065 -0.7267
   8723SM  H10S11641   5.640   3.181  12.763  1.1923  0.1772 -0.3420
   8723SM  H10T11642   5.774   3.059  12.753  0.3178  0.0628  1.0979
   8723SM  C11S11643   5.614   2.994  12.877  0.2679 -0.0602 -0.3855
   8723SM  H11S11644   5.641   2.888  12.862  0.9090  0.2178 -1.2834
   8723SM  H11T11645   5.504   3.005  12.889  0.0344  1.2858 -3.1100
   8723SM  C12S11646   5.682   3.040  13.005 -0.0357 -0.1690 -0.0519
   8723SM  H12S11647   5.667   3.149  13.018 -2.3995 -0.2544 -1.4416
   8723SM  H12T11648   5.791   3.022  13.001 -0.0411 -0.2817  0.2756
   8723SM  C13S11649   5.626   2.979  13.134 -0.2671 -0.4093  0.5583
   8723SM  H13S11650   5.640   2.869  13.130  1.0346 -0.2651  0.5480
   8723SM  H13T11651   5.516   2.991  13.130 -0.3630 -1.4169 -1.7144
   8723SM  C14S11652   5.696   3.029  13.250 -0.1188  0.4212 -0.0403
   8723SM  H14S11653   5.682   3.138  13.265 -0.5777  0.2563  0.7937
   8723SM  H14T11654   5.804   3.004  13.245 -0.1779 -0.9995  3.1930
   8723SM  C15S11655   5.643   2.986  13.388  0.4273  0.0039  0.1752
   8723SM  H15S11656   5.628   2.876  13.383 -0.5584  0.1911 -1.5899
   8723SM  H15T11657   5.543   3.033  13.397  0.7271  0.8062 -0.5777
   8723SM  C16S11658   5.736   3.011  13.504 -0.8688  0.1547  0.1748
   8723SM  H16S11659   5.753   3.121  13.507  0.0755  0.0683 -1.2120
   8723SM  H16T11660   5.830   2.956  13.483 -0.3998  0.1323  2.1812
   8723SM  C17S11661   5.685   2.948  13.634  0.2512  0.2908  0.0832
   8723SM  H17S11662   5.684   2.838  13.620  2.2914  0.3825 -1.2334
   8723SM  H17T11663   5.584   2.988  13.657  0.3640  0.2481  0.6793
   8723SM  C18S11664   5.765   2.990  13.756 -0.1968 -0.0110  0.0964
   8723SM  H18S11665   5.717   2.952  13.849  0.9015  2.2707  1.6803
   8723SM  H18T11666   5.775   3.100  13.768  1.6785 -0.1766  0.3117
   8723SM  H18U11667   5.865   2.941  13.757 -1.3344 -2.5167  1.2089
   8723SM   C1F11668   5.086   3.042  12.023  0.1178  0.2657  0.3636
   8723SM    OF11669   5.032   2.927  12.009 -0.0737  0.3105  0.0495
   8723SM   C2F11670   5.006   3.166  12.054  0.5748  0.2013 -0.2818
   8723SM   H2F11671   4.935   3.174  11.968 -0.1657  1.3528  0.4098
   8723SM   H2G11672   5.075   3.252  12.038  1.0592  0.3160  2.1359
   8723SM   C3F11673   4.933   3.159  12.192  0.5557  0.4798  0.0516
   8723SM   H3F11674   4.871   3.067  12.182  1.4051 -0.1505  0.4398
   8723SM   H3G11675   4.858   3.240  12.189 -0.0552 -0.0888 -2.4270
   8723SM   C4F11676   5.019   3.157  12.316 -0.2165  0.2851 -0.6547
   8723SM   H4F11677   5.072   3.255  12.328  0.2272  0.3458 -2.6981
   8723SM   H4G11678   5.097   3.078  12.319 -0.9374 -0.4089  1.9457
   8723SM   C5F11679   4.934   3.133  12.444  0.3748 -0.0856 -0.5046
   8723SM   H5F11680   4.877   3.040  12.423 -2.2807  1.1611  0.6681
   8723SM   H5G11681   4.865   3.220  12.454 -0.3335 -0.7271  0.3675
   8723SM   C6F11682   5.016   3.119  12.574 -0.1271 -0.3805  0.0817
   8723SM   H6F11683   5.102   3.190  12.569 -0.1582 -0.3147  0.4330
   8723SM   H6G11684   5.062   3.018  12.583  0.0490 -0.2591  0.5689
   8723SM   C7F11685   4.928   3.155  12.692 -0.8349 -0.2154 -0.1943
   8723SM   H7F11686   4.827   3.110  12.699 -1.2405  0.5733 -0.7619
   8723SM   H7G11687   4.916   3.265  12.691  0.4255 -0.0398 -2.4815
   8723SM   C8F11688   5.011   3.141  12.826  0.7376  0.1108  0.2274
   8723SM   H8F11689   5.101   3.206  12.830  2.8604 -2.6166  0.0063
   8723SM   H8G11690   5.052   3.038  12.829  0.1237 -0.1549 -0.3328
   8723SM   C9F11691   4.931   3.155  12.960  0.0016  0.0600 -0.1009
   8723SM   H9F11692   4.844   3.087  12.957 -0.7756  1.0470 -1.1084
   8723SM   H9G11693   4.891   3.258  12.972 -0.1817 -0.2615  2.6455
   8723SM  C10F11694   5.022   3.122  13.077 -0.4897  0.2595  0.3786
   8723SM  H10F11695   5.110   3.189  13.070 -1.1331  1.0135 -0.8837
   8723SM  H10G11696   5.059   3.018  13.065  1.0242  0.7516  0.6470
   8723SM  C11F11697   4.950   3.130  13.213  0.0224 -0.5547  0.4465
   8723SM  H11F11698   4.846   3.089  13.207 -0.8333  1.3342  1.5820
   8723SM  H11G11699   4.926   3.238  13.222 -0.2420 -0.5821  0.0703
   8723SM  C12F11700   5.042   3.086  13.325 -0.5455 -0.1314  0.9250
   8723SM  H12F11701   5.138   3.139  13.310 -1.2732  0.3334 -2.9360
   8723SM  H12G11702   5.062   2.977  13.313 -2.0953 -0.2695 -0.7115
   8723SM  C13F11703   4.987   3.106  13.466 -0.5899 -0.2835  0.1522
   8723SM  H13F11704   4.882   3.070  13.471 -0.9105  0.2647 -1.7753
   8723SM  H13G11705   4.985   3.217  13.476 -1.6326 -0.2382 -0.3841
   8723SM  C14F11706   5.063   3.037  13.584 -0.5730  0.0125  0.2474
   8723SM  H14F11707   5.172   3.056  13.581 -0.2177 -1.8766 -0.3641
   8723SM  H14G11708   5.063   2.926  13.585 -0.5781 -0.0193 -1.0854
   8723SM  C15F11709   5.017   3.082  13.724  0.0571 -0.0660  0.3562
   8723SM  H15F11710   4.907   3.064  13.723  0.2475 -1.2624 -1.1622
   8723SM  H15G11711   5.026   3.193  13.727 -0.3668 -0.0385  1.2883
   8723SM  C16F11712   5.092   3.027  13.841 -0.4569  0.5760  0.7586
   8723SM  H16F11713   5.182   2.983  13.793 -2.2477 -1.8181 -0.6118
   8723SM  H16G11714   5.038   2.941  13.884  0.8121  0.1898  1.6461
   8723SM  C17F11715   5.135   3.139  13.940 -0.4509  0.3683 -0.0639
   8723SM  H17F11716   5.050   3.210  13.959 -1.1478 -0.3418 -0.4725
   8723SM  H17G11717   5.222   3.192  13.896  0.7060 -1.4785 -0.0995
   8723SM  C18F11718   5.167   3.078  14.083 -0.6355 -0.6119  0.8352
   8723SM  H18F11719   5.083   3.024  14.130 -1.3704  0.1385  0.4068
   8723SM  H18G11720   5.176   3.177  14.134  1.0733 -1.0660  1.4995
   8723SM  C19F11721   5.298   3.002  14.077 -0.5231 -0.4255  0.1149
   8723SM  H19F11722   5.381   3.069  14.043  0.2480 -0.1936  2.2798
   8723SM  H19G11723   5.287   2.907  14.022  0.8883 -0.3821 -0.2827
   8723SM  C20F11724   5.350   2.961  14.218 -0.5718  0.0998 -0.0383
   8723SM  H20F11725   5.355   3.045  14.290  3.0696 -0.9302  1.1520
   8723SM  H20G11726   5.459   2.941  14.206 -0.6725 -0.9064  0.5766
   8723SM  C21F11727   5.277   2.843  14.285 -0.2119 -0.0749  0.9930
   8723SM  H21F11728   5.308   2.754  14.225 -1.3803 -0.8264  1.4849
   8723SM  H21G11729   5.168   2.860  14.276 -0.0682  0.1757 -0.7032
   8723SM  C22F11730   5.305   2.835  14.437 -0.0683  0.6969 -0.3280
   8723SM  H22F11731   5.273   2.928  14.489 -2.1076  0.4754 -1.0911
   8723SM  H22G11732   5.411   2.825  14.469 -1.0566 -0.6044  2.9642
   8723SM  C23F11733   5.234   2.710  14.501  0.1013 -0.2126  0.0244
   8723SM  H23F11734   5.269   2.613  14.460 -1.7249 -1.1482  0.5563
   8723SM  H23G11735   5.125   2.723  14.482 -0.2863  0.6849  2.4839
   8723SM  H23H11736   5.243   2.708  14.611 -0.2240  1.3697  0.0953
   8823SM     N11737   3.165   4.011  11.453  0.5703  0.6614  0.3923
   8823SM   C1511738   3.066   3.911  11.425 -0.3282  0.1017  0.7971
   8823SM  H15A11739   3.042   3.925  11.320 -1.2415  0.4904  1.0470
   8823SM  H15B11740   2.980   3.904  11.490 -0.1811 -0.7038  0.9112
   8823SM  H15C11741   3.122   3.819  11.428 -0.2744  0.1000  0.0745
   8823SM   C1411742   3.306   3.983  11.407  0.1449 -0.0024 -0.2687
   8823SM  H14A11743   3.374   4.048  11.460 -1.9068  1.5543  0.5870
   8823SM  H14B11744   3.314   4.008  11.303 -0.1341  1.1044 -0.0345
   8823SM  H14C11745   3.342   3.882  11.421 -1.0427 -0.5606 -1.0690
   8823SM   C1311746   3.121   4.143  11.398 -0.8023 -0.8342  0.1528
   8823SM  H13A11747   3.188   4.222  11.431 -0.0425 -1.5466  0.3400
   8823SM  H13B11748   3.028   4.174  11.444  0.0547  0.2810  1.2030
   8823SM  H13C11749   3.124   4.140  11.291  2.0896 -0.5720  0.1425
   8823SM   C1211750   3.170   4.032  11.606  0.3930 -0.0818 -0.2043
   8823SM  H12A11751   3.067   4.043  11.637  0.9477  0.7383  1.5137
   8823SM  H12B11752   3.222   4.123  11.632  1.4893 -0.3921 -1.2452
   8823SM   C1111753   3.238   3.923  11.700 -1.0558  0.2956 -0.1410
   8823SM  H11A11754   3.221   3.969  11.800  0.5868  1.1919 -0.2446
   8823SM  H11B11755   3.345   3.921  11.670 -0.6873  2.5354  0.7834
   8823SM     P11756   3.031   3.765  11.748 -0.6621  0.4917 -0.1121
   8823SM   O1311757   2.941   3.871  11.703 -0.1969  0.3237  0.0332
   8823SM   O1411758   3.005   3.616  11.728  0.0170 -0.2740 -0.3594
   8823SM   O1111759   3.060   3.778  11.900 -0.0207  0.2474 -0.0415
   8823SM   O1211760   3.175   3.792  11.685  0.6757  0.4711 -0.2833
   8823SM   C1S11761   2.945   3.768  11.983  0.1897 -0.2575  0.5858
   8823SM   H1S11762   2.919   3.664  12.013  1.7047 -0.6934  0.4854
   8823SM   H1T11763   2.854   3.813  11.937  0.2571 -0.6592  0.0546
   8823SM    NF11764   2.903   3.806  12.232 -0.7483 -0.2324 -0.4787
   8823SM   HNF11765   2.833   3.869  12.266  0.1364 -0.2019  1.4299
   8823SM   C2S11766   2.976   3.847  12.114  0.5348  1.1127 -0.7755
   8823SM   H2S11767   3.083   3.833  12.139  0.2902  0.1568 -0.2160
   8823SM   C3S11768   2.961   3.999  12.090 -0.4138 -0.4650  0.0093
   8823SM   H3S11769   2.852   4.015  12.082 -0.7648 -1.9678  1.3175
   8823SM    O311770   3.011   4.055  11.965 -0.5820 -0.1589 -0.1245
   8823SM   HO311771   3.024   3.984  11.901 -0.5641 -0.4448  0.1900
   8823SM   C4S11772   3.031   4.071  12.201 -0.3505 -0.1546 -0.1131
   8823SM   H4S11773   3.141   4.062  12.203 -0.2730  0.7386  2.1413
   8823SM   C5S11774   2.973   4.148  12.293 -0.4640 -0.7704 -0.1800
   8823SM   H5S11775   2.869   4.177  12.273 -0.4328 -1.5734 -1.6754
   8823SM   C6S11776   3.054   4.219  12.399  0.6066  0.3002  0.5673
   8823SM   H6S11777   3.003   4.307  12.442 -0.5539 -0.9063  1.7184
   8823SM   H6T11778   3.154   4.249  12.360 -0.0310  0.7014 -0.8471
   8823SM   C7S11779   3.089   4.128  12.521 -0.5072  0.0019 -0.0498
   8823SM   H7S11780   3.155   4.045  12.490  0.5141 -0.2199  2.5153
   8823SM   H7T11781   2.989   4.087  12.546  0.2364 -0.3155  2.6988
   8823SM   C8S11782   3.142   4.190  12.644  0.3140 -0.6878 -0.9060
   8823SM   H8S11783   3.063   4.238  12.706  0.6035 -2.0780  0.6149
   8823SM   H8T11784   3.228   4.260  12.641 -0.6029  0.4609 -2.5343
   8823SM   C9S11785   3.197   4.091  12.753 -0.2675  0.1262  0.0558
   8823SM   H9S11786   3.292   4.050  12.712 -0.9806  0.2394 -1.8456
   8823SM   H9T11787   3.125   4.007  12.764  0.7490 -0.5355  2.0418
   8823SM  C10S11788   3.220   4.145  12.897  0.4316  0.8378 -0.4040
   8823SM  H10S11789   3.159   4.235  12.915 -2.8754 -1.5676  1.4540
   8823SM  H10T11790   3.327   4.171  12.916  0.7368  1.6631 -2.8949
   8823SM  C11S11791   3.183   4.045  13.010  0.2778 -0.0482 -0.7984
   8823SM  H11S11792   3.258   3.964  13.016  1.6785  1.2371 -0.1603
   8823SM  H11T11793   3.083   4.002  12.985 -0.0019 -0.5486  1.0210
   8823SM  C12S11794   3.181   4.115  13.153  0.6567  0.7748 -0.1048
   8823SM  H12S11795   3.086   4.171  13.157  0.8334  1.0088  1.5339
   8823SM  H12T11796   3.268   4.182  13.173  0.7372  0.6652 -0.0870
   8823SM  C13S11797   3.175   4.006  13.267 -0.1997 -0.2051  0.4340
   8823SM  H13S11798   3.272   3.953  13.259 -0.0167 -0.0019  1.2366
   8823SM  H13T11799   3.096   3.928  13.256  1.0864 -1.5510  0.3108
   8823SM  C14S11800   3.167   4.062  13.402  0.4249  0.9630 -0.4119
   8823SM  H14S11801   3.245   4.137  13.426  1.9263 -0.9195  0.8757
   8823SM  H14T11802   3.190   3.975  13.467  1.5076  1.0871 -0.6051
   8823SM  C15S11803   3.035   4.125  13.433 -0.8272 -0.4399 -0.3014
   8823SM  H15S11804   2.955   4.051  13.413 -2.2062 -0.1511  3.2586
   8823SM  H15T11805   3.024   4.216  13.370  0.3272  1.0081  1.4814
   8823SM  C16S11806   3.022   4.164  13.580  0.4215  0.3833  0.0654
   8823SM  H16S11807   2.915   4.195  13.580  0.0060 -0.6135 -3.4911
   8823SM  H16T11808   3.097   4.243  13.601  2.2616 -1.8615  2.6580
   8823SM  C17S11809   3.033   4.058  13.696 -0.1546 -0.0340 -0.2924
   8823SM  H17S11810   3.136   4.018  13.688  0.3150  1.2493 -0.8195
   8823SM  H17T11811   2.960   3.975  13.681  0.2389 -0.2137 -1.3057
   8823SM  C18S11812   3.013   4.116  13.842 -0.2486  0.0945  0.8453
   8823SM  H18S11813   3.035   4.044  13.923 -2.5292 -0.5524  0.9603
   8823SM  H18T11814   2.908   4.146  13.858 -0.5160 -0.3429 -0.0148
   8823SM  H18U11815   3.068   4.211  13.856  2.1969 -1.2187  0.6977
   8823SM   C1F11816   2.918   3.685  12.289 -0.3075 -0.2337 -0.0902
   8823SM    OF11817   2.996   3.600  12.251  0.0427  0.6053  0.3145
   8823SM   C2F11818   2.833   3.663  12.410  1.0323  0.1693  0.8474
   8823SM   H2F11819   2.747   3.594  12.403 -0.6967  2.2719  0.0696
   8823SM   H2G11820   2.783   3.761  12.428 -1.9385 -0.8712 -1.0178
   8823SM   C3F11821   2.916   3.615  12.532 -0.1641  0.2465 -0.1194
   8823SM   H3F11822   2.963   3.518  12.508 -2.4755 -0.4122 -2.4389
   8823SM   H3G11823   2.847   3.592  12.615  1.0571 -3.4691  0.0374
   8823SM   C4F11824   3.020   3.716  12.580 -0.1652 -0.2536 -0.2244
   8823SM   H4F11825   2.981   3.819  12.593 -1.7576 -1.0330  1.5142
   8823SM   H4G11826   3.099   3.725  12.502 -0.4106  1.7210 -0.2926
   8823SM   C5F11827   3.077   3.678  12.717 -0.6083 -0.2286 -0.3893
   8823SM   H5F11828   3.173   3.727  12.744 -0.5622 -0.5531  0.0466
   8823SM   H5G11829   3.099   3.569  12.714  0.5192  0.0086 -1.2459
   8823SM   C6F11830   2.975   3.712  12.829  0.0921 -0.3612 -0.4450
   8823SM   H6F11831   2.875   3.670  12.806 -0.9491  2.0887 -0.6901
   8823SM   H6G11832   2.967   3.823  12.836  0.0552 -0.3816 -0.1337
   8823SM   C7F11833   3.022   3.661  12.969  0.0937 -0.0423  0.5009
   8823SM   H7F11834   3.127   3.693  12.987  0.3654 -0.2387 -0.6700
   8823SM   H7G11835   3.032   3.550  12.960  0.5289 -0.1183  1.7205
   8823SM   C8F11836   2.929   3.697  13.081  0.2113  0.0914 -0.0100
   8823SM   H8F11837   2.825   3.693  13.045  0.1093  0.2598  0.2620
   8823SM   H8G11838   2.956   3.803  13.102  1.4274  0.0671 -1.2927
   8823SM   C9F11839   2.946   3.607  13.202 -0.2699  0.4733  0.0556
   8823SM   H9F11840   3.054   3.590  13.224  0.0147 -0.1012 -1.6724
   8823SM   H9G11841   2.897   3.510  13.183 -1.7854  1.5983 -2.1483
   8823SM  C10F11842   2.887   3.666  13.331 -0.3013 -0.2801 -0.3502
   8823SM  H10F11843   2.779   3.687  13.314 -0.6605 -1.2392  0.6583
   8823SM  H10G11844   2.932   3.768  13.335 -4.0172  1.6601 -2.4347
   8823SM  C11F11845   2.903   3.579  13.460  0.6078 -0.0078 -1.0589
   8823SM  H11F11846   3.012   3.558  13.466  0.4185 -0.7324  0.2695
   8823SM  H11G11847   2.841   3.487  13.469  0.1550  0.0662 -3.0309
   8823SM  C12F11848   2.885   3.678  13.578  0.5138 -0.3783 -0.2992
   8823SM  H12F11849   2.780   3.717  13.572  0.1329 -1.4445 -0.8051
   8823SM  H12G11850   2.954   3.764  13.570 -1.7629  1.8442  2.0138
   8823SM  C13F11851   2.882   3.619  13.721  0.1891  0.4196  0.1826
   8823SM  H13F11852   2.950   3.532  13.713  0.0600  0.4256 -1.4215
   8823SM  H13G11853   2.780   3.585  13.748 -0.6964  3.3927  1.0193
   8823SM  C14F11854   2.900   3.720  13.841  0.3085  0.4214 -0.5590
   8823SM  H14F11855   2.810   3.785  13.850 -0.6628 -1.0409  0.8318
   8823SM  H14G11856   2.987   3.786  13.821  0.4673 -0.0739 -1.5792
   8823SM  C15F11857   2.920   3.651  13.981  0.6224  0.3975  0.2759
   8823SM  H15F11858   3.003   3.577  13.976  0.1815 -0.0604 -0.2186
   8823SM  H15G11859   2.834   3.584  14.000  1.0629  0.0516  1.1245
   8823SM  C16F11860   2.922   3.748  14.095  0.1145 -0.5400 -0.0750
   8823SM  H16F11861   2.818   3.775  14.126 -0.2714 -1.1836 -0.7784
   8823SM  H16G11862   2.979   3.838  14.064 -0.6349 -1.3662 -4.3523
   8823SM  C17F11863   2.989   3.688  14.220  0.1579  0.2726  0.4278
   8823SM  H17F11864   3.060   3.762  14.261 -0.8625  0.7731  1.3415
   8823SM  H17G11865   3.046   3.595  14.199 -0.6726 -0.3135  0.6948
   8823SM  C18F11866   2.888   3.649  14.327  0.1413 -0.2254  0.0880
   8823SM  H18F11867   2.801   3.589  14.293 -1.3995  1.1883  1.3500
   8823SM  H18G11868   2.850   3.739  14.380  3.4275  0.5545  1.3437
   8823SM  C19F11869   2.956   3.565  14.433 -0.1076 -0.3311  0.4928
   8823SM  H19F11870   3.048   3.622  14.459  0.4388 -0.3194 -1.3048
   8823SM  H19G11871   2.993   3.472  14.384 -0.4260 -1.9005  3.0562
   8823SM  C20F11872   2.871   3.516  14.555  0.3409 -0.0504 -0.8921
   8823SM  H20F11873   2.802   3.438  14.518 -1.9869  1.1907  0.5499
   8823SM  H20G11874   2.810   3.599  14.598 -0.1053 -0.6154 -0.4249
   8823SM  C21F11875   2.949   3.441  14.654 -0.1947  0.0307 -0.3344
   8823SM  H21F11876   3.025   3.502  14.708 -1.9190  1.8704  0.1076
   8823SM  H21G11877   2.997   3.356  14.601  0.4793  1.2239 -1.7316
   8823SM  C22F11878   2.874   3.374  14.773 -0.1470  0.2988 -0.8353
   8823SM  H22F11879   2.819   3.285  14.735 -1.5384  0.4004  0.8403
   8823SM  H22G11880   2.800   3.440  14.823  2.1663  2.0876  0.4264
   8823SM  C23F11881   2.972   3.321  14.878  0.4274 -0.0083 -0.4177
   8823SM  H23F11882   3.012   3.407  14.936  0.0952 -1.1887  1.6299
   8823SM  H23G11883   3.049   3.271  14.816  1.0236 -0.4548  0.6670
   8823SM  H23H11884   2.923   3.249  14.946 -1.2395  1.3059 -0.1707
   8923SM     N11885   0.157   3.112  11.440 -0.2463 -0.1959 -0.6099
   8923SM   C1511886   0.264   3.149  11.534 -0.4237  0.0634 -0.2007
   8923SM  H15A11887   0.354   3.182  11.486 -1.8721  3.1147 -1.0610
   8923SM  H15B11888   0.274   3.061  11.596 -1.0264 -1.4944 -2.2182
   8923SM  H15C11889   0.229   3.225  11.603 -1.2192 -0.5140  0.0524
   8923SM   C1411890   0.156   3.203  11.324  0.2143 -0.7141  0.1337
   8923SM  H14A11891   0.063   3.195  11.268 -0.2674  1.2821  0.5666
   8923SM  H14B11892   0.235   3.180  11.255 -2.4090  0.4655 -3.6129
   8923SM  H14C11893   0.167   3.306  11.354 -0.6284 -0.8662  1.0389
   8923SM   C1311894   0.202   2.978  11.389  0.2276  0.2183 -0.4830
   8923SM  H13A11895   0.292   2.988  11.331 -0.2501  1.3936 -1.0645
   8923SM  H13B11896   0.126   2.940  11.322  1.3996 -1.8249 -0.7379
   8923SM  H13C11897   0.213   2.908  11.470  2.3516  1.3836  0.2819
   8923SM   C1211898   0.017   3.099  11.507  0.0491  0.4240 -0.5932
   8923SM  H12A11899  -0.053   3.062  11.434  0.4037  3.2208 -2.5153
   8923SM  H12B11900  -0.016   3.200  11.522  1.9182  1.0345 -0.3394
   8923SM   C1111901   0.025   3.011  11.635  0.1850  1.0506  0.4579
   8923SM  H11A11902  -0.056   3.034  11.708  1.0806  1.5623  1.3151
   8923SM  H11B11903   0.115   3.034  11.695  0.0159 -0.0006  1.1400
   8923SM     P11904  -0.110   2.807  11.556 -0.3196 -0.5796 -0.1436
   8923SM   O1311905  -0.165   2.874  11.441  0.2740 -0.7361  0.1745
   8923SM   O1411906  -0.087   2.662  11.536 -0.1784 -0.0336 -1.0614
   8923SM   O1111907  -0.211   2.826  11.684 -0.4585  0.6698 -0.0676
   8923SM   O1211908   0.025   2.875  11.603  0.2954 -0.1557 -0.1550
   8923SM   C1S11909  -0.185   2.745  11.801  0.1823 -0.3395 -0.4691
   8923SM   H1S11910  -0.079   2.712  11.805  1.2795  2.8918  0.4769
   8923SM   H1T11911  -0.236   2.647  11.796 -0.1727 -0.1508 -0.5394
   8923SM    NF11912  -0.188   2.726  12.030  0.1300 -0.2272 -0.6849
   8923SM   HNF11913  -0.274   2.686  12.062  0.0488 -2.3891 -3.2317
   8923SM   C2S11914  -0.212   2.822  11.930 -1.2164  0.2111 -0.1295
   8923SM   H2S11915  -0.136   2.903  11.941 -1.5741  0.4322  0.7862
   8923SM   C3S11916  -0.356   2.896  11.934 -0.4109 -0.5175  0.5489
   8923SM   H3S11917  -0.433   2.816  11.938 -0.9785  0.0501  1.1184
   8923SM    O311918  -0.383   2.988  11.833  0.0124  0.3567 -0.6590
   8923SM   HO311919  -0.310   2.976  11.772  1.7020  1.2825  1.0880
   8923SM   C4S11920  -0.371   2.961  12.074  0.3975 -0.1418  0.1672
   8923SM   H4S11921  -0.303   3.047  12.088  0.8360 -0.0205 -2.2323
   8923SM   C5S11922  -0.473   2.950  12.158 -0.0381  0.3262  0.3856
   8923SM   H5S11923  -0.563   2.889  12.138  0.3257  0.0519 -0.4866
   8923SM   C6S11924  -0.478   3.040  12.272  0.6492  0.5018 -0.5442
   8923SM   H6S11925  -0.574   3.095  12.272  0.7422  0.6767  0.4021
   8923SM   H6T11926  -0.392   3.108  12.292  0.7589  0.1487  0.2026
   8923SM   C7S11927  -0.499   2.947  12.395  0.2274  0.0837  0.2592
   8923SM   H7S11928  -0.418   2.870  12.396 -0.6093 -0.8068  0.8396
   8923SM   H7T11929  -0.600   2.902  12.390 -0.1584  1.0371 -2.0585
   8923SM   C8S11930  -0.484   3.028  12.526  0.6511 -0.2071  0.1604
   8923SM   H8S11931  -0.525   3.128  12.499 -2.1149 -1.6484 -1.4550
   8923SM   H8T11932  -0.378   3.042  12.552  0.8507  1.1588 -1.2095
   8923SM   C9S11933  -0.559   2.980  12.653 -0.9824  0.4154  0.9920
   8923SM   H9S11934  -0.538   2.872  12.665 -0.5398  0.2392 -1.0351
   8923SM   H9T11935  -0.667   2.996  12.631  0.0586  2.7229 -3.7014
   8923SM  C10S11936  -0.513   3.062  12.777  0.3407  0.3711 -0.1528
   8923SM  H10S11937  -0.510   3.168  12.742  3.3476 -0.3542 -2.5304
   8923SM  H10T11938  -0.408   3.028  12.788  0.7343  1.0508 -1.5226
   8923SM  C11S11939  -0.581   3.019  12.912  0.4926  0.3668  0.1821
   8923SM  H11S11940  -0.567   2.909  12.918  2.6433  0.6537  1.6140
   8923SM  H11T11941  -0.687   3.050  12.911  0.3127 -0.2163 -1.2607
   8923SM  C12S11942  -0.513   3.079  13.033 -0.0338  0.1380 -0.5914
   8923SM  H12S11943  -0.494   3.186  13.015 -0.1453  0.7519  2.3856
   8923SM  H12T11944  -0.411   3.036  13.030  0.5221  1.3024  0.6288
   8923SM  C13S11945  -0.576   3.038  13.168 -0.2630  0.7823 -0.2160
   8923SM  H13S11946  -0.587   2.928  13.156 -1.2772  1.1286 -3.1038
   8923SM  H13T11947  -0.673   3.090  13.182  0.0786  0.6865  3.4685
   8923SM  C14S11948  -0.484   3.082  13.286 -0.0322 -0.2117 -0.2621
   8923SM  H14S11949  -0.457   3.188  13.266 -2.0379  0.1643 -1.3438
   8923SM  H14T11950  -0.395   3.016  13.285 -0.1585 -0.5594  2.6997
   8923SM  C15S11951  -0.549   3.049  13.417 -0.5211 -0.5844 -0.1207
   8923SM  H15S11952  -0.562   2.938  13.418  1.4854 -0.8880 -1.6480
   8923SM  H15T11953  -0.645   3.104  13.427 -0.4175 -0.6940  1.9179
   8923SM  C16S11954  -0.455   3.086  13.531 -0.1082  0.2596  0.0164
   8923SM  H16S11955  -0.441   3.196  13.526  0.2616  0.2093 -0.1189
   8923SM  H16T11956  -0.357   3.037  13.512 -0.3789  0.0704 -0.9209
   8923SM  C17S11957  -0.500   3.050  13.674 -0.0270  0.8070 -0.5916
   8923SM  H17S11958  -0.512   2.939  13.666  1.8994  0.6291 -1.4783
   8923SM  H17T11959  -0.594   3.108  13.679  0.7869  2.0504  1.6862
   8923SM  C18S11960  -0.404   3.092  13.788 -0.4376  0.3427  0.5160
   8923SM  H18S11961  -0.448   3.052  13.882  0.5876 -0.0352  0.8503
   8923SM  H18T11962  -0.396   3.202  13.803 -1.5188  0.3698  0.9806
   8923SM  H18U11963  -0.301   3.054  13.771 -0.4681  0.1010  0.8665
   8923SM   C1F11964  -0.074   2.667  12.058 -0.3017 -0.2546  0.0901
   8923SM    OF11965   0.032   2.730  12.030  0.8510 -0.0270 -0.1155
   8923SM   C2F11966  -0.071   2.525  12.113 -1.3473 -0.0864 -0.9030
   8923SM   H2F11967  -0.025   2.455  12.040 -0.0873 -1.2031  0.8602
   8923SM   H2G11968  -0.172   2.484  12.132 -2.3671  1.5457 -2.5464
   8923SM   C3F11969   0.031   2.525  12.239 -0.0243  0.4410 -0.0416
   8923SM   H3F11970  -0.020   2.590  12.313 -1.5771 -0.1075 -0.5981
   8923SM   H3G11971   0.129   2.557  12.197 -1.3059  0.0870 -3.6613
   8923SM   C4F11972   0.035   2.383  12.305 -0.2150  0.1228  0.1671
   8923SM   H4F11973   0.045   2.308  12.223  0.3480  1.4409 -0.9929
   8923SM   H4G11974  -0.069   2.365  12.340 -0.7577  0.7984 -1.0648
   8923SM   C5F11975   0.145   2.357  12.412  0.7208 -0.2246 -0.1728
   8923SM   H5F11976   0.240   2.396  12.372  0.8740  0.9895  1.2798
   8923SM   H5G11977   0.150   2.250  12.442 -1.1522 -0.5718 -0.9877
   8923SM   C6F11978   0.127   2.434  12.541 -0.3683 -0.4566 -0.3716
   8923SM   H6F11979   0.034   2.401  12.593 -1.0414  2.7530  0.6519
   8923SM   H6G11980   0.129   2.544  12.528  1.0238 -0.6853 -2.4345
   8923SM   C7F11981   0.236   2.406  12.645 -0.9223  0.7290  1.0068
   8923SM   H7F11982   0.328   2.398  12.583 -1.5948  1.6169 -0.1473
   8923SM   H7G11983   0.225   2.305  12.689  1.8573  0.7715  1.9809
   8923SM   C8F11984   0.236   2.511  12.751 -0.1647 -0.5619  0.6928
   8923SM   H8F11985   0.130   2.526  12.782 -0.6736 -1.6276 -0.4213
   8923SM   H8G11986   0.271   2.611  12.720 -1.8841 -0.4160 -0.9549
   8923SM   C9F11987   0.307   2.474  12.882  1.0367 -0.0007 -0.8672
   8923SM   H9F11988   0.414   2.452  12.868  1.1646 -0.5785  0.8817
   8923SM   H9G11989   0.266   2.382  12.928  0.4231  1.1965  1.1258
   8923SM  C10F11990   0.303   2.585  12.988 -0.4411  0.2806 -0.5990
   8923SM  H10F11991   0.202   2.623  13.014  0.0101  0.6261  0.7078
   8923SM  H10G11992   0.359   2.663  12.934 -2.2766  2.8464  0.9908
   8923SM  C11F11993   0.374   2.545  13.120 -0.4548  0.0598 -0.0926
   8923SM  H11F11994   0.482   2.526  13.106 -0.7365 -0.8471 -1.1553
   8923SM  H11G11995   0.315   2.461  13.162 -3.2454  1.2275 -1.3913
   8923SM  C12F11996   0.378   2.653  13.225  0.4647 -0.3850 -0.0690
   8923SM  H12F11997   0.422   2.748  13.188 -1.3613  1.2307  1.6882
   8923SM  H12G11998   0.442   2.619  13.309  1.0934 -0.9659 -0.7733
   8923SM  C13F11999   0.256   2.668  13.309  0.0254  0.7080 -0.3512
   8923SM  H13F12000   0.233   2.567  13.349  1.9495  0.6374  0.6923
   8923SM  H13G12001   0.171   2.686  13.240  1.3132  1.2595 -1.8784
   8923SM  C14F12002   0.267   2.787  13.407 -0.3086 -0.3829 -0.5434
   8923SM  H14F12003   0.163   2.815  13.435 -0.8212 -3.4024  0.9262
   8923SM  H14G12004   0.317   2.869  13.350  1.7653 -0.9569  0.3744
   8923SM  C15F12005   0.343   2.755  13.539 -0.6455 -0.9520  0.3353
   8923SM  H15F12006   0.368   2.850  13.590 -1.5871 -0.5604  0.0838
   8923SM  H15G12007   0.441   2.706  13.519  1.4031  2.4726  1.1759
   8923SM  C16F12008   0.246   2.674  13.641  0.1596 -0.0579 -0.0004
   8923SM  H16F12009   0.231   2.576  13.591 -0.1944 -0.9155  1.7270
   8923SM  H16G12010   0.147   2.725  13.646  0.2630  0.0458  1.4937
   8923SM  C17F12011   0.300   2.677  13.785 -0.2212  0.2654 -0.1087
   8923SM  H17F12012   0.339   2.780  13.804  0.4465 -0.2585  1.5027
   8923SM  H17G12013   0.392   2.618  13.767  1.3431  2.7440 -0.7097
   8923SM  C18F12014   0.202   2.619  13.891 -0.2160  1.2187 -0.6233
   8923SM  H18F12015   0.190   2.511  13.866  0.0322  1.0106  0.1413
   8923SM  H18G12016   0.107   2.676  13.879 -0.7008  0.1338 -2.3051
   8923SM  C19F12017   0.263   2.646  14.035 -0.0017 -0.4055  0.0261
   8923SM  H19F12018   0.363   2.600  14.048 -0.5897 -1.4181  1.2463
   8923SM  H19G12019   0.203   2.597  14.114 -0.5977 -2.3111 -1.5318
   8923SM  C20F12020   0.266   2.798  14.064  0.1384  0.6316 -0.7704
   8923SM  H20F12021   0.169   2.850  14.048  0.3570  1.4285  0.3607
   8923SM  H20G12022   0.342   2.856  14.008  1.1637  1.3472  1.2421
   8923SM  C21F12023   0.307   2.826  14.211  0.5992  0.9305 -0.0766
   8923SM  H21F12024   0.409   2.787  14.233 -0.4344 -1.0914  1.4550
   8923SM  H21G12025   0.246   2.765  14.281  1.4488  1.0564  0.8052
   8923SM  C22F12026   0.300   2.964  14.264  0.6137  0.3248  0.3863
   8923SM  H22F12027   0.209   3.015  14.224  0.0951 -2.0844 -1.8153
   8923SM  H22G12028   0.381   3.020  14.213  0.8100  0.3672  0.7480
   8923SM  C23F12029   0.320   2.978  14.410 -0.0877  0.1399 -0.1629
   8923SM  H23F12030   0.299   3.083  14.440 -0.7535  0.2486 -0.9684
   8923SM  H23G12031   0.419   2.953  14.454 -0.4779 -0.0729  0.6141
   8923SM  H23H12032   0.255   2.901  14.457  0.2100 -0.0255 -0.0187
   9023SM     N12033   6.294   2.762  11.151  0.3598  0.4174  0.0390
   9023SM   C1512034   6.284   2.709  11.016  0.4958  0.9229 -0.4202
   9023SM  H15A12035   6.197   2.740  10.960 -1.0637 -2.2267  0.0004
   9023SM  H15B12036   6.265   2.607  11.045  0.1786  1.1110  0.0313
   9023SM  H15C12037   6.374   2.712  10.957  1.4758  1.3883  1.0488
   9023SM   C1412038   6.426   2.720  11.213  0.5381 -0.0690 -0.1276
   9023SM  H14A12039   6.510   2.746  11.151  0.7826 -0.8798 -0.1442
   9023SM  H14B12040   6.422   2.617  11.242 -1.4548  0.3062  1.1246
   9023SM  H14C12041   6.428   2.775  11.306 -1.9775 -0.6475  0.3444
   9023SM   C1312042   6.293   2.910  11.140 -0.8331 -0.0994  0.1557
   9023SM  H13A12043   6.297   2.958  11.237  0.1243  0.0604  0.0531
   9023SM  H13B12044   6.215   2.943  11.073  0.3366  1.2498 -0.5885
   9023SM  H13C12045   6.384   2.944  11.092  0.9821 -2.6407  1.5400
   9023SM   C1212046   6.171   2.722  11.238  0.2110 -0.0157  0.2009
   9023SM  H12A12047   6.174   2.614  11.243  1.0939  0.0334  1.2875
   9023SM  H12B12048   6.081   2.756  11.189  0.1687 -1.0960 -0.5004
   9023SM   C1112049   6.144   2.779  11.385  1.0907  0.2960  0.5451
   9023SM  H11A12050   6.235   2.771  11.449  1.3417 -1.3240  0.0429
   9023SM  H11B12051   6.057   2.718  11.417  0.6247  1.2924  1.2137
   9023SM     P12052   5.954   2.955  11.332 -0.5886  0.0434  0.2260
   9023SM   O1312053   5.964   3.083  11.261  0.2053 -0.1218 -0.0618
   9023SM   O1412054   5.881   2.851  11.258 -0.1006 -0.4902 -0.0530
   9023SM   O1112055   5.882   2.968  11.470  0.0856 -0.2356  0.4888
   9023SM   O1212056   6.098   2.917  11.379  0.5156 -0.8379 -0.2575
   9023SM   C1S12057   5.938   3.037  11.583 -0.2299 -0.0957  0.4196
   9023SM   H1S12058   5.891   3.138  11.582 -0.9035 -0.4095 -0.1784
   9023SM   H1T12059   6.049   3.047  11.579 -0.4076  2.5741  0.2090
   9023SM    NF12060   5.974   3.051  11.831  0.6364 -0.1453  0.5520
   9023SM   HNF12061   6.058   3.015  11.871  1.4541  1.1625  0.0842
   9023SM   C2S12062   5.912   2.970  11.724  0.1475 -0.4748 -0.2889
   9023SM   H2S12063   5.802   2.980  11.721  0.1611  0.3449  1.1832
   9023SM   C3S12064   5.950   2.818  11.724  0.1456 -0.1399 -0.4100
   9023SM   H3S12065   6.061   2.819  11.721  0.3313 -0.1999  2.8124
   9023SM    O312066   5.908   2.751  11.612  0.5816  0.3989 -0.0810
   9023SM   HO312067   5.861   2.816  11.560  0.0072  1.0032  1.1599
   9023SM   C4S12068   5.901   2.749  11.845  0.0388 -0.0888 -0.4331
   9023SM   H4S12069   5.792   2.744  11.855  0.0907 -1.9846 -0.4371
   9023SM   C5S12070   5.975   2.690  11.942  0.2259  1.0372 -0.2006
   9023SM   H5S12071   6.085   2.682  11.936  0.1063 -0.5090 -0.7309
   9023SM   C6S12072   5.916   2.628  12.073 -0.8561 -0.3835  1.0119
   9023SM   H6S12073   5.991   2.647  12.154 -0.1632  2.3283 -0.1354
   9023SM   H6T12074   5.909   2.518  12.061  0.5833 -0.2892 -1.2714
   9023SM   C7S12075   5.773   2.671  12.105 -0.1174 -0.0756  0.2643
   9023SM   H7S12076   5.701   2.637  12.028 -0.1022 -1.8634  1.0044
   9023SM   H7T12077   5.767   2.782  12.107 -0.1305  0.0105 -2.2678
   9023SM   C8S12078   5.735   2.610  12.237  0.3396 -0.6014  0.4525
   9023SM   H8S12079   5.755   2.500  12.238  1.5878 -0.3873  0.4493
   9023SM   H8T12080   5.632   2.641  12.263  0.6455 -0.3109  1.3474
   9023SM   C9S12081   5.822   2.665  12.349 -0.3054 -0.2293 -0.2956
   9023SM   H9S12082   5.824   2.775  12.342  1.5269 -0.1131  1.1649
   9023SM   H9T12083   5.925   2.625  12.356 -0.0376  0.5778  0.5675
   9023SM  C10S12084   5.768   2.628  12.491 -0.8390 -0.5578  0.0570
   9023SM  H10S12085   5.790   2.519  12.492 -1.0145 -0.6459 -1.8326
   9023SM  H10T12086   5.656   2.630  12.494 -0.8642  0.4317 -1.0358
   9023SM  C11S12087   5.846   2.696  12.607 -0.0311  0.0190 -0.5600
   9023SM  H11S12088   5.793   2.789  12.638  0.4328  0.8370 -2.1501
   9023SM  H11T12089   5.941   2.731  12.561 -0.5524  0.9061 -0.9959
   9023SM  C12S12090   5.875   2.617  12.731 -0.0690 -0.1598 -0.0863
   9023SM  H12S12091   5.922   2.519  12.706 -0.4038 -0.4563  0.4196
   9023SM  H12T12092   5.774   2.618  12.777 -0.0953  3.3844  0.0134
   9023SM  C13S12093   5.981   2.695  12.814  0.1040 -0.1850  0.2588
   9023SM  H13S12094   5.941   2.796  12.836 -0.0719 -0.2561  0.2599
   9023SM  H13T12095   6.072   2.711  12.752 -0.0461 -0.7307 -0.1040
   9023SM  C14S12096   6.023   2.628  12.946 -0.1156 -0.1536 -0.0640
   9023SM  H14S12097   6.128   2.658  12.968  0.0826  0.4364 -1.6392
   9023SM  H14T12098   6.013   2.518  12.940 -4.0904  0.1344 -0.9206
   9023SM  C15S12099   5.942   2.686  13.062  0.1016 -0.6474  0.2207
   9023SM  H15S12100   5.840   2.643  13.051  0.5087 -1.6740  0.2722
   9023SM  H15T12101   5.919   2.792  13.041  0.0438 -0.9161 -1.2072
   9023SM  C16S12102   5.990   2.658  13.202  0.1053 -0.6616  0.7115
   9023SM  H16S12103   6.095   2.692  13.197 -0.5679  1.4364 -0.1810
   9023SM  H16T12104   5.994   2.553  13.238  2.6994 -0.4821  1.0971
   9023SM  C17S12105   5.928   2.740  13.319 -0.0623  0.5746  0.0017
   9023SM  H17S12106   5.817   2.746  13.315 -0.0011  1.7230 -0.1823
   9023SM  H17T12107   5.957   2.847  13.309 -1.0178  0.8972  0.5690
   9023SM  C18S12108   5.981   2.681  13.453 -0.0045  0.5257  0.4962
   9023SM  H18S12109   6.092   2.681  13.459  0.0085  1.0037  0.2611
   9023SM  H18T12110   5.945   2.577  13.465 -1.6617  1.0496  0.2848
   9023SM  H18U12111   5.933   2.740  13.534 -1.5553  2.4405 -1.6855
   9023SM   C1F12112   5.931   3.173  11.866  0.6175  0.3643 -0.2549
   9023SM    OF12113   5.835   3.223  11.804  0.6461  0.3226 -0.7420
   9023SM   C2F12114   5.992   3.233  11.991  0.4515  0.1474  0.6679
   9023SM   H2F12115   6.100   3.248  11.967  0.0474 -0.2748 -1.6945
   9023SM   H2G12116   5.974   3.164  12.076  0.5953 -0.0341  0.5507
   9023SM   C3F12117   5.929   3.374  12.018  0.2980  0.0014 -0.4110
   9023SM   H3F12118   5.820   3.353  12.023  0.6706 -2.6704 -1.5387
   9023SM   H3G12119   5.953   3.445  11.937 -2.0518  0.7852 -0.4886
   9023SM   C4F12120   5.966   3.426  12.156  0.0985 -0.2297  0.0810
   9023SM   H4F12121   5.928   3.530  12.161  0.4547 -0.0394 -0.8724
   9023SM   H4G12122   6.076   3.436  12.165 -0.0634  1.9022  0.2002
   9023SM   C5F12123   5.913   3.359  12.284 -0.2921 -0.1830  0.3019
   9023SM   H5F12124   5.945   3.253  12.292  0.4573 -0.0334 -0.5418
   9023SM   H5G12125   5.802   3.360  12.275 -0.2844  0.5846  0.2475
   9023SM   C6F12126   5.953   3.432  12.412  0.1744 -0.7943 -0.7768
   9023SM   H6F12127   5.890   3.524  12.412  2.6231  1.0245  0.5921
   9023SM   H6G12128   6.059   3.464  12.403 -0.7780  3.3913  0.7291
   9023SM   C7F12129   5.931   3.355  12.544 -0.1741  0.1427  0.2181
   9023SM   H7F12130   5.991   3.261  12.539 -0.4558 -0.1089  1.2775
   9023SM   H7G12131   5.825   3.322  12.539 -0.4815  1.1496 -0.0439
   9023SM   C8F12132   5.973   3.416  12.680  0.3070  0.4421  0.1831
   9023SM   H8F12133   5.961   3.526  12.669 -1.3055  0.2505 -0.2049
   9023SM   H8G12134   6.083   3.402  12.693  0.2673 -0.3902 -0.3197
   9023SM   C9F12135   5.899   3.364  12.804 -0.0589 -0.1444  0.0779
   9023SM   H9F12136   5.902   3.253  12.811 -1.0145 -0.1562  0.3968
   9023SM   H9G12137   5.796   3.403  12.803 -0.1939 -0.3941  1.5437
   9023SM  C10F12138   5.966   3.418  12.936  0.1669  0.5733 -0.2166
   9023SM  H10F12139   5.971   3.529  12.939  1.1251  0.5225  0.5074
   9023SM  H10G12140   6.070   3.385  12.960 -1.1103 -2.2683  1.9205
   9023SM  C11F12141   5.890   3.380  13.061  0.0637  0.6820 -0.0180
   9023SM  H11F12142   5.867   3.272  13.066  1.3750  0.2852 -1.5723
   9023SM  H11G12143   5.793   3.433  13.056 -1.0850 -1.4357 -2.8532
   9023SM  C12F12144   5.972   3.424  13.186 -0.3710  0.0811 -0.0440
   9023SM  H12F12145   5.995   3.533  13.182  0.0668 -0.0428 -1.1858
   9023SM  H12G12146   6.068   3.369  13.192 -0.7580 -0.8719 -1.9770
   9023SM  C13F12147   5.901   3.403  13.319  0.2167 -0.2553 -0.4569
   9023SM  H13F12148   5.908   3.294  13.339 -0.9756  0.4170  5.3301
   9023SM  H13G12149   5.792   3.422  13.306  0.3492  1.1416  0.2053
   9023SM  C14F12150   5.965   3.473  13.439  0.0206  0.4171  0.8475
   9023SM  H14F12151   5.962   3.582  13.418 -1.3401  0.3715  0.6808
   9023SM  H14G12152   6.063   3.427  13.461 -0.7629 -1.1556  1.1887
   9023SM  C15F12153   5.881   3.452  13.567  0.1027 -0.1516  0.7993
   9023SM  H15F12154   5.872   3.341  13.571 -1.2329 -0.2017 -1.6067
   9023SM  H15G12155   5.776   3.483  13.552  0.3290  1.1978  1.8418
   9023SM  C16F12156   5.942   3.515  13.693  0.2202 -0.7658  0.2248
   9023SM  H16F12157   5.871   3.498  13.777 -0.1685 -0.5369 -0.0505
   9023SM  H16G12158   5.952   3.626  13.687 -2.2998 -0.3884  1.3857
   9023SM  C17F12159   6.079   3.449  13.719  0.3129  0.2494  0.0184
   9023SM  H17F12160   6.154   3.490  13.647 -2.0707  1.9994 -1.6196
   9023SM  H17G12161   6.065   3.342  13.695 -1.9172  0.4677  0.1544
   9023SM  C18F12162   6.132   3.468  13.864  0.0392  0.6981  0.1825
   9023SM  H18F12163   6.097   3.570  13.892  0.4944  0.3827  2.0146
   9023SM  H18G12164   6.241   3.446  13.864 -0.1720 -0.5061 -1.2371
   9023SM  C19F12165   6.062   3.360  13.958 -0.2509 -0.2597  0.4228
   9023SM  H19F12166   6.086   3.262  13.911 -1.0805 -0.5694  0.6259
   9023SM  H19G12167   5.952   3.368  13.953 -0.5042 -1.3521  2.8607
   9023SM  C20F12168   6.114   3.348  14.100 -0.6383 -0.1811  0.3391
   9023SM  H20F12169   6.052   3.270  14.149  1.0439 -0.9055  1.4000
   9023SM  H20G12170   6.117   3.449  14.146  0.5931 -0.0244 -0.0521
   9023SM  C21F12171   6.260   3.290  14.098 -0.5781 -0.2383 -0.3415
   9023SM  H21F12172   6.333   3.351  14.041  0.5452 -2.1214 -1.0189
   9023SM  H21G12173   6.263   3.188  14.052  2.9751 -1.8158  2.8117
   9023SM  C22F12174   6.322   3.267  14.236  0.7888 -0.1638  0.4762
   9023SM  H22F12175   6.265   3.187  14.287  1.8630 -0.0278  1.9290
   9023SM  H22G12176   6.298   3.355  14.299 -3.5318  0.0516 -1.1342
   9023SM  C23F12177   6.472   3.232  14.224 -0.2068  0.1768 -0.2787
   9023SM  H23F12178   6.513   3.299  14.146  0.8924  1.7686  1.5549
   9023SM  H23G12179   6.470   3.136  14.168  1.5811 -0.6123  0.9240
   9023SM  H23H12180   6.536   3.227  14.315  1.0272  0.2102 -1.1318
   9123SM     N12181   6.147   5.307  11.238 -0.0760  0.0240 -0.1614
   9123SM   C1512182   6.042   5.341  11.329 -0.4113 -0.0352  0.3994
   9123SM  H15A12183   5.952   5.385  11.290 -0.2528  1.1178  1.2809
   9123SM  H15B12184   6.078   5.413  11.401 -1.1694  1.4941 -0.6948
   9123SM  H15C12185   6.003   5.254  11.378  0.3006 -0.4143  0.3130
   9123SM   C1412186   6.107   5.174  11.169 -0.7903 -0.5218 -0.9963
   9123SM  H14A12187   6.018   5.172  11.108  0.0949  0.1289 -2.3722
   9123SM  H14B12188   6.106   5.095  11.242  0.7427  1.0462  0.8587
   9123SM  H14C12189   6.189   5.152  11.103 -0.3999  2.7617 -1.8031
   9123SM   C1312190   6.153   5.407  11.126  0.0540  0.4743  0.6984
   9123SM  H13A12191   6.186   5.505  11.156 -1.4015  1.0945  0.3602
   9123SM  H13B12192   6.055   5.416  11.081 -0.1645 -3.0665  0.2011
   9123SM  H13C12193   6.222   5.378  11.049 -2.0279  0.3065 -1.2216
   9123SM   C1212194   6.275   5.293  11.318 -0.3178 -0.1968  0.0070
   9123SM  H12A12195   6.303   5.395  11.338 -0.4141 -0.2363  0.3393
   9123SM  H12B12196   6.347   5.260  11.244 -2.6799 -1.5412 -1.8455
   9123SM   C1112197   6.291   5.216  11.455  0.3880 -0.3399  0.3260
   9123SM  H11A12198   6.198   5.226  11.515  0.8575 -0.6750  1.1289
   9123SM  H11B12199   6.372   5.259  11.517 -1.6279  1.9144  1.5578
   9123SM     P12200   6.448   5.005  11.436 -0.3546 -0.2577 -0.4984
   9123SM   O1312201   6.442   4.858  11.437  0.2137 -0.6384 -0.0720
   9123SM   O1412202   6.530   5.064  11.328 -0.3519  0.1005 -0.2036
   9123SM   O1112203   6.493   5.054  11.580 -0.4059  0.5755  0.3555
   9123SM   O1212204   6.310   5.078  11.424  0.4269 -0.8324 -0.5569
   9123SM   C1S12205   6.463   4.971  11.696 -0.3769  0.5380 -0.4162
   9123SM   H1S12206   6.489   4.865  11.681  0.3258  1.0015 -2.7881
   9123SM   H1T12207   6.353   4.971  11.712 -0.5184 -1.4525 -1.1380
   9123SM    NF12208   6.465   4.934  11.929  0.0955  0.4617  0.1625
   9123SM   HNF12209   6.383   4.969  11.973 -1.2471 -2.6755  0.4590
   9123SM   C2S12210   6.526   5.016  11.823 -0.3687 -0.3338  0.1481
   9123SM   H2S12211   6.635   4.995  11.819  0.0874  1.3661  2.0497
   9123SM   C3S12212   6.500   5.166  11.844 -0.0927  0.3826 -0.0696
   9123SM   H3S12213   6.392   5.192  11.846  0.1959  2.5158 -3.5904
   9123SM    O312214   6.542   5.252  11.736  0.5022 -0.5050  0.5080
   9123SM   HO312215   6.552   5.189  11.665 -0.0481 -0.9473  0.8164
   9123SM   C4S12216   6.563   5.219  11.974 -0.2272 -0.3266 -0.6360
   9123SM   H4S12217   6.491   5.256  12.047  1.9532  0.0790  1.4310
   9123SM   C5S12218   6.700   5.238  12.001  0.3999 -0.7507 -0.5711
   9123SM   H5S12219   6.783   5.232  11.928  1.3165  2.8134 -0.0203
   9123SM   C6S12220   6.757   5.275  12.137 -0.4368  0.6305 -0.3943
   9123SM   H6S12221   6.808   5.373  12.131  3.6383 -1.1720  0.8225
   9123SM   H6T12222   6.830   5.199  12.173  1.2496  1.7206 -1.3580
   9123SM   C7S12223   6.649   5.287  12.241 -0.4811 -0.0986 -0.4726
   9123SM   H7S12224   6.590   5.193  12.252 -0.1370 -0.2133  0.5032
   9123SM   H7T12225   6.586   5.378  12.228  0.8883  0.7981 -1.0361
   9123SM   C8S12226   6.718   5.302  12.379  0.2918 -0.2790 -0.2581
   9123SM   H8S12227   6.782   5.393  12.384 -0.6221  0.4089 -0.6479
   9123SM   H8T12228   6.779   5.213  12.403 -2.4468 -1.9426  1.0939
   9123SM   C9S12229   6.625   5.302  12.494  0.8762 -0.0866  0.0025
   9123SM   H9S12230   6.560   5.213  12.483  0.9953 -0.1440 -0.2536
   9123SM   H9T12231   6.553   5.387  12.500  1.3292  0.4142 -1.1861
   9123SM  C10S12232   6.700   5.292  12.634  0.2402  0.5188 -0.4672
   9123SM  H10S12233   6.760   5.383  12.656 -0.1908  0.5949  0.4182
   9123SM  H10T12234   6.759   5.199  12.650 -1.9190 -0.7531  0.5335
   9123SM  C11S12235   6.593   5.288  12.746  0.1997 -0.1594 -0.7973
   9123SM  H11S12236   6.525   5.202  12.732  0.6466 -1.0144  1.6575
   9123SM  H11T12237   6.534   5.381  12.735 -1.0779 -0.7336  0.7356
   9123SM  C12S12238   6.652   5.282  12.894  0.1246  0.3206  0.0492
   9123SM  H12S12239   6.722   5.368  12.895 -0.3210  0.7300 -1.3668
   9123SM  H12T12240   6.701   5.182  12.900 -1.0641 -0.5120 -2.6490
   9123SM  C13S12241   6.537   5.305  12.996  0.2668 -0.0721 -0.7410
   9123SM  H13S12242   6.467   5.219  12.997 -0.8283  0.7958  0.2852
   9123SM  H13T12243   6.474   5.394  12.974  0.2803 -0.1228 -0.9886
   9123SM  C14S12244   6.590   5.319  13.136  0.6102  0.9407  0.1830
   9123SM  H14S12245   6.664   5.401  13.150  0.3468  0.9659  1.6283
   9123SM  H14T12246   6.657   5.233  13.158 -0.5673 -0.0261  0.1017
   9123SM  C15S12247   6.481   5.357  13.243 -0.1999 -0.2648 -0.3748
   9123SM  H15S12248   6.395   5.289  13.227 -1.6092  1.1466  0.9570
   9123SM  H15T12249   6.440   5.459  13.235  0.3657 -0.1102 -1.5670
   9123SM  C16S12250   6.544   5.343  13.384  0.5887 -0.2110  0.0763
   9123SM  H16S12251   6.627   5.416  13.389 -0.0908  0.5698  0.1862
   9123SM  H16T12252   6.573   5.236  13.394 -0.4189 -0.2869  3.6234
   9123SM  C17S12253   6.447   5.374  13.496 -0.1756 -0.5344  0.0243
   9123SM  H17S12254   6.375   5.289  13.492  0.9485 -1.4982 -3.0244
   9123SM  H17T12255   6.389   5.467  13.478  3.6136  1.7346 -1.7324
   9123SM  C18S12256   6.516   5.399  13.630  0.5005 -0.1170  0.0442
   9123SM  H18S12257   6.438   5.450  13.691 -1.0739 -1.0643 -1.1391
   9123SM  H18T12258   6.603   5.468  13.620 -0.2143  0.9494  0.8290
   9123SM  H18U12259   6.555   5.315  13.691  0.1159  0.8911  1.7703
   9123SM   C1F12260   6.499   4.806  11.942  0.4485  0.3696 -1.2448
   9123SM    OF12261   6.583   4.746  11.877  0.8253 -0.4407 -0.1752
   9123SM   C2F12262   6.419   4.724  12.046  0.0442  0.8933  0.0643
   9123SM   H2F12263   6.486   4.654  12.101  1.1672  2.6997  1.1030
   9123SM   H2G12264   6.340   4.665  11.994  0.8563  0.1034 -0.3042
   9123SM   C3F12265   6.358   4.827  12.146 -0.2375  0.2474  0.3770
   9123SM   H3F12266   6.293   4.769  12.215  1.1028 -0.3983  1.1400
   9123SM   H3G12267   6.293   4.906  12.101 -2.3507 -1.0715  0.9799
   9123SM   C4F12268   6.462   4.890  12.240 -0.4711  0.3092  0.2566
   9123SM   H4F12269   6.532   4.953  12.180  0.5116 -0.0997  0.9452
   9123SM   H4G12270   6.532   4.811  12.275 -0.1411  0.8038  0.7317
   9123SM   C5F12271   6.390   4.977  12.348  0.2017  0.4181  0.5557
   9123SM   H5F12272   6.295   5.020  12.309 -0.4744 -1.8878 -0.5101
   9123SM   H5G12273   6.462   5.057  12.375  2.0219 -0.3722 -1.6137
   9123SM   C6F12274   6.350   4.896  12.470 -0.3559  0.6657 -0.4377
   9123SM   H6F12275   6.442   4.838  12.494 -1.9573 -2.2262 -0.8143
   9123SM   H6G12276   6.276   4.816  12.449  1.3232 -1.2341  0.5403
   9123SM   C7F12277   6.312   4.981  12.595 -0.3401 -0.0427  0.0759
   9123SM   H7F12278   6.208   5.017  12.587  0.8131  3.7810  0.1172
   9123SM   H7G12279   6.376   5.072  12.603  0.1753 -0.5731  3.0495
   9123SM   C8F12280   6.320   4.901  12.723 -0.1316  0.1545 -0.5766
   9123SM   H8F12281   6.422   4.858  12.725 -0.5747 -1.0729 -2.1618
   9123SM   H8G12282   6.244   4.820  12.715  0.5238 -0.6717  1.1196
   9123SM   C9F12283   6.296   4.971  12.854  0.4786  0.0092 -0.7814
   9123SM   H9F12284   6.193   5.011  12.870  1.6277  2.6654  0.6263
   9123SM   H9G12285   6.370   5.053  12.867  2.4694 -1.6660 -1.0878
   9123SM  C10F12286   6.326   4.876  12.968  0.1027  0.3323  0.2565
   9123SM  H10F12287   6.434   4.852  12.963 -0.0403 -0.6203  1.3714
   9123SM  H10G12288   6.269   4.780  12.960  2.1571 -1.0109  0.9963
   9123SM  C11F12289   6.292   4.946  13.103 -0.0025  0.1395  0.2301
   9123SM  H11F12290   6.182   4.953  13.116  0.0313 -0.0361  0.6329
   9123SM  H11G12291   6.342   5.046  13.107  1.1729 -0.4282  0.4071
   9123SM  C12F12292   6.347   4.871  13.226 -0.9846 -0.0397 -0.6017
   9123SM  H12F12293   6.456   4.850  13.226 -0.7157  1.1238  0.8383
   9123SM  H12G12294   6.296   4.773  13.238 -0.2121 -0.2968  0.7839
   9123SM  C13F12295   6.294   4.938  13.355 -1.0992 -0.5458 -0.7492
   9123SM  H13F12296   6.187   4.952  13.380 -0.7099  0.6352  0.2960
   9123SM  H13G12297   6.332   5.042  13.351 -0.6171 -0.7221 -0.9046
   9123SM  C14F12298   6.352   4.871  13.479  0.3705  1.0447 -0.1669
   9123SM  H14F12299   6.462   4.856  13.483  0.3777  1.3223  0.8982
   9123SM  H14G12300   6.305   4.770  13.483 -0.6482  1.5352  0.9291
   9123SM  C15F12301   6.315   4.951  13.610 -0.2251 -0.3555  0.2797
   9123SM  H15F12302   6.206   4.971  13.606 -0.3802 -1.2235 -0.1028
   9123SM  H15G12303   6.368   5.048  13.606 -0.3034 -0.3466 -1.5302
   9123SM  C16F12304   6.348   4.881  13.739  0.0726  0.9242 -0.1024
   9123SM  H16F12305   6.447   4.830  13.735 -0.9896 -1.4719  1.5942
   9123SM  H16G12306   6.276   4.797  13.752 -1.0293  1.9423  0.5723
   9123SM  C17F12307   6.348   4.952  13.870  0.1997 -0.6253 -0.3901
   9123SM  H17F12308   6.251   5.005  13.883  0.8580  0.3629  0.7071
   9123SM  H17G12309   6.420   5.036  13.865 -2.1078  1.5518  0.5088
   9123SM  C18F12310   6.371   4.854  13.993 -0.1505  0.5602 -0.8815
   9123SM  H18F12311   6.467   4.801  13.972  0.3288  1.6694 -1.5310
   9123SM  H18G12312   6.287   4.782  14.005  0.2519  0.3671  1.0840
   9123SM  C19F12313   6.366   4.944  14.122  0.0824  1.1818  0.0097
   9123SM  H19F12314   6.354   4.884  14.215 -2.8796  1.4962 -0.1005
   9123SM  H19G12315   6.275   5.006  14.109 -0.8490 -0.0248  0.6524
   9123SM  C20F12316   6.491   5.035  14.141 -0.0183  0.5456  0.2429
   9123SM  H20F12317   6.470   5.117  14.213 -1.6375 -0.8368  1.4138
   9123SM  H20G12318   6.516   5.084  14.044 -0.2746 -0.2249 -0.2243
   9123SM  C21F12319   6.615   4.957  14.171 -0.1406  0.5672  0.0641
   9123SM  H21F12320   6.639   4.893  14.084 -1.1605  0.7656 -0.3803
   9123SM  H21G12321   6.590   4.892  14.258 -1.9347  0.9321 -0.1352
   9123SM  C22F12322   6.736   5.040  14.203  0.1018  0.1303 -0.3781
   9123SM  H22F12323   6.752   5.108  14.116 -1.0893  1.2263  0.2316
   9123SM  H22G12324   6.824   4.974  14.217  0.8496  1.5866  2.5864
   9123SM  C23F12325   6.724   5.137  14.317  0.8310  0.1905  0.2054
   9123SM  H23F12326   6.709   5.076  14.409  0.2568 -0.3287 -0.2290
   9123SM  H23G12327   6.638   5.207  14.306  1.8938  1.4370 -0.3579
   9123SM  H23H12328   6.825   5.180  14.332  1.3588 -1.2755  1.0654
   9223SM     N12329   5.590   2.586  11.395 -0.2221 -0.0255  0.6309
   9223SM   C1512330   5.658   2.722  11.421 -0.2506 -0.2329  0.1074
   9223SM  H15A12331   5.592   2.800  11.455  0.3431  0.4412 -0.2695
   9223SM  H15B12332   5.715   2.758  11.337 -0.5104  0.2927  0.1566
   9223SM  H15C12333   5.725   2.712  11.506 -0.0581 -0.5705 -0.0777
   9223SM   C1412334   5.517   2.599  11.258 -0.2603  0.4890  0.1815
   9223SM  H14A12335   5.445   2.678  11.273  0.2760  0.8770  0.7820
   9223SM  H14B12336   5.469   2.509  11.222  1.2128  0.0368 -0.7671
   9223SM  H14C12337   5.586   2.622  11.178 -0.8715  0.1115 -0.4583
   9223SM   C1312338   5.679   2.480  11.366 -0.2247  0.3610 -0.5504
   9223SM  H13A12339   5.756   2.516  11.300  0.0173  0.5746 -0.1573
   9223SM  H13B12340   5.634   2.395  11.317 -0.7996 -0.2179  0.9078
   9223SM  H13C12341   5.739   2.443  11.449  0.6165  2.0959 -0.3459
   9223SM   C1212342   5.490   2.555  11.504 -0.2966  0.4327 -0.7326
   9223SM  H12A12343   5.418   2.483  11.467  0.4848 -0.5029 -0.4814
   9223SM  H12B12344   5.428   2.643  11.503  0.3108  0.8675 -0.4835
   9223SM   C1112345   5.533   2.536  11.653  0.1346  0.4442 -0.2193
   9223SM  H11A12346   5.442   2.554  11.714 -0.5648  0.8764 -1.3737
   9223SM  H11B12347   5.596   2.623  11.680 -0.8999  0.5703  2.0489
   9223SM     P12348   5.542   2.267  11.664 -0.1700  0.0505 -0.4167
   9223SM   O1312349   5.395   2.283  11.658 -0.5975  0.0154  0.0811
   9223SM   O1412350   5.601   2.185  11.553  0.1521  0.0823 -0.3540
   9223SM   O1112351   5.565   2.201  11.805 -0.3421 -0.2378  1.2895
   9223SM   O1212352   5.612   2.411  11.674  0.2680 -0.4854  0.2695
   9223SM   C1S12353   5.563   2.282  11.919  0.4490 -0.0925  0.1069
   9223SM   H1S12354   5.531   2.388  11.908  0.4392 -0.0731  0.3163
   9223SM   H1T12355   5.663   2.285  11.968  0.6748 -2.0741 -0.1626
   9223SM    NF12356   5.448   2.307  12.136 -0.2124 -0.0203 -0.4122
   9223SM   HNF12357   5.487   2.273  12.221 -1.4556 -0.2433  0.0880
   9223SM   C2S12358   5.465   2.220  12.017  0.6125  0.8902 -0.3086
   9223SM   H2S12359   5.369   2.198  11.966  0.9171  0.1191 -0.5620
   9223SM   C3S12360   5.517   2.077  12.064  0.3867  0.2400  0.5953
   9223SM   H3S12361   5.610   2.103  12.119  1.8871 -0.7191 -1.3923
   9223SM    O312362   5.563   1.996  11.954 -0.5200  0.3449 -0.2132
   9223SM   HO312363   5.557   2.066  11.889  0.7162  0.1962 -0.5006
   9223SM   C4S12364   5.426   2.005  12.154 -0.2530  0.9253  0.3931
   9223SM   H4S12365   5.462   1.998  12.258  1.1329  1.8354  0.0062
   9223SM   C5S12366   5.310   1.937  12.130 -0.8326  0.7812  0.0678
   9223SM   H5S12367   5.270   1.922  12.028  0.3860 -4.6370  0.1024
   9223SM   C6S12368   5.263   1.841  12.223 -0.2895 -0.0601 -0.5712
   9223SM   H6S12369   5.318   1.744  12.224 -0.3766 -0.1095 -0.6158
   9223SM   H6T12370   5.161   1.814  12.189 -0.0465 -1.2202 -0.4297
   9223SM   C7S12371   5.250   1.890  12.374 -1.0200 -0.2668  1.1104
   9223SM   H7S12372   5.193   1.986  12.374 -1.9276 -0.7136 -1.8710
   9223SM   H7T12373   5.352   1.919  12.408 -0.9767 -1.1959  1.8059
   9223SM   C8S12374   5.187   1.791  12.473 -0.2256  0.5325  0.0183
   9223SM   H8S12375   5.252   1.702  12.486  1.2240  1.6654  0.8688
   9223SM   H8T12376   5.090   1.772  12.423  0.5301 -1.8547 -0.6489
   9223SM   C9S12377   5.143   1.846  12.607 -0.6187  0.4572  0.0493
   9223SM   H9S12378   5.094   1.764  12.663  0.3904  1.0138  1.8338
   9223SM   H9T12379   5.072   1.931  12.602  1.6904  2.4283 -1.6416
   9223SM  C10S12380   5.247   1.890  12.712  0.0568  0.0176 -0.1990
   9223SM  H10S12381   5.292   1.990  12.693 -0.6373  1.0938  3.1309
   9223SM  H10T12382   5.322   1.808  12.711  0.8677  0.6394  2.5879
   9223SM  C11S12383   5.207   1.888  12.862  0.6950 -0.0357 -0.1835
   9223SM  H11S12384   5.137   1.803  12.881  0.2359 -0.3389 -2.8075
   9223SM  H11T12385   5.141   1.975  12.881 -0.4273 -1.2892  2.0385
   9223SM  C12S12386   5.321   1.900  12.959  0.0710  0.1757 -0.5955
   9223SM  H12S12387   5.332   2.009  12.979 -2.5291  0.1467  1.7355
   9223SM  H12T12388   5.411   1.839  12.936  1.4478  2.0592 -0.4689
   9223SM  C13S12389   5.261   1.858  13.101 -0.0728  0.5463  0.2301
   9223SM  H13S12390   5.232   1.751  13.102 -1.1473  0.7841 -1.3623
   9223SM  H13T12391   5.168   1.916  13.118 -1.1985 -1.4381  1.2098
   9223SM  C14S12392   5.353   1.877  13.221  0.6100 -0.1228 -0.0076
   9223SM  H14S12393   5.389   1.981  13.205  1.9269 -0.6680 -0.7401
   9223SM  H14T12394   5.438   1.808  13.205  0.0045 -1.1726  1.1594
   9223SM  C15S12395   5.270   1.863  13.349  0.4676 -0.3735 -0.8477
   9223SM  H15S12396   5.202   1.775  13.358  2.4095 -1.7323  1.8007
   9223SM  H15T12397   5.206   1.954  13.343 -0.9555 -1.3992 -1.9583
   9223SM  C16S12398   5.365   1.880  13.472 -0.0647  0.4981  0.5862
   9223SM  H16S12399   5.408   1.983  13.472  1.1324  0.0017  0.7758
   9223SM  H16T12400   5.452   1.817  13.446  1.3352  1.9591  1.5832
   9223SM  C17S12401   5.300   1.851  13.599  0.6982 -0.0040 -0.6229
   9223SM  H17S12402   5.259   1.749  13.584 -0.9198  0.6381 -0.6980
   9223SM  H17T12403   5.214   1.919  13.614  0.0685 -0.9450  0.0773
   9223SM  C18S12404   5.392   1.854  13.720  0.4097  0.4762  0.4574
   9223SM  H18S12405   5.442   1.953  13.719 -0.3809  0.8810 -0.2340
   9223SM  H18T12406   5.465   1.770  13.719 -0.5122 -0.3516 -0.3499
   9223SM  H18U12407   5.331   1.847  13.813  0.5473 -2.0509  0.4226
   9223SM   C1F12408   5.375   2.415  12.129  0.5054 -0.0519  0.2921
   9223SM    OF12409   5.304   2.443  12.036 -0.0353  0.1551 -0.3715
   9223SM   C2F12410   5.361   2.499  12.256  0.1053 -0.5106 -0.2351
   9223SM   H2F12411   5.452   2.490  12.318  1.7138 -0.0208 -2.4123
   9223SM   H2G12412   5.269   2.456  12.301 -1.0486 -0.4381 -2.3823
   9223SM   C3F12413   5.342   2.645  12.225  0.7998 -0.0078  0.3183
   9223SM   H3F12414   5.238   2.659  12.190  0.2627 -0.7837  1.5318
   9223SM   H3G12415   5.409   2.683  12.145  1.3963 -0.9081  0.3741
   9223SM   C4F12416   5.366   2.743  12.343 -0.3877 -0.1782 -0.1608
   9223SM   H4F12417   5.380   2.846  12.304  0.9292 -0.9091 -1.7871
   9223SM   H4G12418   5.462   2.713  12.390 -1.2963 -0.7416  1.4144
   9223SM   C5F12419   5.257   2.740  12.446  0.6041  0.2623 -0.0722
   9223SM   H5F12420   5.236   2.634  12.473 -1.6485  0.0784 -2.2088
   9223SM   H5G12421   5.165   2.775  12.395  1.1217  3.0012  0.7029
   9223SM   C6F12422   5.293   2.820  12.575  0.1564 -0.0776 -0.6246
   9223SM   H6F12423   5.271   2.927  12.552  0.3679 -0.2172 -1.5380
   9223SM   H6G12424   5.398   2.807  12.610  0.5592  0.1166 -1.6948
   9223SM   C7F12425   5.214   2.778  12.700 -0.6344  0.1045 -0.2493
   9223SM   H7F12426   5.183   2.672  12.689  0.3037 -0.0352 -1.8498
   9223SM   H7G12427   5.130   2.851  12.708  0.0200  0.7988  0.5908
   9223SM   C8F12428   5.297   2.799  12.831 -0.5462  0.3549 -0.0557
   9223SM   H8F12429   5.331   2.905  12.826 -1.3108  0.7901  2.5069
   9223SM   H8G12430   5.383   2.729  12.831  0.3224  1.3824  0.9970
   9223SM   C9F12431   5.219   2.774  12.959 -0.1133  0.0673 -0.2726
   9223SM   H9F12432   5.181   2.669  12.962 -1.9186  0.6982  0.1356
   9223SM   H9G12433   5.128   2.836  12.970  1.5057  2.4830  0.1510
   9223SM  C10F12434   5.298   2.818  13.080  0.0455 -0.0705  0.2699
   9223SM  H10F12435   5.296   2.929  13.087  0.3197 -0.0982  0.7982
   9223SM  H10G12436   5.401   2.780  13.064  0.0664  0.0970 -0.0035
   9223SM  C11F12437   5.231   2.767  13.210 -0.3551 -0.7016 -0.1801
   9223SM  H11F12438   5.219   2.656  13.204 -1.2953 -0.5511 -1.6091
   9223SM  H11G12439   5.134   2.816  13.229  0.0080 -0.6649  1.7716
   9223SM  C12F12440   5.305   2.809  13.335  0.3869 -0.2926  0.2891
   9223SM  H12F12441   5.281   2.915  13.357  0.8757  0.2957 -1.7137
   9223SM  H12G12442   5.414   2.803  13.312  0.2542  0.4320 -0.6091
   9223SM  C13F12443   5.269   2.723  13.456 -0.3123  0.0439 -0.2891
   9223SM  H13F12444   5.291   2.615  13.442  0.3539  0.1557 -0.1235
   9223SM  H13G12445   5.160   2.735  13.475 -0.8122 -1.1813 -2.1313
   9223SM  C14F12446   5.359   2.768  13.578  0.5785 -0.3161  0.5048
   9223SM  H14F12447   5.337   2.874  13.604  0.1451 -0.8505  2.5266
   9223SM  H14G12448   5.463   2.769  13.540 -0.5192  0.7939 -2.8863
   9223SM  C15F12449   5.330   2.685  13.707 -0.6594 -0.0814 -0.2018
   9223SM  H15F12450   5.332   2.575  13.691 -2.0288 -0.5271  2.2563
   9223SM  H15G12451   5.227   2.710  13.739 -0.2810  0.4450  0.6327
   9223SM  C16F12452   5.429   2.711  13.820 -0.3649  0.0203 -0.3636
   9223SM  H16F12453   5.430   2.817  13.852 -1.9727 -0.3269  0.9471
   9223SM  H16G12454   5.534   2.697  13.787  0.2263  2.0052  0.5615
   9223SM  C17F12455   5.405   2.622  13.942 -0.0779 -0.2215 -0.4159
   9223SM  H17F12456   5.391   2.518  13.907  0.1627  0.6399 -3.3265
   9223SM  H17G12457   5.306   2.636  13.990  1.9338 -1.7791  4.8902
   9223SM  C18F12458   5.520   2.631  14.045  0.1521  0.5819  0.4807
   9223SM  H18F12459   5.504   2.731  14.091 -1.3927  1.0675 -0.9922
   9223SM  H18G12460   5.614   2.618  13.987  0.2456  1.0718  0.5211
   9223SM  C19F12461   5.508   2.532  14.164 -0.0480  0.1938  0.8773
   9223SM  H19F12462   5.518   2.430  14.119  2.7084  1.1450 -0.9324
   9223SM  H19G12463   5.414   2.550  14.220 -1.5342  0.0218 -1.4066
   9223SM  C20F12464   5.627   2.535  14.255 -0.4364  0.1256  0.2408
   9223SM  H20F12465   5.650   2.639  14.288  2.2236  0.1753 -1.4939
   9223SM  H20G12466   5.720   2.508  14.200 -1.6555 -2.8801 -0.5319
   9223SM  C21F12467   5.634   2.431  14.366 -0.7472 -0.3147  0.5541
   9223SM  H21F12468   5.730   2.445  14.420 -0.5251 -2.4933  0.8297
   9223SM  H21G12469   5.632   2.329  14.323 -1.0325  0.3247 -1.0021
   9223SM  C22F12470   5.523   2.450  14.473 -0.8385 -0.6717  1.4658
   9223SM  H22F12471   5.518   2.375  14.554 -1.2187  0.0118  2.0889
   9223SM  H22G12472   5.421   2.451  14.428  0.3411 -0.3317 -1.4326
   9223SM  C23F12473   5.559   2.581  14.547  1.0351 -0.1001  0.0127
   9223SM  H23F12474   5.475   2.603  14.618  3.1231 -0.0578  2.6278
   9223SM  H23G12475   5.569   2.675  14.489  0.1851 -0.0931 -0.1363
   9223SM  H23H12476   5.650   2.560  14.606  0.4742 -0.5293  0.7536
   9323SM     N12477   0.940   3.174  11.248  0.1802  0.1363 -0.5261
   9323SM   C1512478   1.062   3.258  11.219  0.1584 -0.0761  0.4106
   9323SM  H15A12479   1.046   3.350  11.273 -1.6737 -1.5155  2.4945
   9323SM  H15B12480   1.085   3.283  11.117  1.4687  1.8972  1.1362
   9323SM  H15C12481   1.150   3.211  11.261  1.1337  0.7590 -0.6560
   9323SM   C1412482   0.964   3.036  11.188 -0.1691 -0.5169 -0.2603
   9323SM  H14A12483   0.966   3.026  11.081 -0.2601  0.0929 -0.3267
   9323SM  H14B12484   0.892   2.966  11.228 -0.3627  0.2599  0.8197
   9323SM  H14C12485   1.063   3.012  11.222  0.4544  1.7452 -0.2841
   9323SM   C1312486   0.932   3.152  11.400  0.7887 -0.0120  0.1511
   9323SM  H13A12487   0.843   3.108  11.443  1.2552  0.3253  1.5207
   9323SM  H13B12488   0.924   3.252  11.440 -0.5377 -0.1493  0.2769
   9323SM  H13C12489   1.015   3.095  11.439 -1.7754 -2.7263  2.1232
   9323SM   C1212490   0.820   3.242  11.195  0.2673 -0.4863  0.0643
   9323SM  H12A12491   0.733   3.180  11.210  0.6314 -0.3161  4.0049
   9323SM  H12B12492   0.831   3.248  11.088 -0.0872 -0.3205  0.0371
   9323SM   C1112493   0.798   3.385  11.256  0.6410 -0.3189  0.4844
   9323SM  H11A12494   0.723   3.436  11.192  1.7779 -0.6321 -1.1607
   9323SM  H11B12495   0.889   3.448  11.253 -0.6743  1.6753  0.0810
   9323SM     P12496   0.605   3.338  11.421  0.2029  0.0592  0.4902
   9323SM   O1312497   0.523   3.326  11.300  0.2440 -0.5260 -0.5487
   9323SM   O1412498   0.610   3.219  11.510 -0.4422 -0.5873 -0.6661
   9323SM   O1112499   0.545   3.449  11.521  0.2513 -0.0109 -0.7293
   9323SM   O1212500   0.755   3.394  11.391  0.2055  0.2705  0.0673
   9323SM   C1S12501   0.608   3.481  11.644 -0.5819  0.4937 -0.4519
   9323SM   H1S12502   0.665   3.573  11.620 -0.8401  0.1871 -2.4544
   9323SM   H1T12503   0.679   3.408  11.686  1.2187  2.5362  0.2722
   9323SM    NF12504   0.570   3.552  11.884 -0.2263 -0.0755  0.1770
   9323SM   HNF12505   0.565   3.498  11.968 -1.4753  0.9059  0.7567
   9323SM   C2S12506   0.497   3.511  11.762  0.3376 -0.6235  0.2306
   9323SM   H2S12507   0.447   3.605  11.732  0.8384 -0.6501 -0.7214
   9323SM   C3S12508   0.404   3.405  11.779  0.5014 -0.4706 -0.2694
   9323SM   H3S12509   0.445   3.305  11.804  0.2198 -0.1592  1.5396
   9323SM    O312510   0.328   3.389  11.661 -0.1243 -0.2376 -0.1680
   9323SM   HO312511   0.387   3.424  11.593 -1.3318  0.9884 -0.6142
   9323SM   C4S12512   0.313   3.448  11.883 -0.7320 -0.1317 -0.5549
   9323SM   H4S12513   0.245   3.528  11.849 -0.7151  0.0129 -0.2550
   9323SM   C5S12514   0.299   3.388  12.001 -0.6343  0.3484  0.1852
   9323SM   H5S12515   0.364   3.304  12.032 -0.8505  1.2593  3.5547
   9323SM   C6S12516   0.196   3.420  12.097  0.7402  0.3026 -0.3339
   9323SM   H6S12517   0.141   3.326  12.117  0.9394  0.3369  0.3793
   9323SM   H6T12518   0.133   3.498  12.049  0.7826  1.2279  1.0622
   9323SM   C7S12519   0.254   3.483  12.226 -0.0532 -0.0588 -0.6950
   9323SM   H7S12520   0.309   3.577  12.204  1.8016 -0.8776  0.2248
   9323SM   H7T12521   0.326   3.418  12.280 -0.0934 -1.2789 -2.0435
   9323SM   C8S12522   0.152   3.506  12.341  0.2831  0.0046  0.1733
   9323SM   H8S12523   0.083   3.419  12.350 -0.4209  0.2967 -1.8704
   9323SM   H8T12524   0.096   3.598  12.314 -0.5156 -1.0793 -2.1430
   9323SM   C9S12525   0.221   3.528  12.480 -0.0848 -0.2204  0.5269
   9323SM   H9S12526   0.307   3.598  12.474  1.0615 -1.6960 -2.1787
   9323SM   H9T12527   0.254   3.426  12.510 -1.1029 -0.9521 -0.7322
   9323SM  C10S12528   0.112   3.573  12.586  0.7358 -0.0159 -0.1546
   9323SM  H10S12529   0.034   3.497  12.562  0.6738 -0.2855  0.8820
   9323SM  H10T12530   0.069   3.671  12.556 -1.3876 -0.1221  2.2117
   9323SM  C11S12531   0.155   3.576  12.733  0.1627  0.1473 -0.0991
   9323SM  H11S12532   0.142   3.480  12.786 -0.0586  0.3651  0.2435
   9323SM  H11T12533   0.079   3.645  12.774 -1.4454 -1.5489 -0.1138
   9323SM  C12S12534   0.292   3.642  12.755 -0.2625  0.5264  0.1062
   9323SM  H12S12535   0.290   3.729  12.685  0.5852  0.2466 -0.2835
   9323SM  H12T12536   0.372   3.576  12.716 -0.3260  1.6800 -2.1370
   9323SM  C13S12537   0.319   3.681  12.903  0.3216 -0.2783 -0.1595
   9323SM  H13S12538   0.256   3.760  12.949  0.1478 -0.4868 -0.0377
   9323SM  H13T12539   0.419   3.729  12.898  1.4105 -2.3775  0.2667
   9323SM  C14S12540   0.303   3.566  12.999  0.0043  0.2262  0.3102
   9323SM  H14S12541   0.355   3.473  12.966 -3.1498 -2.0538  1.3277
   9323SM  H14T12542   0.193   3.548  12.999 -0.0438  0.4367 -0.6164
   9323SM  C15S12543   0.338   3.611  13.143  0.5567 -0.6565  0.4172
   9323SM  H15S12544   0.442   3.649  13.145  0.1117  0.6270 -0.1292
   9323SM  H15T12545   0.264   3.690  13.164  2.1794  1.4645 -1.3620
   9323SM  C16S12546   0.305   3.509  13.252  1.1272 -0.0159 -1.1428
   9323SM  H16S12547   0.362   3.415  13.236 -0.4929 -1.4152  0.7869
   9323SM  H16T12548   0.199   3.479  13.242  1.2109 -0.5341 -0.5659
   9323SM  C17S12549   0.344   3.556  13.392 -0.4307  0.0796  0.7225
   9323SM  H17S12550   0.309   3.662  13.385 -1.2429 -0.2307 -0.2492
   9323SM  H17T12551   0.455   3.559  13.394 -0.3733  1.1771 -1.5500
   9323SM  C18S12552   0.296   3.492  13.517  0.2894  0.0145  1.2318
   9323SM  H18S12553   0.331   3.545  13.608 -1.1925  1.9108  0.7632
   9323SM  H18T12554   0.322   3.384  13.524  0.0294 -0.2727 -1.2613
   9323SM  H18U12555   0.186   3.504  13.519  0.1963 -0.7914  1.3125
   9323SM   C1F12556   0.639   3.666  11.895  0.0485  0.5577  0.7396
   9323SM    OF12557   0.611   3.763  11.819 -0.2988 -0.0423 -0.7401
   9323SM   C2F12558   0.738   3.675  12.004  0.1359 -0.2790  0.3523
   9323SM   H2F12559   0.816   3.746  11.968 -2.0187  2.7171  1.1256
   9323SM   H2G12560   0.778   3.572  12.013  2.5620  0.5113 -0.4295
   9323SM   C3F12561   0.688   3.744  12.135 -0.0911  0.3034  0.4510
   9323SM   H3F12562   0.642   3.846  12.130 -1.4852 -0.2404  1.3890
   9323SM   H3G12563   0.776   3.758  12.201 -0.6567  0.6176  1.1530
   9323SM   C4F12564   0.601   3.647  12.223 -0.2884 -0.0386  0.1177
   9323SM   H4F12565   0.653   3.550  12.238 -0.5615 -0.3855 -1.0606
   9323SM   H4G12566   0.506   3.626  12.170 -0.1341  1.0864 -0.6342
   9323SM   C5F12567   0.580   3.685  12.368 -0.2502 -0.1899 -0.3519
   9323SM   H5F12568   0.635   3.622  12.441  0.1554 -1.1726 -1.4776
   9323SM   H5G12569   0.472   3.688  12.395  0.2735 -1.7044  2.2291
   9323SM   C6F12570   0.620   3.829  12.408  0.1791 -0.2123 -0.6884
   9323SM   H6F12571   0.585   3.914  12.346  0.8244  1.2071  0.8103
   9323SM   H6G12572   0.731   3.823  12.401  0.3335  2.4379 -1.7540
   9323SM   C7F12573   0.567   3.858  12.551 -0.3776 -0.2866  0.3234
   9323SM   H7F12574   0.599   3.780  12.624  3.8820 -0.6221 -1.6063
   9323SM   H7G12575   0.456   3.858  12.554 -0.3700  0.0871  0.7559
   9323SM   C8F12576   0.622   3.993  12.607 -0.5689 -0.7936 -0.0039
   9323SM   H8F12577   0.613   4.066  12.524  1.3819 -0.8415 -0.3120
   9323SM   H8G12578   0.729   3.977  12.633 -0.3032  0.1487 -0.5101
   9323SM   C9F12579   0.565   4.046  12.739  0.5828  0.3748 -0.0315
   9323SM   H9F12580   0.456   4.026  12.731  0.2798  1.3572  1.2854
   9323SM   H9G12581   0.579   4.155  12.755 -1.6894  0.4638  1.9304
   9323SM  C10F12582   0.605   3.968  12.862  0.3747 -0.5039 -0.3905
   9323SM  H10F12583   0.715   3.956  12.864  0.4114 -0.2963 -0.9809
   9323SM  H10G12584   0.558   3.868  12.857 -1.1375  0.2284 -2.3248
   9323SM  C11F12585   0.552   4.043  12.991 -0.2982 -0.3044  0.6452
   9323SM  H11F12586   0.445   4.071  12.981  0.2796  1.2994 -2.1928
   9323SM  H11G12587   0.616   4.134  12.994 -1.2136  0.4028 -0.3209
   9323SM  C12F12588   0.584   3.959  13.113 -0.4777 -0.1072 -0.2853
   9323SM  H12F12589   0.691   3.935  13.129 -0.7226 -0.5516  0.7894
   9323SM  H12G12590   0.539   3.859  13.093 -1.3430  0.6664 -2.6098
   9323SM  C13F12591   0.528   4.029  13.238 -0.0544 -0.1541  0.5386
   9323SM  H13F12592   0.421   4.058  13.229 -0.3188 -1.3209 -0.2857
   9323SM  H13G12593   0.586   4.121  13.258 -0.0208 -0.0865  0.1320
   9323SM  C14F12594   0.551   3.934  13.353 -0.1433 -0.2139 -0.1521
   9323SM  H14F12595   0.662   3.923  13.347  0.3343  3.7144 -1.1187
   9323SM  H14G12596   0.502   3.835  13.336  1.1574 -1.1104  1.0370
   9323SM  C15F12597   0.501   3.992  13.481 -0.5116  0.9871 -0.6057
   9323SM  H15F12598   0.392   4.013  13.484 -0.4813  1.0219  0.8189
   9323SM  H15G12599   0.552   4.088  13.500  2.0575 -0.5671  0.9069
   9323SM  C16F12600   0.541   3.897  13.600  0.7851 -0.1978 -0.3405
   9323SM  H16F12601   0.652   3.892  13.597  0.7959 -0.0776 -0.1701
   9323SM  H16G12602   0.508   3.792  13.585 -1.5283  0.5780 -1.1351
   9323SM  C17F12603   0.504   3.957  13.738 -0.2752 -0.3223  0.2859
   9323SM  H17F12604   0.400   3.996  13.729 -0.6309 -0.9948  1.2292
   9323SM  H17G12605   0.557   4.046  13.779  0.1671  1.2150 -3.3097
   9323SM  C18F12606   0.482   3.842  13.849  0.4925  0.2193  0.4408
   9323SM  H18F12607   0.451   3.890  13.944  0.6058  1.8778 -0.3215
   9323SM  H18G12608   0.577   3.791  13.876  1.0173  1.6249  1.3681
   9323SM  C19F12609   0.380   3.731  13.811 -0.3558 -0.5819  0.2325
   9323SM  H19F12610   0.437   3.648  13.764 -0.1508  0.1471 -0.8392
   9323SM  H19G12611   0.293   3.765  13.752 -1.9931 -2.5882  1.3464
   9323SM  C20F12612   0.324   3.655  13.942 -0.5890 -0.5651 -0.7314
   9323SM  H20F12613   0.242   3.716  13.986 -0.9704 -3.5716  3.2592
   9323SM  H20G12614   0.407   3.645  14.015 -0.1985 -0.1252 -1.1086
   9323SM  C21F12615   0.263   3.520  13.908 -0.0529  0.4118 -0.1656
   9323SM  H21F12616   0.328   3.455  13.846  0.3187  0.2324  0.4094
   9323SM  H21G12617   0.175   3.540  13.843 -2.9992 -3.8729  2.0430
   9323SM  C22F12618   0.216   3.442  14.028 -0.5182  0.1869 -0.0853
   9323SM  H22F12619   0.142   3.369  13.988 -0.5519  1.2141 -2.0252
   9323SM  H22G12620   0.159   3.504  14.101  0.0695 -0.4238  0.9231
   9323SM  C23F12621   0.323   3.356  14.105  0.6257 -0.0533  0.3865
   9323SM  H23F12622   0.404   3.404  14.165  1.4785 -2.1622  1.0260
   9323SM  H23G12623   0.391   3.303  14.034  1.6227  1.9856 -0.2714
   9323SM  H23H12624   0.265   3.280  14.162 -0.4848  0.7207  0.3219
   9423SM     N12625   5.892   0.038  11.187 -0.2854 -0.4033  0.0678
   9423SM   C1512626   5.855   0.178  11.146  0.8952  0.1157 -0.0183
   9423SM  H15A12627   5.829   0.175  11.041 -2.8578 -1.0172  0.7636
   9423SM  H15B12628   5.932   0.252  11.156 -0.0541  1.2153 -0.5737
   9423SM  H15C12629   5.763   0.212  11.190  1.0846  0.7803 -0.1350
   9423SM   C1412630   5.773  -0.047  11.156 -0.6132 -0.2497 -0.3043
   9423SM  H14A12631   5.804  -0.151  11.162 -1.5797 -0.5362  0.0634
   9423SM  H14B12632   5.743  -0.033  11.053  1.6814 -0.9556 -1.1161
   9423SM  H14C12633   5.696  -0.038  11.231 -1.0914 -1.9389 -0.5393
   9423SM   C1312634   5.992  -0.005  11.084 -0.2144  0.2181 -0.2549
   9423SM  H13A12635   5.964   0.002  10.980  0.0496  0.4178 -0.3127
   9423SM  H13B12636   6.009  -0.110  11.103  0.2478 -0.2368 -2.7618
   9423SM  H13C12637   6.086   0.046  11.094 -0.6368  1.8232 -3.3433
   9423SM   C1212638   5.941   0.028  11.332  0.8474  1.0041  0.4898
   9423SM  H12A12639   6.042   0.062  11.346  0.6232  1.2765  1.5556
   9423SM  H12B12640   5.945  -0.079  11.344 -0.4212  0.9499  0.5515
   9423SM   C1112641   5.861   0.102  11.432  0.0333  0.5853 -0.3280
   9423SM  H11A12642   5.848   0.206  11.394 -4.7047 -0.3529 -2.0245
   9423SM  H11B12643   5.916   0.091  11.528  0.4870 -0.5115 -0.7005
   9423SM     P12644   5.692  -0.079  11.537 -0.3726 -0.1403 -0.0808
   9423SM   O1312645   5.548  -0.112  11.519 -0.1237  0.2780  0.0704
   9423SM   O1412646   5.788  -0.190  11.509  0.8584  0.2900 -0.2653
   9423SM   O1112647   5.723  -0.026  11.682 -0.1669  0.2849 -0.1936
   9423SM   O1212648   5.729   0.051  11.446 -0.3825 -0.1022 -0.8283
   9423SM   C1S12649   5.647   0.081  11.745  0.3989 -0.6063  0.4175
   9423SM   H1S12650   5.536   0.074  11.741  0.0969  2.9329 -0.6958
   9423SM   H1T12651   5.662   0.183  11.704  0.3416 -2.0162 -3.5232
   9423SM    NF12652   5.606   0.183  11.974 -0.0599 -0.2657 -0.1476
   9423SM   HNF12653   5.649   0.264  12.012 -1.8326  0.7508 -0.1884
   9423SM   C2S12654   5.692   0.093  11.890 -0.6017 -0.8962  0.4937
   9423SM   H2S12655   5.681  -0.009  11.932 -0.7127 -1.0247  0.1529
   9423SM   C3S12656   5.844   0.132  11.896 -0.2484 -0.4198 -0.0454
   9423SM   H3S12657   5.851   0.228  11.841  1.4134 -1.0155 -0.9213
   9423SM    O312658   5.934   0.043  11.830 -0.2772 -0.1330 -0.0168
   9423SM   HO312659   5.880   0.002  11.762  0.7312  0.5851 -1.3031
   9423SM   C4S12660   5.896   0.154  12.037 -0.0648 -0.1925  0.8938
   9423SM   H4S12661   5.873   0.254  12.074  0.0103  0.6336 -1.1566
   9423SM   C5S12662   5.968   0.071  12.114 -0.1550  0.8068  0.6318
   9423SM   H5S12663   5.998  -0.022  12.062  2.9117  2.1623 -0.2343
   9423SM   C6S12664   6.026   0.089  12.246  0.2852 -0.7064 -0.5752
   9423SM   H6S12665   6.137   0.086  12.238  0.2363 -0.1868 -1.5705
   9423SM   H6T12666   6.004   0.003  12.313  0.1129 -0.3093 -0.1106
   9423SM   C7S12667   5.971   0.222  12.312  0.2073  0.1816  0.5638
   9423SM   H7S12668   5.861   0.207  12.322  0.3129 -0.4011  0.8334
   9423SM   H7T12669   5.996   0.305  12.242  1.5904 -1.9390 -1.6107
   9423SM   C8S12670   6.028   0.251  12.446 -0.3296  0.5400 -0.4715
   9423SM   H8S12671   6.137   0.271  12.437 -0.1158 -0.7008 -0.8387
   9423SM   H8T12672   6.016   0.159  12.507  2.6390  1.6221  1.9763
   9423SM   C9S12673   5.971   0.378  12.501 -0.0500 -0.4953 -0.0286
   9423SM   H9S12674   5.861   0.365  12.496 -0.4641  2.6692 -1.2663
   9423SM   H9T12675   5.987   0.456  12.424 -0.7879 -0.0784  0.2266
   9423SM  C10S12676   6.037   0.429  12.633  0.5250 -0.2901  0.2686
   9423SM  H10S12677   5.990   0.528  12.652 -0.5646 -0.2623 -2.1568
   9423SM  H10T12678   6.145   0.431  12.606  0.3427 -2.4296 -0.9003
   9423SM  C11S12679   6.015   0.327  12.745 -0.4213  0.2204 -0.3933
   9423SM  H11S12680   6.061   0.229  12.722 -1.4441 -0.3876  0.1021
   9423SM  H11T12681   5.908   0.300  12.758 -0.1582 -1.1533 -0.9468
   9423SM  C12S12682   6.088   0.370  12.868  0.3785 -0.4394 -0.4279
   9423SM  H12S12683   6.074   0.476  12.899 -0.5726 -0.7407  0.1903
   9423SM  H12T12684   6.198   0.359  12.859  0.3099 -0.0190 -2.0463
   9423SM  C13S12685   6.040   0.290  12.990  0.4459 -0.4362 -0.1258
   9423SM  H13S12686   6.072   0.184  12.987  0.0753 -0.5422 -0.5024
   9423SM  H13T12687   5.930   0.307  12.987  0.4648 -0.3233 -0.1911
   9423SM  C14S12688   6.101   0.344  13.123 -0.2303  0.6610  0.0460
   9423SM  H14S12689   6.071   0.448  13.149  1.5161  1.3238 -0.4798
   9423SM  H14T12690   6.211   0.357  13.124 -0.2947  1.4756  2.3746
   9423SM  C15S12691   6.067   0.242  13.241  0.0709  0.6357  0.0784
   9423SM  H15S12692   6.117   0.144  13.226  1.0546  0.8469  1.7251
   9423SM  H15T12693   5.958   0.219  13.232  0.2405  0.1741 -1.0202
   9423SM  C16S12694   6.106   0.299  13.379  0.0031 -0.8247 -0.2273
   9423SM  H16S12695   6.207   0.344  13.384 -1.0945  1.7405  3.0113
   9423SM  H16T12696   6.100   0.215  13.452 -0.1135 -1.7024 -1.2263
   9423SM  C17S12697   6.003   0.410  13.425 -0.3689 -0.0720 -0.1709
   9423SM  H17S12698   5.908   0.368  13.385 -0.3618  1.6909 -2.1799
   9423SM  H17T12699   6.032   0.502  13.370  0.5461  0.0278  0.4501
   9423SM  C18S12700   5.986   0.429  13.577 -0.0149 -0.5853 -0.0703
   9423SM  H18S12701   5.934   0.342  13.623  0.3203 -1.9331 -2.1080
   9423SM  H18T12702   5.928   0.523  13.589 -1.4277 -1.6264  1.6779
   9423SM  H18U12703   6.086   0.448  13.622  0.6365 -4.7158  0.6347
   9423SM   C1F12704   5.484   0.149  11.995 -0.6048  0.2740 -0.0628
   9423SM    OF12705   5.426   0.056  11.937 -0.7529 -0.7347  0.4790
   9423SM   C2F12706   5.415   0.234  12.094 -0.6029  0.0904  0.2631
   9423SM   H2F12707   5.313   0.271  12.070 -1.0685  0.3606  2.5006
   9423SM   H2G12708   5.469   0.331  12.091  0.8577 -0.4331  4.1223
   9423SM   C3F12709   5.419   0.185  12.240  0.0883 -0.5194 -0.2013
   9423SM   H3F12710   5.365   0.088  12.239 -0.6856 -0.0983 -0.7030
   9423SM   H3G12711   5.366   0.264  12.297 -1.7178  0.7887 -3.4154
   9423SM   C4F12712   5.565   0.158  12.299  0.0164 -1.0156  0.6464
   9423SM   H4F12713   5.639   0.239  12.283 -0.9168 -0.0875  0.8847
   9423SM   H4G12714   5.599   0.075  12.233 -0.5093 -1.5888  1.0749
   9423SM   C5F12715   5.562   0.090  12.436 -0.4731 -0.6638  0.2706
   9423SM   H5F12716   5.664   0.084  12.480 -1.2660  1.5473  2.6747
   9423SM   H5G12717   5.503  -0.004  12.426 -1.6570 -0.0899  1.4981
   9423SM   C6F12718   5.481   0.171  12.532 -0.3384  0.3670  0.1493
   9423SM   H6F12719   5.374   0.168  12.501  0.1411 -0.7472 -1.5178
   9423SM   H6G12720   5.528   0.271  12.539  0.1830  0.0865  0.7240
   9423SM   C7F12721   5.484   0.116  12.675  0.4409 -0.2401  0.1042
   9423SM   H7F12722   5.439   0.016  12.689  0.4363 -0.1854  0.5027
   9423SM   H7G12723   5.422   0.193  12.726  1.7192  1.6749 -1.1291
   9423SM   C8F12724   5.623   0.107  12.740  1.0374  0.2355  0.0518
   9423SM   H8F12725   5.686   0.186  12.693  2.0943 -1.4562 -1.5449
   9423SM   H8G12726   5.663   0.006  12.714 -0.6162 -0.1635 -1.1015
   9423SM   C9F12727   5.607   0.130  12.892  0.4746 -0.2191  0.3851
   9423SM   H9F12728   5.515   0.187  12.917  0.3120 -1.0612  1.8080
   9423SM   H9G12729   5.690   0.190  12.934  0.1235  1.2014 -0.8508
   9423SM  C10F12730   5.592  -0.008  12.970  0.0261  0.1349  0.1175
   9423SM  H10F12731   5.685  -0.053  12.928 -1.6205 -1.6272 -1.9157
   9423SM  H10G12732   5.506  -0.071  12.938  0.9261 -1.2631  0.3507
   9423SM  C11F12733   5.605   0.021  13.122 -0.0440  0.6966  1.0035
   9423SM  H11F12734   5.535  -0.049  13.172  1.0249 -1.6955 -0.6503
   9423SM  H11G12735   5.556   0.118  13.140  1.9078  1.3797  3.1063
   9423SM  C12F12736   5.750   0.010  13.180  0.4073  0.6148  0.3429
   9423SM  H12F12737   5.818   0.084  13.133  1.2295  0.4700  1.2732
   9423SM  H12G12738   5.788  -0.091  13.156  1.4253  0.4474  2.4509
   9423SM  C13F12739   5.752   0.020  13.332  0.0833  0.1380 -0.7661
   9423SM  H13F12740   5.647   0.004  13.366  0.5524  0.7915  1.0434
   9423SM  H13G12741   5.769   0.124  13.366  0.7112 -0.0074 -0.6342
   9423SM  C14F12742   5.846  -0.067  13.398 -0.3771  0.4295  0.1311
   9423SM  H14F12743   5.940  -0.078  13.339 -0.3718 -1.5851  0.4621
   9423SM  H14G12744   5.809  -0.171  13.413  2.3139 -1.2248 -3.3021
   9423SM  C15F12745   5.885  -0.032  13.548 -0.3014  0.5064 -0.7544
   9423SM  H15F12746   5.953   0.057  13.551  2.2607 -1.3628  1.7085
   9423SM  H15G12747   5.944  -0.111  13.599  0.4871  1.4243 -0.2034
   9423SM  C16F12748   5.755  -0.011  13.626  0.1830 -0.1616 -0.7938
   9423SM  H16F12749   5.692  -0.102  13.622 -1.6690  1.0097  0.1856
   9423SM  H16G12750   5.702   0.083  13.598  2.9239  1.3154 -1.3383
   9423SM  C17F12751   5.799   0.002  13.778 -0.6748  0.4501 -0.2064
   9423SM  H17F12752   5.871   0.087  13.782  0.5722 -0.5946  0.6273
   9423SM  H17G12753   5.851  -0.093  13.807  0.6868  0.9892 -0.7911
   9423SM  C18F12754   5.693   0.030  13.879  0.3980 -0.1601 -0.5446
   9423SM  H18F12755   5.631  -0.061  13.890  0.9577 -0.5624 -0.6827
   9423SM  H18G12756   5.629   0.114  13.843 -0.9376 -0.7483  0.3679
   9423SM  C19F12757   5.738   0.075  14.025  0.3607 -0.4298 -0.7102
   9423SM  H19F12758   5.655   0.067  14.098  0.1271  1.8312 -0.6591
   9423SM  H19G12759   5.766   0.183  14.015 -2.2129  0.4283  0.4886
   9423SM  C20F12760   5.843  -0.012  14.097  0.3442  0.0598 -0.2887
   9423SM  H20F12761   5.845  -0.116  14.057  0.9538 -0.8072  1.8778
   9423SM  H20G12762   5.815  -0.020  14.204  0.8735 -1.6648 -0.2335
   9423SM  C21F12763   5.984   0.044  14.068 -1.0613  0.7903  0.4412
   9423SM  H21F12764   5.996   0.146  14.109 -0.3141  1.1900 -0.7309
   9423SM  H21G12765   6.000   0.066  13.961 -0.5484  0.4411  0.4430
   9423SM  C22F12766   6.090  -0.058  14.114 -0.1242  0.0560  0.0711
   9423SM  H22F12767   6.076  -0.085  14.221  1.5557 -0.2296  0.2384
   9423SM  H22G12768   6.190  -0.010  14.108  0.5526 -1.0940  1.5976
   9423SM  C23F12769   6.091  -0.190  14.038  0.2317  0.1967  0.0633
   9423SM  H23F12770   5.998  -0.248  14.052 -0.8809  1.9976  0.4627
   9423SM  H23G12771   6.170  -0.258  14.077  1.0054  0.1239 -1.5376
   9423SM  H23H12772   6.107  -0.172  13.929 -0.0060 -1.7752 -0.3230
   9523SM     N12773   2.017   3.219  11.770 -0.2023 -0.1190  0.6222
   9523SM   C1512774   2.098   3.221  11.643 -0.0921  0.0932  0.4643
   9523SM  H15A12775   2.148   3.126  11.632  0.7541  0.6009 -0.1506
   9523SM  H15B12776   2.178   3.291  11.660  1.1015 -1.0108 -0.4422
   9523SM  H15C12777   2.042   3.244  11.554 -1.0329 -0.3265  0.9265
   9523SM   C1412778   1.922   3.344  11.760 -0.0530  0.4932 -0.4788
   9523SM  H14A12779   1.979   3.434  11.779 -0.5486  0.7336 -0.0874
   9523SM  H14B12780   1.836   3.341  11.826 -1.3452  1.0962 -2.0757
   9523SM  H14C12781   1.883   3.342  11.660  1.6708  0.0568 -1.1768
   9523SM   C1312782   1.933   3.090  11.750 -0.2056 -0.6322 -0.1119
   9523SM  H13A12783   1.899   3.085  11.648  0.8646  0.1658 -0.5358
   9523SM  H13B12784   1.849   3.080  11.818 -1.0897  2.2053 -0.6225
   9523SM  H13C12785   1.987   3.000  11.777 -1.3667 -1.0829  0.8267
   9523SM   C1212786   2.099   3.213  11.901 -0.5469 -0.1986 -0.1550
   9523SM  H12A12787   2.155   3.121  11.902  1.3507  0.9066 -0.3987
   9523SM  H12B12788   2.031   3.201  11.985  2.1695 -1.3076  2.0388
   9523SM   C1112789   2.196   3.337  11.931  0.0225  0.4507  0.5889
   9523SM  H11A12790   2.236   3.320  12.033 -0.5541 -3.3215  0.3322
   9523SM  H11B12791   2.137   3.431  11.929 -0.8064 -0.0006  2.1930
   9523SM     P12792   2.422   3.243  11.838  0.7373 -0.1857 -0.1540
   9523SM   O1312793   2.401   3.153  11.723 -0.3959 -0.2997 -0.0391
   9523SM   O1412794   2.556   3.308  11.848  0.4617  0.0034  0.4531
   9523SM   O1112795   2.408   3.160  11.976 -0.0758  0.1969  0.1423
   9523SM   O1212796   2.300   3.347  11.832 -0.0992 -0.2466  0.1044
   9523SM   C1S12797   2.466   3.196  12.106 -0.4622 -0.5223  0.4906
   9523SM   H1S12798   2.434   3.300  12.132  1.5144  0.6498 -1.4394
   9523SM   H1T12799   2.576   3.208  12.103 -0.4985 -0.2818 -0.1921
   9523SM    NF12800   2.446   3.162  12.339 -0.4830  0.6052  0.5649
   9523SM   HNF12801   2.508   3.109  12.397 -0.2029 -0.1281 -0.3745
   9523SM   C2S12802   2.414   3.102  12.215 -0.1465  0.4842  0.3823
   9523SM   H2S12803   2.303   3.102  12.208 -0.1087 -0.8081 -0.5825
   9523SM   C3S12804   2.457   2.955  12.185  0.1960  0.0785 -1.1907
   9523SM   H3S12805   2.567   2.944  12.170  0.2633 -0.6916 -0.2362
   9523SM    O312806   2.405   2.904  12.061 -0.1140 -0.0038  0.2988
   9523SM   HO312807   2.398   2.990  12.020  1.7803  0.1227  0.1528
   9523SM   C4S12808   2.409   2.861  12.290 -0.1062 -0.0078  0.0757
   9523SM   H4S12809   2.501   2.819  12.335 -0.9587 -0.2117  1.7166
   9523SM   C5S12810   2.288   2.798  12.325 -0.2157  0.0599 -0.1710
   9523SM   H5S12811   2.195   2.811  12.269 -1.4882 -1.6875  1.4033
   9523SM   C6S12812   2.282   2.692  12.433 -0.0805  0.5396 -0.6545
   9523SM   H6S12813   2.277   2.590  12.390 -0.6075 -0.8618  2.4525
   9523SM   H6T12814   2.197   2.716  12.501 -1.5690 -2.2292 -1.3775
   9523SM   C7S12815   2.412   2.669  12.524 -0.3346  0.3825 -0.3243
   9523SM   H7S12816   2.476   2.760  12.530  0.7966 -0.0113 -3.8738
   9523SM   H7T12817   2.480   2.593  12.480  1.2703 -0.1203  2.7180
   9523SM   C8S12818   2.393   2.618  12.670 -0.2521  0.2908  0.5340
   9523SM   H8S12819   2.486   2.569  12.705  0.7581  1.9261  0.2789
   9523SM   H8T12820   2.317   2.538  12.666 -0.0417  0.0676  0.9546
   9523SM   C9S12821   2.346   2.726  12.764  0.6556 -0.8070  0.6587
   9523SM   H9S12822   2.242   2.745  12.730  1.1840 -0.4788 -0.8750
   9523SM   H9T12823   2.403   2.822  12.762 -0.8903  0.1454  1.0307
   9523SM  C10S12824   2.347   2.667  12.902  0.3353 -0.8866  0.5417
   9523SM  H10S12825   2.434   2.599  12.911  1.8387  0.6415 -1.5887
   9523SM  H10T12826   2.256   2.603  12.912 -0.0326 -0.2169  1.5593
   9523SM  C11S12827   2.358   2.768  13.019 -0.2088  0.0456 -0.0346
   9523SM  H11S12828   2.267   2.832  13.012  0.1492  0.5878  0.1758
   9523SM  H11T12829   2.451   2.828  13.005 -2.6156  4.0199 -0.4433
   9523SM  C12S12830   2.359   2.691  13.155 -0.5985 -0.4405 -0.7756
   9523SM  H12S12831   2.458   2.641  13.166 -0.0898  0.6930 -0.0052
   9523SM  H12T12832   2.278   2.616  13.169  0.8622 -1.8052  0.7065
   9523SM  C13S12833   2.349   2.784  13.276 -0.0542 -0.0001 -0.0127
   9523SM  H13S12834   2.259   2.849  13.269  0.3842  0.4402 -2.1577
   9523SM  H13T12835   2.445   2.838  13.281 -1.2236  2.1667  0.3131
   9523SM  C14S12836   2.342   2.717  13.410 -0.0174  0.5288 -0.3604
   9523SM  H14S12837   2.427   2.652  13.440 -1.7099 -0.2675  3.2342
   9523SM  H14T12838   2.265   2.637  13.414 -1.6876  1.9640 -1.9596
   9523SM  C15S12839   2.315   2.815  13.528  0.3536  0.5450 -0.1771
   9523SM  H15S12840   2.227   2.877  13.504 -0.6048 -1.2059 -1.3855
   9523SM  H15T12841   2.404   2.879  13.546 -0.8144  1.6936  1.8726
   9523SM  C16S12842   2.288   2.738  13.653  0.6410 -0.6254  0.0832
   9523SM  H16S12843   2.358   2.654  13.673  0.8413 -0.5904 -0.4596
   9523SM  H16T12844   2.186   2.694  13.654  0.5797 -0.4872 -0.0936
   9523SM  C17S12845   2.296   2.821  13.785 -0.1822  0.6287  0.3016
   9523SM  H17S12846   2.229   2.911  13.786  1.9825  2.3538 -0.9520
   9523SM  H17T12847   2.395   2.868  13.804 -0.1182  0.5821  0.0786
   9523SM  C18S12848   2.265   2.724  13.900 -0.4208  1.1433  0.7427
   9523SM  H18S12849   2.341   2.643  13.895  0.4964  1.9942  0.6596
   9523SM  H18T12850   2.163   2.681  13.883  0.2539 -0.6845  1.1006
   9523SM  H18U12851   2.270   2.776  13.998 -0.8009  1.4789  0.5866
   9523SM   C1F12852   2.382   3.269  12.389  0.0022  0.8479  0.3228
   9523SM    OF12853   2.295   3.325  12.327  0.5831  0.1070 -0.3880
   9523SM   C2F12854   2.424   3.317  12.529 -0.7562 -0.2970 -0.3705
   9523SM   H2F12855   2.518   3.270  12.566  0.0840  0.0694 -1.9592
   9523SM   H2G12856   2.338   3.288  12.593 -1.6559  1.6682 -0.6061
   9523SM   C3F12857   2.452   3.467  12.540  0.0679 -0.1401  0.2603
   9523SM   H3F12858   2.361   3.529  12.521 -0.5624 -0.9717  0.5244
   9523SM   H3G12859   2.530   3.485  12.463 -1.3235 -0.1522 -1.2061
   9523SM   C4F12860   2.518   3.509  12.679  0.4046  0.3571  0.2155
   9523SM   H4F12861   2.533   3.619  12.674  1.8092  0.4246  3.5783
   9523SM   H4G12862   2.620   3.468  12.698  0.2720 -1.0616 -1.7914
   9523SM   C5F12863   2.425   3.489  12.799 -0.1721  0.2158  0.1335
   9523SM   H5F12864   2.423   3.378  12.810 -0.6420  0.0499 -1.3601
   9523SM   H5G12865   2.322   3.524  12.776  0.1722 -0.0886 -2.0751
   9523SM   C6F12866   2.486   3.562  12.923  0.0340  0.1443 -0.2289
   9523SM   H6F12867   2.502   3.670  12.905 -0.0699  0.6199  2.1960
   9523SM   H6G12868   2.588   3.522  12.941  0.0505 -0.7680 -2.1416
   9523SM   C7F12869   2.401   3.539  13.050  0.0434 -0.4331 -0.3061
   9523SM   H7F12870   2.344   3.445  13.066 -0.8510  0.2183  0.5204
   9523SM   H7G12871   2.324   3.619  13.046 -0.1177 -0.2290  3.3930
   9523SM   C8F12872   2.480   3.577  13.174  0.4592  0.0915 -0.1546
   9523SM   H8F12873   2.509   3.685  13.180 -0.3414  0.4005 -1.4029
   9523SM   H8G12874   2.576   3.522  13.173 -0.1759 -1.0531 -0.0907
   9523SM   C9F12875   2.391   3.561  13.303  0.1545 -0.5017  0.2170
   9523SM   H9F12876   2.382   3.451  13.313  0.5322 -0.5481  0.0625
   9523SM   H9G12877   2.292   3.611  13.297  0.5154  0.0455 -1.5169
   9523SM  C10F12878   2.467   3.604  13.426 -0.2479  0.3704  0.2321
   9523SM  H10F12879   2.523   3.695  13.395  0.4953 -0.9669 -2.7391
   9523SM  H10G12880   2.546   3.527  13.441  1.5576  1.5243 -2.5851
   9523SM  C11F12881   2.386   3.633  13.556 -1.3167 -0.8510  0.2855
   9523SM  H11F12882   2.297   3.568  13.566 -1.7872 -0.3330 -0.4579
   9523SM  H11G12883   2.352   3.738  13.566  0.2371 -0.4001  1.1016
   9523SM  C12F12884   2.474   3.617  13.682 -0.4247  0.4554  0.5069
   9523SM  H12F12885   2.552   3.697  13.683  2.3565 -2.0039 -1.8037
   9523SM  H12G12886   2.530   3.521  13.686  0.1117  0.7901  1.9420
   9523SM  C13F12887   2.397   3.615  13.819 -0.0254  0.0184  0.6119
   9523SM  H13F12888   2.312   3.544  13.807  0.1724  0.1086 -1.7882
   9523SM  H13G12889   2.359   3.716  13.844  1.2976  0.5598  0.5130
   9523SM  C14F12890   2.491   3.580  13.942  0.5577  0.3197  0.0951
   9523SM  H14F12891   2.573   3.650  13.968  1.4191 -1.1457  1.5031
   9523SM  H14G12892   2.540   3.484  13.918  2.1557  0.8315  1.1483
   9523SM  C15F12893   2.413   3.563  14.077 -0.7161 -0.2616 -0.2148
   9523SM  H15F12894   2.327   3.494  14.061 -0.6131 -0.5467  0.4698
   9523SM  H15G12895   2.371   3.663  14.103 -0.0526  0.3082 -1.2447
   9523SM  C16F12896   2.503   3.526  14.199 -0.1479  0.3082  0.1463
   9523SM  H16F12897   2.571   3.609  14.227 -1.6716  1.7903 -0.3978
   9523SM  H16G12898   2.561   3.435  14.172 -0.0620  0.4989 -0.3367
   9523SM  C17F12899   2.415   3.504  14.328 -0.1037 -0.8507  0.5921
   9523SM  H17F12900   2.330   3.433  14.316 -2.0136  1.2449  0.9882
   9523SM  H17G12901   2.370   3.601  14.358 -1.7899 -1.7418  1.0595
   9523SM  C18F12902   2.502   3.465  14.446 -0.4312 -0.4547  0.6010
   9523SM  H18F12903   2.582   3.537  14.475 -0.6675 -0.4277  1.2118
   9523SM  H18G12904   2.561   3.377  14.413  0.1739 -0.0567  0.6042
   9523SM  C19F12905   2.428   3.455  14.578  0.3384  0.6686 -0.2127
   9523SM  H19F12906   2.352   3.375  14.571  0.5017  0.2447  2.0134
   9523SM  H19G12907   2.369   3.548  14.593 -1.0805 -0.0392 -1.1793
   9523SM  C20F12908   2.513   3.422  14.705  0.0566  0.1897 -0.9732
   9523SM  H20F12909   2.589   3.500  14.727  0.4350  0.6721 -3.6078
   9523SM  H20G12910   2.572   3.331  14.678  2.0668  1.2905 -0.5094
   9523SM  C21F12911   2.412   3.396  14.822  0.5739  0.6250  0.4552
   9523SM  H21F12912   2.358   3.304  14.791 -0.8608  1.9817 -1.2250
   9523SM  H21G12913   2.335   3.475  14.818 -3.1211 -2.5622  1.9878
   9523SM  C22F12914   2.487   3.387  14.958 -0.1262 -0.2904 -0.1633
   9523SM  H22F12915   2.515   3.492  14.980  0.5920 -0.2396 -1.2092
   9523SM  H22G12916   2.579   3.326  14.971  1.2018  1.6982  0.2841
   9523SM  C23F12917   2.387   3.342  15.066 -0.1948  0.6013  0.7887
   9523SM  H23F12918   2.424   3.356  15.170  1.1701  0.3266  0.3629
   9523SM  H23G12919   2.355   3.238  15.042  2.0157  0.3093 -1.2540
   9523SM  H23H12920   2.293   3.400  15.058 -1.3779 -1.2677  0.3322
   9623SM     N12921   3.584   1.970  11.894  0.1207  0.8373 -0.9446
   9623SM   C1512922   3.697   1.962  11.793 -0.4722 -0.8410  0.0353
   9623SM  H15A12923   3.712   2.060  11.752 -0.3940 -0.9014 -0.0813
   9623SM  H15B12924   3.663   1.889  11.721  0.0517 -0.1331 -0.9332
   9623SM  H15C12925   3.785   1.940  11.851 -1.1644 -3.3696  0.2509
   9623SM   C1412926   3.455   2.014  11.828 -0.0564 -0.9910  0.9706
   9623SM  H14A12927   3.429   1.938  11.756  0.5100  0.2829 -0.6323
   9623SM  H14B12928   3.470   2.104  11.770  4.2136 -1.9255  0.3056
   9623SM  H14C12929   3.374   2.027  11.898  0.3892  0.0604  1.3144
   9623SM   C1312930   3.565   1.828  11.949 -0.2715  0.3404  0.3413
   9623SM  H13A12931   3.660   1.798  11.990  0.9855 -0.8473 -3.0960
   9623SM  H13B12932   3.525   1.770  11.868 -0.6585  0.1846  0.6384
   9623SM  H13C12933   3.483   1.823  12.019 -0.4808 -1.0356  0.0249
   9623SM   C1212934   3.629   2.071  12.009  0.5961  0.4693 -0.7085
   9623SM  H12A12935   3.619   2.165  11.958  0.7507  1.6137  1.2589
   9623SM  H12B12936   3.733   2.056  12.030  0.8122  1.4956 -0.9852
   9623SM   C1112937   3.538   2.075  12.137 -0.1302 -0.1629 -0.0306
   9623SM  H11A12938   3.604   2.123  12.213 -0.8541 -2.2251  2.0139
   9623SM  H11B12939   3.518   1.972  12.172 -0.7394  0.3877  1.3225
   9623SM     P12940   3.425   2.301  12.093 -0.0702  0.0217 -0.5157
   9623SM   O1312941   3.563   2.332  12.053  0.2856  0.0248 -0.0266
   9623SM   O1412942   3.317   2.347  11.995 -0.3299 -0.5573 -0.1271
   9623SM   O1112943   3.392   2.358  12.242 -0.2914 -0.2981  0.4216
   9623SM   O1212944   3.415   2.148  12.107  0.2606  0.4836  0.2353
   9623SM   C1S12945   3.390   2.281  12.359 -0.0101  0.4121 -0.5203
   9623SM   H1S12946   3.477   2.212  12.355 -0.3226  0.0091 -0.4172
   9623SM   H1T12947   3.305   2.210  12.357 -1.1662  1.6454  1.5765
   9623SM    NF12948   3.377   2.299  12.610  0.7482  0.4817 -0.1096
   9623SM   HNF12949   3.298   2.262  12.658  0.6886  0.3089 -0.3404
   9623SM   C2S12950   3.354   2.363  12.486  0.3697  0.4292  0.3895
   9623SM   H2S12951   3.424   2.448  12.479  0.9498 -0.1733 -2.6165
   9623SM   C3S12952   3.204   2.410  12.473  0.1446 -0.1543  0.2398
   9623SM   H3S12953   3.128   2.331  12.493 -0.9513  1.1068  1.2574
   9623SM    O312954   3.165   2.464  12.341  0.1397 -0.1186  0.0741
   9623SM   HO312955   3.238   2.437  12.285  1.2370 -1.8711  2.1715
   9623SM   C4S12956   3.161   2.497  12.586  0.2847  0.4127  0.4347
   9623SM   H4S12957   3.136   2.437  12.675 -2.0234  1.0426  0.2688
   9623SM   C5S12958   3.147   2.630  12.587 -0.7570 -0.2643  0.1405
   9623SM   H5S12959   3.185   2.687  12.502  0.6237  0.4298  1.1936
   9623SM   C6S12960   3.092   2.717  12.697  0.1592  0.2493  0.4640
   9623SM   H6S12961   3.043   2.807  12.654  0.5069  0.6244  0.8439
   9623SM   H6T12962   3.171   2.755  12.766 -0.6669  0.8804  1.0793
   9623SM   C7S12963   2.989   2.647  12.792  0.1155  0.0845  0.6723
   9623SM   H7S12964   3.038   2.567  12.851 -0.9107 -0.2295  1.1064
   9623SM   H7T12965   2.904   2.602  12.736  1.1623 -0.0789 -0.8713
   9623SM   C8S12966   2.956   2.756  12.900 -0.1859 -0.1430 -0.2457
   9623SM   H8S12967   2.930   2.852  12.851  1.6331  1.1187  1.1191
   9623SM   H8T12968   3.058   2.769  12.942 -0.2103  0.6179 -0.4136
   9623SM   C9S12969   2.851   2.716  13.004  0.1215 -0.5433  0.8643
   9623SM   H9S12970   2.855   2.606  13.018  1.7139 -1.0814 -2.6535
   9623SM   H9T12971   2.751   2.736  12.960  0.4190 -2.6287 -0.9634
   9623SM  C10S12972   2.875   2.785  13.133  0.6215  0.8379 -0.3090
   9623SM  H10S12973   2.858   2.894  13.122 -1.4355  0.7461  1.3131
   9623SM  H10T12974   2.975   2.759  13.173  0.5791  1.7692  0.4266
   9623SM  C11S12975   2.778   2.741  13.239  0.5186 -0.0291  0.0404
   9623SM  H11S12976   2.748   2.635  13.224  0.5563  0.0404 -0.5270
   9623SM  H11T12977   2.684   2.798  13.222  0.6098  0.7236  1.8171
   9623SM  C12S12978   2.829   2.778  13.384  0.4936  0.3900 -0.8034
   9623SM  H12S12979   2.861   2.884  13.387  0.1950  0.4633  1.7595
   9623SM  H12T12980   2.921   2.718  13.402  0.0711 -0.2002 -0.5644
   9623SM  C13S12981   2.723   2.758  13.490 -0.2697 -0.0438 -0.1578
   9623SM  H13S12982   2.680   2.657  13.475 -0.7702 -0.1531  1.7828
   9623SM  H13T12983   2.646   2.835  13.469 -0.5390 -0.2808 -0.0313
   9623SM  C14S12984   2.782   2.769  13.630 -0.8321  0.2276 -0.4014
   9623SM  H14S12985   2.835   2.866  13.636  1.4546 -0.9415 -0.7322
   9623SM  H14T12986   2.867   2.701  13.649 -0.9226 -0.4842 -2.3629
   9623SM  C15S12987   2.682   2.730  13.738  0.2793 -0.4363 -0.4021
   9623SM  H15S12988   2.612   2.654  13.696  0.4487 -0.6408 -0.3141
   9623SM  H15T12989   2.626   2.822  13.767 -0.7403 -1.4529  0.9787
   9623SM  C16S12990   2.739   2.673  13.866 -0.1758 -0.2814 -0.1642
   9623SM  H16S12991   2.777   2.571  13.843  0.2232  0.4198 -2.9101
   9623SM  H16T12992   2.648   2.657  13.927  0.5863 -3.0259  0.3995
   9623SM  C17S12993   2.849   2.760  13.936 -0.1835  0.5115  0.0841
   9623SM  H17S12994   2.805   2.857  13.968  0.0689  0.5221  0.4058
   9623SM  H17T12995   2.931   2.786  13.866  0.7397 -0.6282  0.7124
   9623SM  C18S12996   2.890   2.672  14.049 -0.3291 -0.3428  0.2475
   9623SM  H18S12997   2.951   2.721  14.128 -1.0185  1.1598 -0.1131
   9623SM  H18T12998   2.950   2.582  14.023  0.5608 -0.7144  3.2082
   9623SM  H18U12999   2.797   2.643  14.102 -0.3228  1.1971  1.1556
   9623SM   C1F13000   3.495   2.273  12.656  0.2286 -0.0433  0.0793
   9623SM    OF13001   3.590   2.298  12.586  0.7183  0.2173  0.1476
   9623SM   C2F13002   3.515   2.216  12.790 -0.5869  0.9457  0.2966
   9623SM   H2F13003   3.508   2.105  12.786 -0.6516  0.8553  2.0106
   9623SM   H2G13004   3.439   2.258  12.860 -2.4521 -0.0340 -1.0339
   9623SM   C3F13005   3.651   2.245  12.847  0.6457  0.8797 -0.4650
   9623SM   H3F13006   3.675   2.353  12.846  0.5666  0.9308  1.2603
   9623SM   H3G13007   3.727   2.196  12.781  0.7812 -0.1046  0.3859
   9623SM   C4F13008   3.664   2.184  12.987  0.0031  0.4123 -0.4272
   9623SM   H4F13009   3.762   2.217  13.029 -0.3589  1.2228 -0.2108
   9623SM   H4G13010   3.649   2.075  12.972 -1.2014  0.7756 -2.1722
   9623SM   C5F13011   3.549   2.229  13.081 -0.3839  0.2189  0.5377
   9623SM   H5F13012   3.469   2.160  13.047  1.0253 -1.1636 -0.1206
   9623SM   H5G13013   3.523   2.336  13.064 -3.2824 -0.6797 -1.3774
   9623SM   C6F13014   3.587   2.219  13.224 -0.2731 -0.0926 -0.6848
   9623SM   H6F13015   3.629   2.119  13.248  0.2302  0.2635 -0.0709
   9623SM   H6G13016   3.493   2.220  13.284 -1.2439 -0.2799 -2.1552
   9623SM   C7F13017   3.680   2.334  13.261  0.2284  0.0181 -0.6281
   9623SM   H7F13018   3.620   2.425  13.243  0.5317  0.3821  0.1499
   9623SM   H7G13019   3.773   2.348  13.202  0.4826  1.6447  0.1153
   9623SM   C8F13020   3.732   2.347  13.405 -0.1234 -0.6805  0.0475
   9623SM   H8F13021   3.752   2.454  13.427 -0.2117 -0.6329 -0.1060
   9623SM   H8G13022   3.828   2.292  13.414  0.6864  0.5666 -0.5764
   9623SM   C9F13023   3.643   2.288  13.510  0.4439  0.3120 -0.3999
   9623SM   H9F13024   3.614   2.183  13.489 -2.7510  1.1102 -0.4526
   9623SM   H9G13025   3.557   2.358  13.509  0.7997  0.8092  0.9581
   9623SM  C10F13026   3.702   2.285  13.653  0.4928 -0.2393  0.2366
   9623SM  H10F13027   3.756   2.383  13.659  0.9024 -0.4049 -0.6291
   9623SM  H10G13028   3.783   2.210  13.668  0.0666 -0.3833  2.1056
   9623SM  C11F13029   3.602   2.279  13.771 -0.3514  0.5195  0.6286
   9623SM  H11F13030   3.517   2.347  13.747 -0.4362 -0.0603 -0.8198
   9623SM  H11G13031   3.656   2.320  13.859  1.6073  0.1238 -0.3343
   9623SM  C12F13032   3.557   2.137  13.804 -0.7584  0.5148 -1.1710
   9623SM  H12F13033   3.648   2.077  13.828  0.9912  3.6372  0.7143
   9623SM  H12G13034   3.516   2.080  13.719  0.2298 -1.3119 -0.4846
   9623SM  C13F13035   3.462   2.129  13.928 -0.7985  0.0722 -0.7044
   9623SM  H13F13036   3.389   2.209  13.903  1.1240  1.7860 -1.0887
   9623SM  H13G13037   3.522   2.156  14.018 -1.6329  0.9832 -0.3988
   9623SM  C14F13038   3.405   1.989  13.939  0.0344 -0.7180 -0.2403
   9623SM  H14F13039   3.496   1.926  13.929  1.2558  1.0967 -1.3519
   9623SM  H14G13040   3.333   1.974  13.856 -1.1821 -1.6764  0.9395
   9623SM  C15F13041   3.340   1.974  14.076 -0.2879  0.0255 -0.6593
   9623SM  H15F13042   3.241   2.019  14.097 -0.7494 -0.9783 -0.6240
   9623SM  H15G13043   3.403   2.011  14.160 -2.0712 -1.7433  1.5866
   9623SM  C16F13044   3.331   1.826  14.096 -0.2704  0.4053  0.1510
   9623SM  H16F13045   3.424   1.769  14.070 -0.8888 -0.8340  0.5856
   9623SM  H16G13046   3.266   1.769  14.026  1.4683 -1.4592 -0.0400
   9623SM  C17F13047   3.291   1.780  14.237  0.1225 -0.7966  0.6263
   9623SM  H17F13048   3.192   1.825  14.259 -0.3356 -0.6790 -1.4226
   9623SM  H17G13049   3.366   1.805  14.315  0.4041  0.2362  0.0467
   9623SM  C18F13050   3.274   1.626  14.234  0.0432 -0.0077 -0.2252
   9623SM  H18F13051   3.370   1.572  14.220 -1.0975 -2.3785  0.6476
   9623SM  H18G13052   3.204   1.611  14.149  1.2676 -0.3990 -1.2110
   9623SM  C19F13053   3.212   1.579  14.366  0.3335 -0.1029 -0.4591
   9623SM  H19F13054   3.121   1.639  14.387  0.5302 -0.4515  1.6361
   9623SM  H19G13055   3.276   1.585  14.457  0.7116 -0.0774 -0.7251
   9623SM  C20F13056   3.172   1.432  14.352 -0.1205 -0.7962 -0.4775
   9623SM  H20F13057   3.251   1.373  14.302  0.8328 -0.0646  0.1460
   9623SM  H20G13058   3.085   1.428  14.283 -1.5236 -0.5073  1.1879
   9623SM  C21F13059   3.132   1.381  14.488 -0.0503 -0.3267  0.0860
   9623SM  H21F13060   3.074   1.286  14.476  2.5895 -1.8905 -1.2056
   9623SM  H21G13061   3.070   1.454  14.543  1.1813  0.8050  0.0034
   9623SM  C22F13062   3.244   1.349  14.597 -0.0400  0.3241  0.2029
   9623SM  H22F13063   3.204   1.357  14.701 -0.5116  1.3279 -0.0466
   9623SM  H22G13064   3.324   1.424  14.581 -0.4896  1.6584  3.3350
   9623SM  C23F13065   3.298   1.199  14.590  0.1451  0.2277 -0.2559
   9623SM  H23F13066   3.358   1.187  14.498  0.4640 -1.4128  0.1357
   9623SM  H23G13067   3.214   1.127  14.581  0.6671 -0.4853  0.4564
   9623SM  H23H13068   3.355   1.173  14.682 -1.7715 -2.1003  0.3755
   9723SM     N13069   5.179   0.227  11.666 -0.4164  0.2188 -0.5166
   9723SM   C1513070   5.211   0.085  11.680  0.1749  0.0906 -0.3714
   9723SM  H15A13071   5.235   0.036  11.587  1.4068  0.6489 -0.3679
   9723SM  H15B13072   5.122   0.036  11.718 -1.8503  1.5879 -2.8525
   9723SM  H15C13073   5.298   0.062  11.740  0.7257 -0.3517 -1.3170
   9723SM   C1413074   5.304   0.300  11.639 -0.8145 -0.4819 -0.7281
   9723SM  H14A13075   5.376   0.274  11.714  2.0199 -0.6295 -3.2758
   9723SM  H14B13076   5.287   0.407  11.641  2.0093  0.1329  3.6903
   9723SM  H14C13077   5.356   0.273  11.548  0.9416  1.3180 -0.3211
   9723SM   C1313078   5.097   0.244  11.542 -0.0255 -0.3624 -0.0359
   9723SM  H13A13079   4.998   0.200  11.547  0.0922 -0.5157  1.3912
   9723SM  H13B13080   5.154   0.203  11.461  0.7616 -0.8580  0.7498
   9723SM  H13C13081   5.083   0.348  11.517  1.0138 -0.6509 -1.9790
   9723SM   C1213082   5.111   0.286  11.796 -0.1012  0.1658 -0.4933
   9723SM  H12A13083   5.103   0.393  11.796  1.2448  0.2813 -0.1458
   9723SM  H12B13084   5.184   0.269  11.875 -2.1014  0.8638  1.6240
   9723SM   C1113085   4.979   0.220  11.836 -0.0405 -0.4588 -0.0644
   9723SM  H11A13086   4.958   0.240  11.943 -0.9021  2.1514 -0.6522
   9723SM  H11B13087   4.991   0.110  11.846 -0.7570 -0.3488  3.0694
   9723SM     P13088   4.803   0.394  11.756  0.2402 -0.0849  0.1802
   9723SM   O1313089   4.891   0.504  11.709  0.0321 -0.0909 -0.4707
   9723SM   O1413090   4.676   0.389  11.678 -0.1537 -0.1598 -0.5863
   9723SM   O1113091   4.773   0.419  11.906  0.1925  0.4913 -0.0920
   9723SM   O1213092   4.874   0.258  11.758 -0.6910  0.2084  0.7713
   9723SM   C1S13093   4.665   0.345  11.968 -0.1350 -0.5818  0.0191
   9723SM   H1S13094   4.698   0.239  11.978  0.4855 -0.2778  1.4053
   9723SM   H1T13095   4.582   0.337  11.894  2.0537 -0.3150 -2.6080
   9723SM    NF13096   4.541   0.312  12.174 -0.8387  0.7323 -0.2964
   9723SM   HNF13097   4.455   0.352  12.204 -1.8706 -2.8711  2.1343
   9723SM   C2S13098   4.626   0.404  12.105 -0.5731 -0.3446 -0.1990
   9723SM   H2S13099   4.722   0.414  12.159 -0.1042 -1.2616 -0.8432
   9723SM   C3S13100   4.573   0.550  12.087 -0.1158 -0.1691  0.0030
   9723SM   H3S13101   4.479   0.544  12.028 -0.7783  0.0202  1.0192
   9723SM    O313102   4.649   0.640  12.007 -0.3266 -0.4191  0.1475
   9723SM   HO313103   4.701   0.577  11.956 -0.2958  0.2126 -0.6267
   9723SM   C4S13104   4.536   0.607  12.218 -0.9448  0.1940 -0.4022
   9723SM   H4S13105   4.430   0.587  12.239 -1.0458  0.0312 -1.0680
   9723SM   C5S13106   4.612   0.681  12.306  0.5382 -0.4003  0.6206
   9723SM   H5S13107   4.715   0.707  12.278  0.2563 -0.9682 -1.0294
   9723SM   C6S13108   4.553   0.734  12.430 -0.6692  0.4714 -0.4494
   9723SM   H6S13109   4.445   0.719  12.451 -0.4796  1.3290  1.4316
   9723SM   H6T13110   4.567   0.844  12.425  0.6522  0.4521  1.4660
   9723SM   C7S13111   4.626   0.669  12.553 -0.4124  0.4702  0.6067
   9723SM   H7S13112   4.736   0.673  12.536 -0.5517  0.4208 -0.3893
   9723SM   H7T13113   4.612   0.559  12.559  2.0013  0.1620  2.1021
   9723SM   C8S13114   4.579   0.732  12.680 -0.0966 -0.6993  0.0816
   9723SM   H8S13115   4.469   0.718  12.684 -0.0444 -1.1261  0.0543
   9723SM   H8T13116   4.600   0.840  12.663  1.8947 -0.8152  1.4636
   9723SM   C9S13117   4.654   0.681  12.806 -0.5852 -0.2498  0.8739
   9723SM   H9S13118   4.762   0.689  12.782  0.0075 -3.0662  2.1994
   9723SM   H9T13119   4.639   0.574  12.833  0.9904 -0.2228  1.9858
   9723SM  C10S13120   4.621   0.773  12.916 -0.3968 -0.0756  0.2513
   9723SM  H10S13121   4.511   0.767  12.932 -0.4655 -2.7974 -0.7021
   9723SM  H10T13122   4.657   0.872  12.881 -0.8309 -0.6737 -2.0081
   9723SM  C11S13123   4.699   0.746  13.045  0.0910  0.7341  0.2883
   9723SM  H11S13124   4.807   0.769  13.033  0.0834 -0.2572 -2.5748
   9723SM  H11T13125   4.684   0.640  13.076  3.5691 -0.3273 -1.1852
   9723SM  C12S13126   4.640   0.834  13.152 -0.8445 -0.0142 -0.4447
   9723SM  H12S13127   4.539   0.798  13.179 -0.7948 -0.7409 -1.2049
   9723SM  H12T13128   4.634   0.941  13.123  0.9454  0.7960  1.7825
   9723SM  C13S13129   4.733   0.840  13.278  0.7080 -0.2203  0.0579
   9723SM  H13S13130   4.679   0.913  13.341 -0.5179  0.8569 -2.1135
   9723SM  H13T13131   4.833   0.878  13.247  1.5485 -1.1092  1.5303
   9723SM  C14S13132   4.753   0.701  13.343 -0.0168 -1.3339  0.1179
   9723SM  H14S13133   4.792   0.632  13.265 -0.9411 -0.8723 -0.7732
   9723SM  H14T13134   4.657   0.656  13.377 -2.8258  0.4705 -4.4053
   9723SM  C15S13135   4.849   0.704  13.457 -0.6804 -0.4720  0.2093
   9723SM  H15S13136   4.941   0.762  13.432 -2.5014  2.0445 -1.0669
   9723SM  H15T13137   4.889   0.601  13.464 -3.0676 -1.4209  0.5775
   9723SM  C16S13138   4.776   0.734  13.589  0.0492  0.0748 -0.4348
   9723SM  H16S13139   4.704   0.655  13.616  0.3596  0.3716  1.3994
   9723SM  H16T13140   4.714   0.826  13.586 -0.6332 -0.3961 -0.8771
   9723SM  C17S13141   4.880   0.761  13.704 -0.6476  0.1975  0.5451
   9723SM  H17S13142   4.926   0.857  13.673 -1.7811  0.3686 -0.7347
   9723SM  H17T13143   4.962   0.686  13.700 -0.2734  0.6395 -0.4170
   9723SM  C18S13144   4.834   0.771  13.849  0.5153  0.0059  0.1108
   9723SM  H18S13145   4.755   0.696  13.871  0.0745  0.9274  1.8525
   9723SM  H18T13146   4.794   0.874  13.860 -0.3758 -0.3759  0.5669
   9723SM  H18U13147   4.918   0.773  13.921  1.1897  0.0407 -0.6612
   9723SM   C1F13148   4.570   0.192  12.232 -0.3921  0.2318  1.0679
   9723SM    OF13149   4.678   0.136  12.212  0.1388 -0.2539 -0.2339
   9723SM   C2F13150   4.466   0.128  12.323  0.7258 -1.3866 -0.3513
   9723SM   H2F13151   4.490   0.022  12.342 -0.8153 -1.5878  0.6088
   9723SM   H2G13152   4.364   0.127  12.278 -0.8821  2.6647  2.6007
   9723SM   C3F13153   4.455   0.208  12.458 -0.7433  0.3895  0.6106
   9723SM   H3F13154   4.352   0.179  12.488 -0.5358 -0.3915  0.5873
   9723SM   H3G13155   4.444   0.315  12.430 -2.1838  0.0606 -0.1556
   9723SM   C4F13156   4.563   0.174  12.564 -0.2443  0.1694  0.0589
   9723SM   H4F13157   4.665   0.207  12.537  0.4391 -2.2862 -0.5495
   9723SM   H4G13158   4.559   0.065  12.586 -1.6374 -0.0610 -1.1632
   9723SM   C5F13159   4.531   0.233  12.700  0.0785  0.2404 -0.1462
   9723SM   H5F13160   4.437   0.186  12.736  1.1866 -0.6143  1.7967
   9723SM   H5G13161   4.504   0.340  12.690  0.2008  0.1782 -1.2279
   9723SM   C6F13162   4.640   0.210  12.804  0.7346  0.1350 -0.8980
   9723SM   H6F13163   4.726   0.276  12.781  0.7572  0.5806  0.3654
   9723SM   H6G13164   4.670   0.103  12.799  0.6023 -0.0401  1.1533
   9723SM   C7F13165   4.593   0.244  12.948 -0.2565 -0.3855  0.2266
   9723SM   H7F13166   4.504   0.183  12.974 -0.8713  0.7725  0.9254
   9723SM   H7G13167   4.552   0.347  12.939 -2.1804 -0.9315  1.9431
   9723SM   C8F13168   4.715   0.218  13.040 -0.3645 -0.3385 -0.2718
   9723SM   H8F13169   4.795   0.267  12.981 -3.0626  3.5017 -1.1302
   9723SM   H8G13170   4.743   0.111  13.049  1.4645  0.1742  0.8555
   9723SM   C9F13171   4.715   0.289  13.178 -0.6796  0.7974 -0.1287
   9723SM   H9F13172   4.746   0.394  13.159 -1.2690  1.3097  1.6122
   9723SM   H9G13173   4.792   0.245  13.244 -0.7987  3.2219  1.7459
   9723SM  C10F13174   4.581   0.285  13.249  0.8544 -0.1868  0.2184
   9723SM  H10F13175   4.545   0.181  13.252 -0.4522  0.2223 -0.5487
   9723SM  H10G13176   4.514   0.347  13.186  2.1993 -0.7603 -1.8478
   9723SM  C11F13177   4.596   0.334  13.391  0.4081 -0.3999 -0.1153
   9723SM  H11F13178   4.658   0.426  13.401  1.4116 -1.2243  1.8067
   9723SM  H11G13179   4.652   0.252  13.440  1.2503 -0.0575 -0.5000
   9723SM  C12F13180   4.462   0.334  13.458  0.0271 -0.3978 -0.1694
   9723SM  H12F13181   4.427   0.230  13.474 -0.7546  0.3112  3.4548
   9723SM  H12G13182   4.390   0.382  13.388  0.1267 -1.3976 -0.9873
   9723SM  C13F13183   4.473   0.398  13.603  0.4893  0.9587  0.3289
   9723SM  H13F13184   4.508   0.503  13.595  0.7923  0.7494 -1.6664
   9723SM  H13G13185   4.548   0.342  13.663 -1.3773 -1.8239  0.2646
   9723SM  C14F13186   4.348   0.400  13.694  0.0782  0.0956  1.2024
   9723SM  H14F13187   4.312   0.295  13.692  1.4238 -0.4127 -1.7070
   9723SM  H14G13188   4.269   0.462  13.648  0.1364 -0.8399 -0.2401
   9723SM  C15F13189   4.385   0.452  13.832 -0.3428  0.5629 -0.5337
   9723SM  H15F13190   4.409   0.561  13.826  1.2221  0.2101 -1.1886
   9723SM  H15G13191   4.474   0.402  13.878 -0.3946  0.6842 -0.2995
   9723SM  C16F13192   4.270   0.443  13.928 -0.3173  0.4246  0.1987
   9723SM  H16F13193   4.234   0.340  13.948 -0.1826  0.3699  0.1623
   9723SM  H16G13194   4.184   0.496  13.881 -1.5396  1.0714  2.9918
   9723SM  C17F13195   4.285   0.502  14.068  0.3432 -0.7095  0.0172
   9723SM  H17F13196   4.316   0.608  14.069 -0.5882 -0.3169  3.9574
   9723SM  H17G13197   4.354   0.441  14.130 -0.1573 -2.3671 -1.0043
   9723SM  C18F13198   4.145   0.515  14.130  0.1161  0.0391 -0.5418
   9723SM  H18F13199   4.112   0.411  14.153  4.1609 -1.5700 -1.0597
   9723SM  H18G13200   4.073   0.560  14.059 -0.8044  1.0874  0.9921
   9723SM  C19F13201   4.154   0.576  14.270  0.1321  0.1565  0.2912
   9723SM  H19F13202   4.246   0.551  14.328  1.8333  1.0800 -1.8801
   9723SM  H19G13203   4.067   0.552  14.335  1.1455 -0.9884  1.2895
   9723SM  C20F13204   4.157   0.731  14.261  0.3600 -0.1973 -0.5160
   9723SM  H20F13205   4.115   0.785  14.173  1.5354  0.2988 -0.7991
   9723SM  H20G13206   4.266   0.750  14.265  0.4409 -0.4712 -1.2712
   9723SM  C21F13207   4.096   0.796  14.386 -0.1309  0.1423  0.8860
   9723SM  H21F13208   3.990   0.764  14.396 -1.1859  2.5451 -1.2929
   9723SM  H21G13209   4.103   0.907  14.374 -0.6348  0.1263  0.4110
   9723SM  C22F13210   4.170   0.762  14.512 -0.4771 -0.1787  1.0330
   9723SM  H22F13211   4.275   0.795  14.506 -0.2488 -1.1175 -0.5652
   9723SM  H22G13212   4.169   0.651  14.524 -0.5504 -0.1750  1.0595
   9723SM  C23F13213   4.120   0.822  14.641 -0.0514  0.3037 -0.6176
   9723SM  H23F13214   4.149   0.928  14.631  0.6826  0.5190  2.8597
   9723SM  H23G13215   4.166   0.782  14.734 -0.4801  2.6771  0.6925
   9723SM  H23H13216   4.010   0.809  14.653  0.1532  0.8902  2.8810
   9823SM     N13217   6.593   6.173  10.900 -0.0854  0.2336  0.1920
   9823SM   C1513218   6.682   6.048  10.894  0.8236 -0.0948 -0.0304
   9823SM  H15A13219   6.777   6.068  10.848  2.3607 -3.0721  1.5315
   9823SM  H15B13220   6.632   5.976  10.831 -1.5990  1.0829  0.4128
   9823SM  H15C13221   6.693   6.001  10.991  0.6705 -2.3003 -1.0238
   9823SM   C1413222   6.570   6.220  10.763  0.1748  0.2819  0.0078
   9823SM  H14A13223   6.516   6.143  10.709 -0.0785 -1.1662  2.1938
   9823SM  H14B13224   6.663   6.242  10.714  0.6972 -0.0398  0.8335
   9823SM  H14C13225   6.503   6.304  10.759  0.3025  0.3541 -1.1032
   9823SM   C1313226   6.465   6.138  10.967 -0.3964  0.0350  0.1728
   9823SM  H13A13227   6.483   6.136  11.073 -2.0484  0.6884  0.4980
   9823SM  H13B13228   6.433   6.043  10.927 -1.1057  0.0662  0.6599
   9823SM  H13C13229   6.394   6.218  10.953 -1.2197 -1.1318 -3.3827
   9823SM   C1213230   6.654   6.288  10.984  0.3507  0.1797  0.1830
   9823SM  H12A13231   6.596   6.379  10.974  0.3612 -0.0639 -3.8643
   9823SM  H12B13232   6.750   6.305  10.938  0.3492 -1.7726 -0.6389
   9823SM   C1113233   6.686   6.270  11.135 -0.5217 -1.5138 -0.5251
   9823SM  H11A13234   6.592   6.258  11.193  0.3444 -0.5432  1.1473
   9823SM  H11B13235   6.729   6.365  11.175 -1.7587 -0.6457 -1.2217
   9823SM     P13236   6.922   6.170  11.182  0.3269 -0.1242 -0.1827
   9823SM   O1313237   6.998   6.066  11.113 -0.0620  0.1793  0.2945
   9823SM   O1413238   6.968   6.308  11.144  0.5280  0.7499  0.3755
   9823SM   O1113239   6.932   6.148  11.336 -0.0689 -0.3834  0.5026
   9823SM   O1213240   6.766   6.154  11.162 -0.1836 -0.0072  0.3391
   9823SM   C1S13241   6.823   6.161  11.426  0.0346  0.4980 -0.5674
   9823SM   H1S13242   6.749   6.081  11.402 -0.5661 -0.0096  2.5214
   9823SM   H1T13243   6.765   6.255  11.415 -0.4264  0.5572  1.8175
   9823SM    NF13244   6.768   6.159  11.665 -0.4819 -0.2530  0.0539
   9823SM   HNF13245   6.773   6.225  11.739  2.1880  3.0542 -2.7701
   9823SM   C2S13246   6.875   6.158  11.569  0.3382 -0.0990 -0.2680
   9823SM   H2S13247   6.937   6.066  11.576  0.2620 -0.2189 -1.0803
   9823SM   C3S13248   6.973   6.272  11.603 -0.1023 -0.3798 -0.3847
   9823SM   H3S13249   6.913   6.365  11.604 -1.3341 -1.1268 -1.2504
   9823SM    O313250   7.079   6.294  11.508  0.2685 -0.5893  0.1299
   9823SM   HO313251   7.046   6.227  11.448  0.7321 -2.3012  1.7020
   9823SM   C4S13252   7.050   6.246  11.728 -0.0185 -0.5311 -0.3351
   9823SM   H4S13253   7.104   6.150  11.731 -0.6040 -0.9544 -2.0509
   9823SM   C5S13254   7.061   6.328  11.836  0.5537 -0.5571  0.0321
   9823SM   H5S13255   7.005   6.423  11.833  0.6670 -0.5141 -1.2751
   9823SM   C6S13256   7.130   6.291  11.962  0.3045  0.3619 -0.1665
   9823SM   H6S13257   7.049   6.293  12.038 -0.0100 -1.6858 -0.4033
   9823SM   H6T13258   7.209   6.367  11.982 -0.7497  2.1830 -2.3973
   9823SM   C7S13259   7.191   6.151  11.993 -0.5732 -0.2638  0.4622
   9823SM   H7S13260   7.277   6.130  11.926  0.5136  1.7384  1.1343
   9823SM   H7T13261   7.106   6.081  11.982 -1.8204  0.7832  2.6191
   9823SM   C8S13262   7.243   6.127  12.137  0.3182  0.5402 -0.2035
   9823SM   H8S13263   7.322   6.205  12.149  0.2106  0.3499  2.1443
   9823SM   H8T13264   7.296   6.030  12.148  1.1293  1.1161  1.2685
   9823SM   C9S13265   7.134   6.155  12.241  0.8075  0.3844  0.2319
   9823SM   H9S13266   7.048   6.088  12.218  0.9286  0.4104 -0.3223
   9823SM   H9T13267   7.110   6.264  12.239  0.8777  0.3875 -1.0990
   9823SM  C10S13268   7.182   6.118  12.379 -0.0448 -0.0238 -0.1987
   9823SM  H10S13269   7.238   6.203  12.423  0.7086 -1.0154  0.8308
   9823SM  H10T13270   7.241   6.024  12.374  0.6695  0.4340 -0.5851
   9823SM  C11S13271   7.070   6.091  12.480  0.6320 -0.6965  0.1996
   9823SM  H11S13272   7.006   6.007  12.445 -0.4097 -1.6721  3.9805
   9823SM  H11T13273   7.000   6.177  12.485  0.3837 -0.9448  1.1202
   9823SM  C12S13274   7.125   6.063  12.627 -0.1902  0.0413 -0.0322
   9823SM  H12S13275   7.185   6.152  12.659 -1.7153  0.5063  1.6520
   9823SM  H12T13276   7.197   5.979  12.618  0.7049  0.9577 -2.3610
   9823SM  C13S13277   7.012   6.036  12.732 -0.0540 -0.3237  0.4543
   9823SM  H13S13278   6.948   5.948  12.708 -1.2884  0.0786  2.0565
   9823SM  H13T13279   6.954   6.131  12.736  0.9087  0.2806  0.1923
   9823SM  C14S13280   7.071   6.020  12.879  0.3976  0.3292  0.4473
   9823SM  H14S13281   7.128   6.113  12.899 -1.8388  2.1170 -0.9753
   9823SM  H14T13282   7.136   5.930  12.887  0.0341  0.0699  0.4718
   9823SM  C15S13283   6.944   6.020  12.969 -0.0732 -0.3227 -0.0372
   9823SM  H15S13284   6.891   5.923  12.958  0.7706 -1.3632  3.7908
   9823SM  H15T13285   6.874   6.094  12.924  0.7904 -0.2051 -1.2524
   9823SM  C16S13286   6.975   6.051  13.121  0.8834  0.5629  0.7561
   9823SM  H16S13287   7.018   5.962  13.172  0.5512  0.2951  0.5738
   9823SM  H16T13288   6.870   6.055  13.158  0.2539 -2.7479 -0.3634
   9823SM  C17S13289   7.057   6.175  13.142 -0.2986  0.2699 -0.3510
   9823SM  H17S13290   7.013   6.253  13.078 -2.3792  0.3361  1.0571
   9823SM  H17T13291   7.162   6.150  13.116 -0.3131 -1.4851  1.0647
   9823SM  C18S13292   7.072   6.212  13.292 -0.5951 -0.1063  0.1511
   9823SM  H18S13293   7.140   6.299  13.309  0.4906 -1.1337  1.2880
   9823SM  H18T13294   7.110   6.124  13.348  1.0566  0.0265 -0.7098
   9823SM  H18U13295   6.971   6.236  13.332 -1.3297 -1.6281 -0.7130
   9823SM   C1F13296   6.675   6.068  11.661 -0.3377  0.1529  0.3095
   9823SM    OF13297   6.690   5.969  11.588 -0.0605 -0.0858 -0.4867
   9823SM   C2F13298   6.546   6.090  11.747  0.7450  0.2182 -0.4471
   9823SM   H2F13299   6.496   6.178  11.701 -0.9555 -0.9264 -0.9128
   9823SM   H2G13300   6.568   6.117  11.852  1.3472  0.3025 -0.5933
   9823SM   C3F13301   6.461   5.965  11.748  0.3680  0.1564  0.1240
   9823SM   H3F13302   6.515   5.890  11.810 -0.2942 -1.3937 -1.1281
   9823SM   H3G13303   6.446   5.918  11.649  1.3370 -2.7555  1.2656
   9823SM   C4F13304   6.317   5.980  11.798  0.0606  0.3614  0.3377
   9823SM   H4F13305   6.274   5.878  11.783  1.7120 -0.1697 -1.2474
   9823SM   H4G13306   6.253   6.042  11.732 -0.5934  1.4466  1.9397
   9823SM   C5F13307   6.302   6.051  11.931  0.7057 -0.0099  0.0370
   9823SM   H5F13308   6.322   6.158  11.911  3.3625 -0.4698 -0.1380
   9823SM   H5G13309   6.382   6.017  12.000  1.9346 -0.4655 -1.5664
   9823SM   C6F13310   6.157   6.022  11.992  0.0894 -0.3495  0.6940
   9823SM   H6F13311   6.141   5.912  11.996 -1.5193 -0.1458  0.3123
   9823SM   H6G13312   6.090   6.058  11.912  1.4717 -1.8587 -1.2382
   9823SM   C7F13313   6.128   6.088  12.124 -0.1471 -0.2054  0.0558
   9823SM   H7F13314   6.023   6.061  12.145  0.0752 -1.7218 -0.5804
   9823SM   H7G13315   6.133   6.199  12.127 -0.8574 -0.1813  0.8437
   9823SM   C8F13316   6.225   6.040  12.231 -0.1894  0.2884 -0.2622
   9823SM   H8F13317   6.328   6.079  12.218  0.1117 -0.6783 -0.8296
   9823SM   H8G13318   6.235   5.930  12.239  2.2519  0.3227 -1.9963
   9823SM   C9F13319   6.169   6.068  12.374 -0.6975 -0.3521 -0.0012
   9823SM   H9F13320   6.059   6.052  12.377 -0.3912 -2.5578  0.9430
   9823SM   H9G13321   6.189   6.175  12.398 -0.7346 -0.2131 -0.5802
   9823SM  C10F13322   6.234   5.980  12.485  0.0717  0.5687 -0.1880
   9823SM  H10F13323   6.340   5.975  12.455  0.3291 -0.6310  0.8119
   9823SM  H10G13324   6.202   5.875  12.464  0.3448 -0.0114  1.9786
   9823SM  C11F13325   6.198   6.031  12.627 -0.3949  0.0883  0.4615
   9823SM  H11F13326   6.088   6.042  12.641 -0.6692  0.8303 -1.9079
   9823SM  H11G13327   6.252   6.124  12.657 -0.3443  0.4835 -0.8046
   9823SM  C12F13328   6.240   5.925  12.734  0.7858  0.0601 -0.2388
   9823SM  H12F13329   6.348   5.904  12.718  0.7801 -0.5101  0.4071
   9823SM  H12G13330   6.190   5.828  12.709  0.1868  0.4333 -0.5079
   9823SM  C13F13331   6.210   5.979  12.878 -0.3694  0.2437  0.6386
   9823SM  H13F13332   6.099   5.982  12.890 -0.6022  2.9860 -1.2329
   9823SM  H13G13333   6.259   6.078  12.883  2.1722 -0.9454  0.5789
   9823SM  C14F13334   6.268   5.891  12.991  0.0142  0.2265  0.3185
   9823SM  H14F13335   6.378   5.900  12.990 -0.0676  1.7695  1.3499
   9823SM  H14G13336   6.229   5.786  12.989  0.3124 -0.2348  5.3026
   9823SM  C15F13337   6.223   5.960  13.121  0.0516 -0.5551 -0.6605
   9823SM  H15F13338   6.113   5.969  13.127  0.2465  3.1240  0.1244
   9823SM  H15G13339   6.262   6.064  13.115  2.0584 -1.1568  1.0108
   9823SM  C16F13340   6.279   5.887  13.248  0.2465  0.1153  0.0558
   9823SM  H16F13341   6.385   5.858  13.233 -0.2068 -0.7521 -1.7723
   9823SM  H16G13342   6.225   5.790  13.247 -2.1736  1.2581  3.2406
   9823SM  C17F13343   6.258   5.966  13.369 -0.0002 -0.8772 -0.5423
   9823SM  H17F13344   6.157   6.011  13.374  0.1692  0.1465 -3.6571
   9823SM  H17G13345   6.338   6.041  13.351  0.4858 -1.5127 -1.1064
   9823SM  C18F13346   6.299   5.887  13.495 -0.2646  0.4863 -0.7196
   9823SM  H18F13347   6.393   5.832  13.474 -1.0753 -0.2821 -2.5772
   9823SM  H18G13348   6.223   5.808  13.511  0.7657 -0.8597 -2.0763
   9823SM  C19F13349   6.316   5.969  13.627 -0.5926  0.1133  0.3271
   9823SM  H19F13350   6.229   6.032  13.655  0.1041  0.6301  1.3893
   9823SM  H19G13351   6.402   6.037  13.608  0.3843 -0.0982  3.4985
   9823SM  C20F13352   6.349   5.884  13.749  0.4419 -0.1068  0.0441
   9823SM  H20F13353   6.429   5.809  13.732  0.1030 -0.5125  0.2260
   9823SM  H20G13354   6.260   5.822  13.770 -2.0144  1.7620 -3.6976
   9823SM  C21F13355   6.397   5.962  13.872 -0.6449  0.1501 -0.5861
   9823SM  H21F13356   6.471   6.037  13.837 -0.9199  0.2760 -0.9122
   9823SM  H21G13357   6.452   5.893  13.939 -0.1519  0.1844 -0.9474
   9823SM  C22F13358   6.294   6.030  13.943  0.1315 -0.2278  0.1899
   9823SM  H22F13359   6.225   5.954  13.987 -0.2295 -0.8868 -1.4477
   9823SM  H22G13360   6.229   6.093  13.880  1.0428  2.1730  1.5002
   9823SM  C23F13361   6.346   6.125  14.046 -0.0291  0.3012  0.2738
   9823SM  H23F13362   6.427   6.075  14.103 -0.1105 -0.4824 -0.2658
   9823SM  H23G13363   6.262   6.149  14.114  0.4396  3.9996 -0.2424
   9823SM  H23H13364   6.385   6.218  14.000  2.9220 -1.4045 -0.9520
   9923SM     N13365   0.981   0.008  11.498 -0.3970  0.0426  0.0154
   9923SM   C1513366   1.074  -0.104  11.465 -0.2704 -0.8199 -0.2020
   9923SM  H15A13367   1.115  -0.098  11.365 -3.3129 -2.1052 -1.6448
   9923SM  H15B13368   1.020  -0.198  11.469 -3.0663  0.6835 -0.5250
   9923SM  H15C13369   1.152  -0.114  11.539  0.7986 -1.3410 -1.3385
   9923SM   C1413370   1.067   0.133  11.484 -0.3884  0.7864  0.0185
   9923SM  H14A13371   1.075   0.150  11.377  0.8063  0.0289 -0.0418
   9923SM  H14B13372   1.170   0.126  11.518 -0.8272  2.3189  1.8109
   9923SM  H14C13373   1.034   0.224  11.531  1.5932  1.5235  0.1084
   9923SM   C1313374   0.869   0.011  11.403  0.2940 -0.1120  0.6273
   9923SM  H13A13375   0.805   0.098  11.411 -1.2298 -0.8446 -2.1025
   9923SM  H13B13376   0.803  -0.070  11.432  1.7867 -2.1052 -1.1778
   9923SM  H13C13377   0.893  -0.020  11.302  1.3053  0.0477  0.8090
   9923SM   C1213378   0.931   0.001  11.641 -0.6118 -0.5745 -0.0599
   9923SM  H12A13379   1.019  -0.011  11.702 -0.1502  1.2263 -0.2916
   9923SM  H12B13380   0.880  -0.090  11.666  0.1768 -0.5124  1.9823
   9923SM   C1113381   0.857   0.119  11.711  0.5743  0.2306  0.4312
   9923SM  H11A13382   0.948   0.175  11.741  2.2673 -1.9127 -0.4657
   9923SM  H11B13383   0.805   0.089  11.804  1.5610 -0.9253  0.6308
   9923SM     P13384   0.773   0.350  11.625  0.1243  0.1610 -0.0134
   9923SM   O1313385   0.886   0.391  11.540  0.5006 -0.4735 -0.2851
   9923SM   O1413386   0.638   0.406  11.598 -0.2355  0.2998 -0.0889
   9923SM   O1113387   0.819   0.365  11.773  0.3456 -0.2655  0.2682
   9923SM   O1213388   0.766   0.194  11.625 -0.3796 -0.2400  0.6482
   9923SM   C1S13389   0.724   0.380  11.881  0.3062 -0.2805 -0.3270
   9923SM   H1S13390   0.653   0.295  11.874  0.0863  0.0141 -2.1973
   9923SM   H1T13391   0.672   0.478  11.883  0.2767 -0.2836  1.8746
   9923SM    NF13392   0.689   0.416  12.116 -0.1970  0.1409 -0.1510
   9923SM   HNF13393   0.719   0.485  12.182  1.4073 -1.5165  0.9482
   9923SM   C2S13394   0.788   0.375  12.021  0.2078  0.1080 -0.2995
   9923SM   H2S13395   0.812   0.270  12.046  0.8264 -0.1417 -1.8078
   9923SM   C3S13396   0.913   0.461  12.027 -1.0265 -0.0710 -0.2145
   9923SM   H3S13397   0.874   0.564  12.013 -2.1772  0.1251  3.3941
   9923SM    O313398   1.007   0.445  11.919 -0.9149  0.4303  0.1583
   9923SM   HO313399   0.958   0.395  11.854 -0.7132  1.4997 -0.8466
   9923SM   C4S13400   0.974   0.471  12.162 -0.3899 -0.1438 -0.3543
   9923SM   H4S13401   0.956   0.566  12.214 -1.9560 -1.5814  1.9056
   9923SM   C5S13402   1.065   0.387  12.219 -0.0212  0.5311 -0.0911
   9923SM   H5S13403   1.110   0.314  12.150  4.2308  2.1530  0.6917
   9923SM   C6S13404   1.139   0.421  12.351  0.5698 -0.0661  0.3071
   9923SM   H6S13405   1.200   0.332  12.376  1.3432  0.2121 -0.5197
   9923SM   H6T13406   1.062   0.433  12.430 -2.4537  3.3153 -2.7272
   9923SM   C7S13407   1.223   0.548  12.342  0.1849  0.6534 -0.0291
   9923SM   H7S13408   1.171   0.627  12.284 -0.5229  0.0151 -0.2863
   9923SM   H7T13409   1.304   0.508  12.276 -1.2742 -1.8781 -0.4313
   9923SM   C8S13410   1.273   0.608  12.474  0.6236  0.4827 -0.0246
   9923SM   H8S13411   1.189   0.653  12.532 -0.6706 -2.6941  0.7911
   9923SM   H8T13412   1.354   0.677  12.445 -0.4477  1.9863  0.4227
   9923SM   C9S13413   1.318   0.507  12.585 -0.0013  0.6016  0.0677
   9923SM   H9S13414   1.400   0.440  12.553 -2.0377 -2.1451  0.2596
   9923SM   H9T13415   1.232   0.440  12.606  0.3249  0.8025  2.2036
   9923SM  C10S13416   1.358   0.575  12.713 -0.0101 -0.0130  0.9589
   9923SM  H10S13417   1.272   0.627  12.762 -0.4621 -0.2962  0.4751
   9923SM  H10T13418   1.447   0.638  12.696  0.9516 -1.3693  0.7978
   9923SM  C11S13419   1.380   0.475  12.828  0.0291 -0.5712  0.2996
   9923SM  H11S13420   1.472   0.417  12.805 -0.9886 -2.3382  0.5333
   9923SM  H11T13421   1.296   0.404  12.841 -0.4364  0.1957  1.7524
   9923SM  C12S13422   1.388   0.534  12.962 -0.3561 -1.2784 -0.1348
   9923SM  H12S13423   1.285   0.566  12.992 -0.1697 -0.5235 -0.2683
   9923SM  H12T13424   1.450   0.625  12.948 -0.4664 -1.0068  1.0355
   9923SM  C13S13425   1.450   0.443  13.060  0.4842  0.2739  0.1612
   9923SM  H13S13426   1.554   0.413  13.034  0.7969  1.5781 -0.1533
   9923SM  H13T13427   1.377   0.360  13.068  0.1554  0.6056  0.6893
   9923SM  C14S13428   1.444   0.510  13.202  0.0245 -0.0165 -0.7309
   9923SM  H14S13429   1.341   0.540  13.233  0.6306  0.1163  1.2102
   9923SM  H14T13430   1.490   0.611  13.199 -1.6682  0.8456  0.4368
   9923SM  C15S13431   1.532   0.429  13.292 -0.3283 -0.5192 -0.4194
   9923SM  H15S13432   1.622   0.403  13.231  0.3889 -1.3551  0.9464
   9923SM  H15T13433   1.496   0.330  13.329  0.4837 -0.2128  1.2834
   9923SM  C16S13434   1.579   0.504  13.418 -0.8833  0.2774  0.3144
   9923SM  H16S13435   1.645   0.591  13.399  2.6028 -2.0235  0.9611
   9923SM  H16T13436   1.643   0.439  13.482 -2.2736 -2.6161 -1.0329
   9923SM  C17S13437   1.461   0.542  13.507 -0.0035  0.0095 -0.7930
   9923SM  H17S13438   1.396   0.461  13.546  0.4671  0.2478  0.5339
   9923SM  H17T13439   1.380   0.595  13.453 -0.7977  1.1494  1.4251
   9923SM  C18S13440   1.509   0.623  13.628 -0.8420 -0.0612 -0.5629
   9923SM  H18S13441   1.515   0.730  13.600 -1.2807 -0.3915 -2.0200
   9923SM  H18T13442   1.609   0.587  13.658 -0.4986 -0.0591 -1.6596
   9923SM  H18U13443   1.444   0.607  13.717 -0.6609 -0.0110 -0.4235
   9923SM   C1F13444   0.569   0.356  12.136  0.2462 -0.1982  0.6442
   9923SM    OF13445   0.549   0.240  12.103 -0.1280 -0.4160  0.4856
   9923SM   C2F13446   0.458   0.435  12.197 -0.2817  1.0872  0.1669
   9923SM   H2F13447   0.384   0.476  12.125 -1.6651  1.2861  1.6587
   9923SM   H2G13448   0.511   0.518  12.248 -1.0826  1.5031  0.3263
   9923SM   C3F13449   0.377   0.360  12.306 -1.0442 -0.4919  0.1688
   9923SM   H3F13450   0.338   0.261  12.274  0.9531 -1.4302  0.4924
   9923SM   H3G13451   0.288   0.421  12.333  0.2981  1.7718 -0.2959
   9923SM   C4F13452   0.453   0.348  12.436 -0.1864  0.4448  0.1326
   9923SM   H4F13453   0.368   0.344  12.508 -0.8362  2.3664 -0.4728
   9923SM   H4G13454   0.506   0.443  12.459 -0.3048  0.3869  0.6796
   9923SM   C5F13455   0.536   0.218  12.453  0.6142 -0.2581 -0.1481
   9923SM   H5F13456   0.624   0.240  12.389  0.1470  2.8560  0.1511
   9923SM   H5G13457   0.488   0.136  12.395  0.7922 -0.6981  0.3207
   9923SM   C6F13458   0.563   0.179  12.603  0.0110  0.2081  0.8555
   9923SM   H6F13459   0.622   0.085  12.600  0.7622  0.7034 -1.0073
   9923SM   H6G13460   0.465   0.169  12.656 -0.4777  0.2484 -0.0223
   9923SM   C7F13461   0.632   0.280  12.691  0.0875  0.6623  0.1455
   9923SM   H7F13462   0.597   0.385  12.677 -0.6937  0.9588  3.4428
   9923SM   H7G13463   0.741   0.272  12.668  0.1903 -1.1911  1.0980
   9923SM   C8F13464   0.611   0.251  12.840 -0.4240 -0.5166 -0.2489
   9923SM   H8F13465   0.641   0.149  12.873 -2.1014 -0.9604 -0.0266
   9923SM   H8G13466   0.503   0.243  12.863 -0.0443 -3.0185  0.9997
   9923SM   C9F13467   0.687   0.359  12.928  0.0050  1.0152 -0.5104
   9923SM   H9F13468   0.633   0.454  12.908 -2.9370 -0.8192 -1.9799
   9923SM   H9G13469   0.792   0.362  12.891 -0.5377  0.1898 -2.2410
   9923SM  C10F13470   0.668   0.326  13.082 -0.4416  0.4486  0.9278
   9923SM  H10F13471   0.577   0.263  13.093 -0.6594  0.3781 -0.9900
   9923SM  H10G13472   0.645   0.416  13.143  1.2325  1.6335 -0.1360
   9923SM  C11F13473   0.796   0.260  13.138  0.1568  0.1641 -0.2649
   9923SM  H11F13474   0.874   0.326  13.096 -0.5039  0.7214 -0.6340
   9923SM  H11G13475   0.815   0.161  13.091  1.3835  0.2334  0.0611
   9923SM  C12F13476   0.801   0.259  13.289  0.0878 -0.1608  0.0547
   9923SM  H12F13477   0.785   0.362  13.327  0.3315  0.0971 -0.5237
   9923SM  H12G13478   0.900   0.217  13.318 -0.2306  0.0523  1.5230
   9923SM  C13F13479   0.699   0.164  13.353  0.9763 -0.0809 -0.0614
   9923SM  H13F13480   0.696   0.076  13.284 -1.0851 -0.3977  0.3677
   9923SM  H13G13481   0.602   0.219  13.353  2.5878  2.9342  0.5555
   9923SM  C14F13482   0.746   0.116  13.492 -0.0467  0.2405  0.1628
   9923SM  H14F13483   0.848   0.074  13.478 -0.3798 -0.3729 -0.5310
   9923SM  H14G13484   0.672   0.048  13.538 -1.6632  0.5391 -1.8433
   9923SM  C15F13485   0.761   0.236  13.590 -0.7364  0.1250  0.0322
   9923SM  H15F13486   0.655   0.262  13.612 -0.7756  2.1421 -2.1185
   9923SM  H15G13487   0.807   0.328  13.548  0.7552 -0.4846  0.2731
   9923SM  C16F13488   0.854   0.202  13.711 -0.8739  0.5329 -0.1246
   9923SM  H16F13489   0.865   0.301  13.761 -0.6487  0.0583  0.7792
   9923SM  H16G13490   0.950   0.160  13.675 -1.5109 -1.4728  0.3848
   9923SM  C17F13491   0.798   0.102  13.813 -0.7516 -0.9570 -0.3565
   9923SM  H17F13492   0.736   0.032  13.754 -1.7211  0.0107 -0.5110
   9923SM  H17G13493   0.726   0.149  13.883 -0.1807 -2.3461  1.2346
   9923SM  C18F13494   0.908   0.014  13.883 -0.2472 -0.8607 -0.7062
   9923SM  H18F13495   0.957   0.076  13.961 -0.7511 -1.6690  0.2896
   9923SM  H18G13496   0.976  -0.025  13.805  1.2331 -1.0466  0.6415
   9923SM  C19F13497   0.849  -0.103  13.962 -0.2187 -0.4248 -0.0326
   9923SM  H19F13498   0.751  -0.075  14.005 -0.3832  0.9901 -1.2584
   9923SM  H19G13499   0.914  -0.139  14.044 -1.7799 -0.4232  1.2506
   9923SM  C20F13500   0.824  -0.228  13.871  0.5477  0.8961 -0.3295
   9923SM  H20F13501   0.914  -0.246  13.808 -0.0549  0.5009 -1.0907
   9923SM  H20G13502   0.747  -0.210  13.794 -1.4563 -0.4310  1.2658
   9923SM  C21F13503   0.777  -0.351  13.962 -0.0290 -0.8814 -0.1740
   9923SM  H21F13504   0.690  -0.336  14.029  0.0092  0.8604 -0.4646
   9923SM  H21G13505   0.855  -0.365  14.039 -1.0358 -0.2587  0.9857
   9923SM  C22F13506   0.766  -0.486  13.885 -0.9501 -0.4879 -0.1271
   9923SM  H22F13507   0.669  -0.481  13.832 -0.4297  1.6310 -0.9741
   9923SM  H22G13508   0.783  -0.564  13.963  1.0212  1.3627  1.4060
   9923SM  C23F13509   0.869  -0.511  13.771 -1.0322 -0.2021  0.3524
   9923SM  H23F13510   0.860  -0.617  13.740  0.4842  0.2989 -2.1232
   9923SM  H23G13511   0.971  -0.500  13.815 -0.7317  0.4810 -0.4693
   9923SM  H23H13512   0.857  -0.443  13.684 -0.3810  0.3183  0.6551
  10023SM     N13513   1.100   0.929  11.676  0.3171 -0.3451 -0.3603
  10023SM   C1513514   1.016   1.019  11.594 -0.5123  0.2246  0.5995
  10023SM  H15A13515   0.974   1.109  11.637 -2.1626 -1.0068  1.7104
  10023SM  H15B13516   0.931   0.966  11.554 -0.0046 -0.1197 -0.0456
  10023SM  H15C13517   1.070   1.053  11.507  0.7125 -0.9906  0.8510
  10023SM   C1413518   1.159   0.823  11.591  0.1142  0.1775 -0.4371
  10023SM  H14A13519   1.082   0.755  11.557 -0.2128  0.3930 -0.1370
  10023SM  H14B13520   1.234   0.776  11.652 -0.8392  0.2963  0.8858
  10023SM  H14C13521   1.204   0.853  11.498 -0.5046 -1.2485 -1.2352
  10023SM   C1313522   1.202   1.015  11.739  0.3091  1.0129 -0.3767
  10023SM  H13A13523   1.269   1.056  11.665  0.8590 -0.4833 -0.7441
  10023SM  H13B13524   1.271   0.954  11.795 -1.8524  0.3458  1.7082
  10023SM  H13C13525   1.155   1.082  11.810 -0.4199 -0.1508  0.2741
  10023SM   C1213526   1.024   0.862  11.792  0.3418  0.1374  0.5283
  10023SM  H12A13527   0.980   0.936  11.858  1.5672  0.4182  1.0730
  10023SM  H12B13528   1.097   0.812  11.855 -1.9438 -3.4352  0.6036
  10023SM   C1113529   0.919   0.749  11.771  0.1712  0.1398 -0.0186
  10023SM  H11A13530   0.900   0.708  11.872  0.0915  0.7236  0.2066
  10023SM  H11B13531   0.971   0.674  11.708 -1.7806  0.0828 -1.6791
  10023SM     P13532   0.687   0.866  11.791 -0.3621 -0.0988  0.2416
  10023SM   O1313533   0.671   1.001  11.732 -0.0253  0.6373  0.2800
  10023SM   O1413534   0.566   0.777  11.803 -0.0503 -0.0018 -0.0416
  10023SM   O1113535   0.751   0.881  11.938 -0.2104 -0.1904 -0.1829
  10023SM   O1213536   0.799   0.785  11.710  0.4184  0.0986 -0.2510
  10023SM   C1S13537   0.688   0.864  12.062  0.5116 -0.9533  0.2057
  10023SM   H1S13538   0.651   0.760  12.074 -1.4455 -0.1306  1.7758
  10023SM   H1T13539   0.609   0.938  12.085  1.9231  0.5720  0.3030
  10023SM    NF13540   0.742   0.871  12.310  0.1629 -0.8217  0.6026
  10023SM   HNF13541   0.706   0.946  12.364  0.3246 -1.5128  1.6926
  10023SM   C2S13542   0.792   0.904  12.177 -0.7147 -0.3045  0.5356
  10023SM   H2S13543   0.875   0.836  12.149 -0.0637 -0.5064  2.7796
  10023SM   C3S13544   0.856   1.045  12.155 -0.0831 -0.1971 -0.3364
  10023SM   H3S13545   0.777   1.123  12.166  0.0777 -0.1256  0.3871
  10023SM    O313546   0.907   1.064  12.026  0.0902 -0.0319 -0.7133
  10023SM   HO313547   0.863   0.992  11.981  1.6991 -1.2727 -0.3863
  10023SM   C4S13548   0.960   1.068  12.262 -0.1695  0.0398  0.5024
  10023SM   H4S13549   0.914   1.074  12.361 -2.3106  0.8481 -0.4753
  10023SM   C5S13550   1.099   1.080  12.271  0.2882 -0.6661  0.1865
  10023SM   H5S13551   1.156   1.089  12.177  2.1036 -1.5609  1.1601
  10023SM   C6S13552   1.176   1.119  12.391  0.3228  0.2151 -0.2036
  10023SM   H6S13553   1.168   1.229  12.395 -0.7971  0.2992 -2.8971
  10023SM   H6T13554   1.283   1.097  12.375  1.2217  3.5723  0.4725
  10023SM   C7S13555   1.137   1.062  12.529  0.1413  0.0411 -0.6031
  10023SM   H7S13556   1.139   0.951  12.538  1.1890  0.1870  1.8987
  10023SM   H7T13557   1.036   1.101  12.551  1.0023  1.1500  1.7087
  10023SM   C8S13558   1.217   1.121  12.644 -0.8415 -0.5510 -0.2882
  10023SM   H8S13559   1.188   1.227  12.664 -1.2837 -0.6739 -0.2680
  10023SM   H8T13560   1.324   1.123  12.614 -0.9312 -1.7124 -0.7124
  10023SM   C9S13561   1.212   1.044  12.779  0.3353  0.0032 -0.0891
  10023SM   H9S13562   1.253   0.943  12.759  3.8613  1.4130 -0.6017
  10023SM   H9T13563   1.105   1.035  12.808 -1.1084  0.7116 -4.4723
  10023SM  C10S13564   1.285   1.116  12.891  0.3763  0.0998  0.3721
  10023SM  H10S13565   1.285   1.227  12.882 -1.8332  0.0483 -1.1904
  10023SM  H10T13566   1.394   1.095  12.891  1.2306  3.7773 -0.7168
  10023SM  C11S13567   1.240   1.087  13.035  0.5871 -0.0542 -0.3852
  10023SM  H11S13568   1.130   1.101  13.036  0.5578 -0.2350 -0.8955
  10023SM  H11T13569   1.287   1.152  13.112  0.1390 -0.5491  0.3316
  10023SM  C12S13570   1.276   0.944  13.097 -0.5836  0.0278 -0.4015
  10023SM  H12S13571   1.381   0.915  13.077 -0.5398 -0.4738  0.5202
  10023SM  H12T13572   1.224   0.864  13.039  1.2093 -1.1506 -0.4544
  10023SM  C13S13573   1.238   0.918  13.247  0.6714  0.4105  0.5432
  10023SM  H13S13574   1.254   0.811  13.273 -2.0100 -0.9180 -2.5669
  10023SM  H13T13575   1.128   0.907  13.254  0.7479 -3.9974 -1.5368
  10023SM  C14S13576   1.296   1.022  13.347 -0.4558 -0.0135  0.2286
  10023SM  H14S13577   1.223   1.104  13.356 -0.4277  0.0678 -0.2618
  10023SM  H14T13578   1.396   1.048  13.306 -0.3930 -0.1914  0.2674
  10023SM  C15S13579   1.318   0.965  13.487 -0.5380 -0.2252  0.0432
  10023SM  H15S13580   1.396   1.028  13.535 -1.1879 -0.0629  0.9155
  10023SM  H15T13581   1.361   0.863  13.493 -1.2075 -0.4749  0.7769
  10023SM  C16S13582   1.188   0.968  13.576  0.1232 -0.0160  0.1049
  10023SM  H16S13583   1.108   0.913  13.523 -0.3797  1.1816 -0.4197
  10023SM  H16T13584   1.141   1.069  13.578 -0.7472 -0.3025 -2.5332
  10023SM  C17S13585   1.213   0.912  13.714 -0.3489  0.3009  0.6820
  10023SM  H17S13586   1.286   0.832  13.692 -0.6176  0.3984 -0.6854
  10023SM  H17T13587   1.121   0.865  13.753 -0.2604 -0.7528 -0.3392
  10023SM  C18S13588   1.276   1.010  13.808  0.2076  0.1528  0.1578
  10023SM  H18S13589   1.276   0.979  13.915 -1.4704 -2.2505 -0.4567
  10023SM  H18T13590   1.222   1.107  13.806 -0.3955 -0.1657  0.7698
  10023SM  H18U13591   1.378   1.022  13.766  0.2964  1.1325  0.6241
  10023SM   C1F13592   0.722   0.746  12.353 -0.6657  0.2982  0.7389
  10023SM    OF13593   0.754   0.653  12.281  0.1690 -0.3193  0.0596
  10023SM   C2F13594   0.666   0.734  12.496  0.0206 -0.3078  0.2240
  10023SM   H2F13595   0.557   0.716  12.487  0.0078 -0.5148  0.7651
  10023SM   H2G13596   0.685   0.826  12.555 -0.9179 -0.2012  0.3793
  10023SM   C3F13597   0.737   0.617  12.566 -0.6772 -0.8871  0.5593
  10023SM   H3F13598   0.710   0.525  12.510  0.2594  0.5299 -2.4365
  10023SM   H3G13599   0.695   0.627  12.669 -0.5664  1.7221  0.4139
  10023SM   C4F13600   0.888   0.639  12.581 -0.6320 -0.4254  0.1260
  10023SM   H4F13601   0.918   0.746  12.588  0.5236 -0.8176  1.8660
  10023SM   H4G13602   0.949   0.592  12.501 -1.7470 -3.3425  0.8806
  10023SM   C5F13603   0.931   0.569  12.710 -0.5677  0.1137  0.3610
  10023SM   H5F13604   1.039   0.545  12.700 -0.3099  1.8681 -1.6851
  10023SM   H5G13605   0.884   0.468  12.707  1.1036 -0.6806 -0.6684
  10023SM   C6F13606   0.897   0.649  12.833  0.6524 -0.0134  0.4168
  10023SM   H6F13607   0.786   0.647  12.838  0.6623  0.3885  0.8033
  10023SM   H6G13608   0.929   0.754  12.813  0.8708 -0.0151  0.7435
  10023SM   C7F13609   0.969   0.589  12.950  0.1234  0.1308  0.5615
  10023SM   H7F13610   1.077   0.610  12.939 -0.2860  1.3248 -1.5994
  10023SM   H7G13611   0.950   0.479  12.945  0.4480  0.1431 -2.0804
  10023SM   C8F13612   0.912   0.634  13.090  0.2682 -0.2517  0.3459
  10023SM   H8F13613   0.806   0.602  13.096 -0.0561  0.3769 -1.3849
  10023SM   H8G13614   0.907   0.745  13.083 -0.4454 -0.2037  1.5023
  10023SM   C9F13615   1.000   0.593  13.199 -0.3095  0.2048 -0.6447
  10023SM   H9F13616   1.104   0.623  13.177 -0.2187  0.8127  0.5437
  10023SM   H9G13617   1.002   0.482  13.207  0.4525  0.0792 -2.1363
  10023SM  C10F13618   0.966   0.643  13.345  0.0496 -0.1381  0.0378
  10023SM  H10F13619   0.860   0.610  13.352 -0.2529  1.0898  1.8850
  10023SM  H10G13620   0.958   0.753  13.339  0.2925 -0.2071 -3.7962
  10023SM  C11F13621   1.062   0.601  13.449  0.6288  0.6177  0.4851
  10023SM  H11F13622   1.161   0.652  13.452  0.4660  1.1852 -1.7640
  10023SM  H11G13623   1.081   0.496  13.419 -2.2450  0.0567  0.3567
  10023SM  C12F13624   1.006   0.597  13.588 -0.3758  0.0404  0.1028
  10023SM  H12F13625   0.896   0.579  13.597 -0.1488 -0.5889  2.1357
  10023SM  H12G13626   1.024   0.700  13.624  1.9522  0.7303 -2.7168
  10023SM  C13F13627   1.095   0.510  13.677 -0.4687  0.1393  0.1260
  10023SM  H13F13628   1.200   0.545  13.673 -0.2027 -0.6368  0.0479
  10023SM  H13G13629   1.094   0.403  13.647 -1.3487  0.8224 -2.5588
  10023SM  C14F13630   1.051   0.526  13.830  1.2586  0.0034  0.1649
  10023SM  H14F13631   0.941   0.506  13.829  1.2385  0.1156  0.0781
  10023SM  H14G13632   1.077   0.628  13.867  1.3118  0.4332 -1.0045
  10023SM  C15F13633   1.123   0.418  13.912  0.6423  0.4648  0.3098
  10023SM  H15F13634   1.225   0.401  13.870  0.9402 -1.0421  1.5771
  10023SM  H15G13635   1.072   0.320  13.900  1.2913 -0.1154  1.9968
  10023SM  C16F13636   1.144   0.454  14.059 -0.7942  0.0030 -0.0970
  10023SM  H16F13637   1.176   0.369  14.123 -2.3603  0.6978  1.7214
  10023SM  H16G13638   1.049   0.477  14.112 -0.8679  1.5451 -0.8467
  10023SM  C17F13639   1.248   0.568  14.077  0.1380  0.6854  0.4677
  10023SM  H17F13640   1.189   0.662  14.070  0.1763  0.8261  1.8634
  10023SM  H17G13641   1.311   0.560  13.986 -1.8329  3.1740 -1.2424
  10023SM  C18F13642   1.326   0.571  14.215  0.1820  0.4246  0.4185
  10023SM  H18F13643   1.393   0.484  14.232  2.4601  2.0674  0.2817
  10023SM  H18G13644   1.256   0.591  14.298  0.3827  2.5169  0.1339
  10023SM  C19F13645   1.428   0.675  14.223 -0.4114 -0.2213 -0.7821
  10023SM  H19F13646   1.523   0.642  14.177  0.8107  0.2277  1.3081
  10023SM  H19G13647   1.454   0.691  14.330 -2.0727  0.1931 -0.4174
  10023SM  C20F13648   1.393   0.812  14.167  0.1495 -0.0093  0.5594
  10023SM  H20F13649   1.288   0.847  14.178 -0.9439 -0.8595 -4.5318
  10023SM  H20G13650   1.402   0.797  14.057 -2.0798 -1.4604  0.5200
  10023SM  C21F13651   1.495   0.922  14.205 -0.0329 -0.8564  0.0131
  10023SM  H21F13652   1.602   0.899  14.184 -0.4876 -1.0844 -2.2520
  10023SM  H21G13653   1.480   0.941  14.314 -0.2567 -0.1216 -0.1452
  10023SM  C22F13654   1.460   1.053  14.129 -0.3700 -0.6422 -0.3336
  10023SM  H22F13655   1.354   1.084  14.144 -0.5271 -1.2656 -0.1214
  10023SM  H22G13656   1.464   1.036  14.020  1.2968  2.0753 -0.7815
  10023SM  C23F13657   1.551   1.174  14.163 -0.3805 -0.0929  1.0497
  10023SM  H23F13658   1.658   1.147  14.152 -0.5852 -0.3566 -0.6442
  10023SM  H23G13659   1.536   1.210  14.267  1.7895  0.9575  1.0488
  10023SM  H23H13660   1.514   1.263  14.108 -2.4979 -1.5647 -0.0502
  101CHL1    C313661   3.364   4.446  16.423 -0.3534  0.2254 -0.2977
  101CHL1    H313662   3.351   4.550  16.388  0.6278  0.2990 -0.4563
  101CHL1    O313663   3.331   4.442  16.562  0.1830 -0.5785 -0.0114
  101CHL1   H3'13664   3.334   4.347  16.574 -0.3685 -0.5874  0.0806
  101CHL1    C413665   3.268   4.351  16.347 -0.1733 -0.2424  0.2102
  101CHL1   H4A13666   3.277   4.251  16.395  1.9640  1.0153  2.7342
  101CHL1   H4B13667   3.167   4.393  16.365 -0.6112 -0.7832 -0.9595
  101CHL1    C513668   3.312   4.354  16.199  0.4680  0.3458 -0.8348
  101CHL1    C613669   3.224   4.404  16.108 -0.6183  0.2627 -0.0406
  101CHL1    H613670   3.127   4.444  16.141 -0.2931  0.5955  0.5303
  101CHL1    C713671   3.255   4.423  15.957 -0.6186  0.6973  0.5713
  101CHL1   H7A13672   3.168   4.394  15.895 -0.2029  1.5241 -0.4299
  101CHL1   H7B13673   3.269   4.532  15.940 -2.5247  0.6280 -2.0381
  101CHL1    C813674   3.379   4.343  15.915 -0.0415  0.1596 -0.2135
  101CHL1    H813675   3.353   4.236  15.903 -1.3876  0.5363 -0.7961
  101CHL1   C1413676   3.422   4.393  15.778  0.6924 -0.0847  0.2847
  101CHL1   H1413677   3.436   4.502  15.793  0.0714  0.1422 -0.7142
  101CHL1   C1513678   3.318   4.384  15.669 -0.7878 -0.0358  0.0305
  101CHL1  H15A13679   3.270   4.285  15.657  1.8187 -1.6556  1.7743
  101CHL1  H15B13680   3.252   4.471  15.685 -1.8725 -1.0337  1.1786
  101CHL1   C1613681   3.408   4.406  15.543  0.0381  0.1291 -0.0777
  101CHL1  H16A13682   3.396   4.316  15.479 -3.3364  0.6253 -0.3096
  101CHL1  H16B13683   3.390   4.502  15.491  1.7096  2.4369  3.2066
  101CHL1   C1713684   3.557   4.404  15.584  0.4371  0.5139  0.1759
  101CHL1   H1713685   3.588   4.509  15.603  2.0160 -0.1030  1.2053
  101CHL1   C1313686   3.550   4.340  15.730 -0.6346  0.6049 -0.2037
  101CHL1   C1813687   3.545   4.188  15.699 -0.6182  0.7304  0.5042
  101CHL1  H18A13688   3.525   4.134  15.794 -0.8235 -0.8967 -0.4207
  101CHL1  H18B13689   3.473   4.160  15.618  0.2911 -1.4840  0.3928
  101CHL1  H18C13690   3.642   4.152  15.658 -0.7793  1.2887 -0.3894
  101CHL1   C1213691   3.663   4.385  15.831  0.3817  0.1245 -0.0876
  101CHL1  H12A13692   3.760   4.335  15.810  0.7384  0.4379  0.7693
  101CHL1  H12B13693   3.675   4.495  15.828  1.5601  0.0269  0.4583
  101CHL1   C1113694   3.634   4.330  15.973  0.8097  0.0620  0.2361
  101CHL1  H11A13695   3.639   4.219  15.971 -1.9452 -0.1544 -2.5239
  101CHL1  H11B13696   3.713   4.366  16.041  1.8550 -1.5389 -0.0788
  101CHL1    C913697   3.493   4.370  16.018  0.4570 -0.2185  0.2287
  101CHL1    H913698   3.505   4.480  16.029 -0.1207 -0.3280  2.5189
  101CHL1   C1013699   3.458   4.322  16.162 -0.5260 -0.4465  0.0673
  101CHL1   C1913700   3.469   4.163  16.174  0.0711 -0.2787 -0.8288
  101CHL1  H19A13701   3.389   4.113  16.116 -0.9515 -0.4186  0.6281
  101CHL1  H19B13702   3.571   4.125  16.155 -0.3426 -2.5745  1.1730
  101CHL1  H19C13703   3.438   4.129  16.275 -1.1612 -0.1530 -1.1448
  101CHL1    C113704   3.558   4.391  16.259 -0.0095 -0.1173  0.4597
  101CHL1   H1A13705   3.654   4.334  16.261  0.3443  0.3691 -1.1628
  101CHL1   H1B13706   3.566   4.498  16.234 -1.5847  0.2523  1.4029
  101CHL1    C213707   3.513   4.392  16.409  0.0572 -0.3052  1.2323
  101CHL1   H2A13708   3.587   4.453  16.465  1.5708 -1.4159  0.5135
  101CHL1   H2B13709   3.516   4.288  16.448 -0.4240 -1.3825 -1.4279
  101CHL1   C2013710   3.654   4.359  15.474  0.0493  1.1069  0.5399
  101CHL1   H2013711   3.648   4.249  15.456 -0.8397  1.0402  1.1799
  101CHL1   C2113712   3.796   4.405  15.521  0.1585  0.2630  0.6493
  101CHL1  H21A13713   3.868   4.384  15.439 -0.0521 -0.2441  0.5894
  101CHL1  H21B13714   3.829   4.344  15.608  0.5274  0.0128  0.3346
  101CHL1  H21C13715   3.788   4.514  15.545 -0.0354  0.4908 -0.4281
  101CHL1   C2213716   3.627   4.429  15.339 -0.0445 -0.3640 -0.1660
  101CHL1  H22A13717   3.520   4.435  15.313  0.0848 -0.2949 -0.7055
  101CHL1  H22B13718   3.671   4.531  15.346 -0.3415 -0.2189 -0.4391
  101CHL1   C2313719   3.691   4.356  15.218  0.2898 -0.7700  0.6415
  101CHL1  H23A13720   3.801   4.342  15.220  0.4934  0.5742  3.6264
  101CHL1  H23B13721   3.649   4.254  15.213 -1.5065 -0.0401 -0.0890
  101CHL1   C2413722   3.656   4.450  15.095  0.8121 -0.6947  0.1998
  101CHL1  H24A13723   3.548   4.454  15.071  1.4283  1.0335 -2.9286
  101CHL1  H24B13724   3.684   4.557  15.108  1.2506 -0.5390 -1.7283
  101CHL1   C2513725   3.739   4.419  14.973  0.6393  0.0782  0.2420
  101CHL1   H2513726   3.840   4.413  15.020  0.6134  0.5484  0.3543
  101CHL1   C2613727   3.716   4.282  14.914 -0.0906  0.0971  0.6765
  101CHL1  H26A13728   3.746   4.202  14.985 -0.7301 -0.4717  0.3257
  101CHL1  H26B13729   3.610   4.257  14.890  0.3973  1.0363 -2.8391
  101CHL1  H26C13730   3.772   4.265  14.820  0.2887 -0.8222  1.0538
  101CHL1   C2713731   3.738   4.528  14.866  0.2532  0.1873  0.4322
  101CHL1  H27A13732   3.637   4.540  14.820  0.0871 -2.1129  0.0809
  101CHL1  H27B13733   3.762   4.628  14.907 -1.0604  0.8240 -0.2859
  101CHL1  H27C13734   3.813   4.516  14.785 -0.6172 -0.5440 -0.2905
  102CHL1    C313735   2.210   4.517  15.973 -0.0136  0.4107  0.0240
  102CHL1    H313736   2.312   4.496  15.935 -0.2937  1.5843 -1.4933
  102CHL1    O313737   2.203   4.477  16.109  0.2958  0.1465 -0.5059
  102CHL1   H3'13738   2.112   4.466  16.137  0.1152  2.1472 -0.1816
  102CHL1    C413739   2.177   4.665  15.961 -0.6088  0.2814 -0.4044
  102CHL1   H4A13740   2.085   4.681  16.022  0.3443 -1.2062  1.5196
  102CHL1   H4B13741   2.250   4.718  16.024 -1.0284  0.0705  0.2679
  102CHL1    C513742   2.177   4.713  15.817  0.2477  0.2031 -0.2851
  102CHL1    C613743   2.251   4.817  15.775  0.1169  0.4275 -0.0845
  102CHL1    H613744   2.313   4.875  15.845  0.8048  1.6863 -1.6928
  102CHL1    C713745   2.256   4.870  15.636  0.6839 -0.2408  0.7485
  102CHL1   H7A13746   2.258   4.980  15.630  0.3813 -0.2856 -0.4293
  102CHL1   H7B13747   2.345   4.828  15.584  0.6788 -0.8124  1.1827
  102CHL1    C813748   2.143   4.802  15.545 -0.1233  0.5408  0.7338
  102CHL1    H813749   2.046   4.855  15.559  0.2105  0.5889  3.3385
  102CHL1   C1413750   2.189   4.818  15.399  0.0022 -0.1747  0.6166
  102CHL1   H1413751   2.274   4.747  15.389  0.8581  0.9370 -0.2114
  102CHL1   C1513752   2.236   4.953  15.346 -0.3081 -0.1310 -0.2398
  102CHL1  H15A13753   2.177   5.041  15.380  1.0205 -0.4567  3.3188
  102CHL1  H15B13754   2.341   4.969  15.379 -0.9461  1.6704  1.0670
  102CHL1   C1613755   2.227   4.952  15.191 -0.1833  0.0673  0.0840
  102CHL1  H16A13756   2.147   5.023  15.159 -0.7616 -1.1003 -1.1549
  102CHL1  H16B13757   2.324   4.964  15.138  0.0846 -1.5160  0.1958
  102CHL1   C1713758   2.168   4.812  15.160 -0.1168 -0.0233  0.6932
  102CHL1   H1713759   2.245   4.732  15.154 -0.0973 -0.0044  0.6891
  102CHL1   C1313760   2.094   4.772  15.288 -0.2524 -0.2062 -0.1753
  102CHL1   C1813761   1.953   4.836  15.308  0.1893 -0.2463  0.6298
  102CHL1  H18A13762   1.958   4.947  15.297 -3.0935 -0.0398  0.3682
  102CHL1  H18B13763   1.873   4.801  15.239  0.2601  0.5370  0.1370
  102CHL1  H18C13764   1.906   4.810  15.405 -1.7329 -0.9524 -0.4361
  102CHL1   C1213765   2.076   4.618  15.317 -0.9408  0.3985 -0.5562
  102CHL1  H12A13766   1.999   4.567  15.256 -0.8527 -1.0173  0.4836
  102CHL1  H12B13767   2.163   4.552  15.300 -2.3085 -2.0830  1.3430
  102CHL1   C1113768   2.034   4.585  15.464 -0.7049  0.1289 -0.1876
  102CHL1  H11A13769   1.925   4.606  15.474 -0.0733  3.1439  1.7355
  102CHL1  H11B13770   2.038   4.474  15.471 -1.1612  0.1568  0.6916
  102CHL1    C913771   2.124   4.656  15.576  0.3782 -0.4275 -1.0914
  102CHL1    H913772   2.226   4.613  15.578  0.6377  0.1459  0.9728
  102CHL1   C1013773   2.087   4.633  15.726 -0.1156 -0.5460 -0.2326
  102CHL1   C1913774   1.943   4.674  15.757 -0.5653 -0.0355 -0.3005
  102CHL1  H19A13775   1.870   4.619  15.694 -2.0085  1.4960 -0.0024
  102CHL1  H19B13776   1.920   4.636  15.859 -1.0397  0.0606 -0.3722
  102CHL1  H19C13777   1.925   4.783  15.755 -0.3127  0.0016 -0.6477
  102CHL1    C113778   2.110   4.484  15.752 -0.2462  0.5395  0.8815
  102CHL1   H1A13779   2.036   4.414  15.707  0.8306 -1.0244  1.4670
  102CHL1   H1B13780   2.209   4.449  15.714 -1.2230  0.0537 -1.4215
  102CHL1    C213781   2.112   4.437  15.892  0.1205 -0.8888 -0.1018
  102CHL1   H2A13782   2.137   4.329  15.889 -1.5460 -1.2810 -0.8633
  102CHL1   H2B13783   2.013   4.442  15.942  0.1050  2.1632 -0.2820
  102CHL1   C2013784   2.083   4.805  15.026 -1.1382 -0.4391 -0.1414
  102CHL1   H2013785   1.999   4.876  15.039 -1.1510  0.3241 -3.4784
  102CHL1   C2113786   2.053   4.661  14.995  0.1539 -0.0722 -0.0129
  102CHL1  H21A13787   1.973   4.621  15.062  0.1531 -1.0312 -0.5669
  102CHL1  H21B13788   2.144   4.598  14.996  1.5911  1.8917 -0.2477
  102CHL1  H21C13789   2.019   4.651  14.890  1.4280 -1.0707 -0.3452
  102CHL1   C2213790   2.159   4.877  14.905 -0.6302  0.0494 -0.5298
  102CHL1  H22A13791   2.084   4.899  14.827 -0.8807  1.8694  0.1800
  102CHL1  H22B13792   2.191   4.978  14.938  0.8572 -0.8312  0.8650
  102CHL1   C2313793   2.278   4.802  14.843 -0.0871 -0.4703 -0.2626
  102CHL1  H23A13794   2.341   4.785  14.934 -1.4501  2.7438  1.4712
  102CHL1  H23B13795   2.260   4.701  14.801  0.4121 -0.8405  0.3792
  102CHL1   C2413796   2.356   4.899  14.751  0.3022  0.0027 -0.6676
  102CHL1  H24A13797   2.284   4.930  14.672  0.7283  1.8570 -0.3847
  102CHL1  H24B13798   2.392   4.992  14.799 -2.0805  0.8830 -0.4611
  102CHL1   C2513799   2.475   4.822  14.679 -0.0600  0.2673 -0.0268
  102CHL1   H2513800   2.436   4.725  14.643  0.1248 -0.2434  1.1048
  102CHL1   C2613801   2.528   4.913  14.562 -0.6108  0.1725 -0.4230
  102CHL1  H26A13802   2.448   4.922  14.485 -0.8945 -1.4878 -0.3668
  102CHL1  H26B13803   2.568   5.013  14.589  0.0621  0.0255 -0.8590
  102CHL1  H26C13804   2.605   4.853  14.510  0.0898  1.9776 -1.5390
  102CHL1   C2713805   2.587   4.803  14.775 -0.1156 -0.3962 -0.5579
  102CHL1  H27A13806   2.678   4.752  14.736  0.2044 -1.2476  1.1940
  102CHL1  H27B13807   2.612   4.902  14.821 -0.9508 -0.6438  0.4644
  102CHL1  H27C13808   2.558   4.739  14.861 -2.4449  1.6510  0.3067
  103CHL1    C313809   2.043   2.933  16.239 -0.1784  0.4298  0.6277
  103CHL1    H313810   1.964   2.861  16.208 -1.8648  2.6482 -0.6355
  103CHL1    O313811   2.044   2.948  16.377  0.3065 -0.8411 -0.0020
  103CHL1   H3'13812   1.951   2.966  16.397  0.1776  0.5752 -1.6216
  103CHL1    C413813   2.183   2.886  16.200 -0.3777  0.0147 -0.8297
  103CHL1   H4A13814   2.253   2.967  16.230 -0.7276  0.8810 -2.2735
  103CHL1   H4B13815   2.215   2.791  16.248  2.1551  0.5495 -1.2989
  103CHL1    C513816   2.185   2.877  16.048 -0.5201 -0.1551  0.3978
  103CHL1    C613817   2.205   2.756  15.994  0.9579  0.5765  0.4768
  103CHL1    H613818   2.219   2.670  16.061  0.8058 -0.5347 -0.8988
  103CHL1    C713819   2.225   2.736  15.842  0.7179 -0.3063  0.3769
  103CHL1   H7A13820   2.315   2.671  15.832  1.6210  0.8114  0.9092
  103CHL1   H7B13821   2.139   2.683  15.797 -0.4589  2.6839 -1.1785
  103CHL1    C813822   2.228   2.865  15.762  0.3777 -0.4333 -0.4544
  103CHL1    H813823   2.330   2.905  15.782 -0.8763  1.7812  2.0709
  103CHL1   C1413824   2.187   2.854  15.624 -0.3700 -0.9472 -1.0072
  103CHL1   H1413825   2.079   2.826  15.630 -1.0277  1.4436 -0.4940
  103CHL1   C1513826   2.251   2.744  15.548 -0.1706  0.1746 -0.3497
  103CHL1  H15A13827   2.361   2.759  15.556 -0.4489  1.4513  1.8014
  103CHL1  H15B13828   2.235   2.638  15.578 -1.4050 -0.2035 -2.1764
  103CHL1   C1613829   2.222   2.773  15.406 -0.4293 -0.6297  0.1245
  103CHL1  H16A13830   2.314   2.784  15.345  0.4157 -2.2088  1.0380
  103CHL1  H16B13831   2.158   2.695  15.359 -0.0486 -1.2175  0.5570
  103CHL1   C1713832   2.166   2.916  15.399  0.0188  0.2191 -0.2068
  103CHL1   H1713833   2.055   2.907  15.409 -0.2155  1.8014 -1.1028
  103CHL1   C1313834   2.193   2.982  15.537 -0.3637 -0.4632 -0.4808
  103CHL1   C1813835   2.342   3.039  15.529  0.4585 -0.1147 -0.6092
  103CHL1  H18A13836   2.373   3.071  15.630 -1.7205  0.5311 -0.0867
  103CHL1  H18B13837   2.410   2.958  15.494  2.7250  1.3598  0.1679
  103CHL1  H18C13838   2.360   3.128  15.464  0.0080  1.9940  1.9533
  103CHL1   C1213839   2.089   3.074  15.593 -0.5216 -0.0868 -0.1323
  103CHL1  H12A13840   2.084   3.177  15.550 -1.5019  0.0521  0.2999
  103CHL1  H12B13841   1.991   3.025  15.579  0.5026 -1.8660 -1.5171
  103CHL1   C1113842   2.123   3.100  15.741  0.0865 -0.2133  0.2659
  103CHL1  H11A13843   2.221   3.150  15.740  0.1673 -0.3134  1.6001
  103CHL1  H11B13844   2.057   3.176  15.788  2.8488  1.6324  1.3748
  103CHL1    C913845   2.132   2.967  15.820  0.0086 -0.2101  0.1618
  103CHL1    H913846   2.033   2.915  15.813  0.2320 -0.5883 -0.2894
  103CHL1   C1013847   2.148   2.998  15.976 -0.1578 -0.1655 -0.4405
  103CHL1   C1913848   2.267   3.096  15.995 -0.5371 -0.0308 -0.1197
  103CHL1  H19A13849   2.252   3.196  15.948  3.7226  0.6825 -0.3240
  103CHL1  H19B13850   2.287   3.128  16.099  1.6488 -0.4400 -0.3775
  103CHL1  H19C13851   2.363   3.055  15.958  0.0846 -1.2158  2.5714
  103CHL1    C113852   2.015   3.057  16.021 -0.5320  0.1895  1.0233
  103CHL1   H1A13853   2.005   3.162  15.987  1.8313  0.3375  0.5728
  103CHL1   H1B13854   1.920   3.004  15.998 -1.6033  3.2641 -2.8258
  103CHL1    C213855   2.015   3.070  16.175  0.1209 -0.2318  0.3270
  103CHL1   H2A13856   1.919   3.113  16.211 -0.6548 -0.2321 -1.5909
  103CHL1   H2B13857   2.090   3.144  16.208  1.1018 -1.5077  1.0459
  103CHL1   C2013858   2.190   2.992  15.266 -0.4767  0.0562 -0.4914
  103CHL1   H2013859   2.296   3.026  15.262 -0.3366 -0.1469  0.9096
  103CHL1   C2113860   2.128   3.140  15.272  0.1237  0.4696  0.2398
  103CHL1  H21A13861   2.018   3.126  15.269  0.0324  1.0897  0.5536
  103CHL1  H21B13862   2.155   3.202  15.183  2.3095 -1.9850 -0.9345
  103CHL1  H21C13863   2.166   3.196  15.360 -1.1350  1.7145  0.0381
  103CHL1   C2213864   2.148   2.913  15.143 -0.2596  0.0105  0.0408
  103CHL1  H22A13865   2.184   2.808  15.141  1.1716  0.4788 -0.0999
  103CHL1  H22B13866   2.038   2.915  15.127 -0.3974 -1.2318  0.7146
  103CHL1   C2313867   2.208   2.964  15.012  0.0738  1.1100 -0.4407
  103CHL1  H23A13868   2.169   3.067  14.998  0.0535  0.7328 -3.8733
  103CHL1  H23B13869   2.318   2.953  15.020 -0.3008 -3.4079  2.7094
  103CHL1   C2413870   2.152   2.881  14.900 -0.1890  0.3689 -0.1481
  103CHL1  H24A13871   2.189   2.776  14.909  1.6824  0.9321 -0.8366
  103CHL1  H24B13872   2.042   2.870  14.901 -0.0764 -1.2237 -1.1532
  103CHL1   C2513873   2.192   2.931  14.765 -0.1056  0.4889 -0.2619
  103CHL1   H2513874   2.302   2.943  14.759 -0.2402  1.3295 -1.4729
  103CHL1   C2613875   2.141   2.831  14.664 -0.0521 -0.5259 -0.6316
  103CHL1  H26A13876   2.176   2.866  14.565 -0.3267  2.0657  0.0970
  103CHL1  H26B13877   2.181   2.733  14.697  2.0860  0.3622 -0.3762
  103CHL1  H26C13878   2.031   2.842  14.663  0.0099  0.1009 -1.2421
  103CHL1   C2713879   2.142   3.076  14.744  0.6045 -0.1413 -0.6860
  103CHL1  H27A13880   2.186   3.122  14.653  1.8669  1.2691  0.5798
  103CHL1  H27B13881   2.032   3.082  14.743  0.4716 -1.8569 -0.4922
  103CHL1  H27C13882   2.178   3.135  14.831 -2.3302 -0.4752  0.8667
  104CHL1    C313883   6.129   6.556  16.050  0.1593  0.2878 -0.2846
  104CHL1    H313884   6.109   6.660  16.018  0.1481  0.6129  0.7272
  104CHL1    O313885   6.129   6.555  16.194  0.1848 -0.5682 -0.5145
  104CHL1   H3'13886   6.138   6.462  16.216  0.5885 -1.0342 -2.4140
  104CHL1    C413887   6.033   6.452  15.995 -0.8888 -0.7130 -0.5262
  104CHL1   H4A13888   6.066   6.355  16.036  0.2884 -0.3471 -0.5841
  104CHL1   H4B13889   5.934   6.481  16.037 -0.1422 -1.9948  2.3752
  104CHL1    C513890   6.043   6.450  15.842  0.6072 -0.2977  1.0706
  104CHL1    C613891   5.935   6.458  15.764 -0.3740 -0.5389 -0.0930
  104CHL1    H613892   5.837   6.469  15.813 -0.1595 -0.5537  0.3423
  104CHL1    C713893   5.938   6.441  15.622  0.0243 -1.0477  0.5322
  104CHL1   H7A13894   5.856   6.371  15.594 -2.4054  1.6578  0.3827
  104CHL1   H7B13895   5.909   6.535  15.571  0.6591 -1.7581 -1.2124
  104CHL1    C813896   6.072   6.403  15.566 -0.5893 -0.0826  0.0733
  104CHL1    H813897   6.086   6.293  15.575  0.7408 -0.0216 -0.9964
  104CHL1   C1413898   6.075   6.439  15.415  0.4970  0.0728  0.5332
  104CHL1   H1413899   6.073   6.549  15.427 -1.4732  0.1282  0.0084
  104CHL1   C1513900   5.955   6.402  15.325 -0.1697  0.3444  0.2646
  104CHL1  H15A13901   5.912   6.303  15.350 -1.5410  0.1073 -2.6564
  104CHL1  H15B13902   5.879   6.483  15.333 -0.4248  0.2234 -0.8144
  104CHL1   C1613903   6.005   6.422  15.174  0.1715  0.2024  0.4933
  104CHL1  H16A13904   5.986   6.324  15.126  1.1489 -0.0464  0.5930
  104CHL1  H16B13905   5.952   6.503  15.119  0.0395 -0.8992 -1.0691
  104CHL1   C1713906   6.160   6.452  15.199  0.1116 -0.7594  0.7104
  104CHL1   H1713907   6.164   6.562  15.207  3.7979 -0.7544  0.3800
  104CHL1   C1313908   6.191   6.394  15.335 -0.1913  0.1917  0.2181
  104CHL1   C1813909   6.201   6.236  15.327 -0.1281 -0.8881  0.7270
  104CHL1  H18A13910   6.297   6.202  15.284 -0.2749  0.5606 -0.8881
  104CHL1  H18B13911   6.177   6.196  15.428 -0.2694 -0.3096  0.9284
  104CHL1  H18C13912   6.123   6.202  15.255  0.5625  0.5979 -0.8152
  104CHL1   C1213913   6.310   6.455  15.413  0.6517  0.7338  0.7437
  104CHL1  H12A13914   6.400   6.409  15.366 -0.4387  0.1494 -0.8653
  104CHL1  H12B13915   6.330   6.563  15.396  0.8770  0.4438 -0.9868
  104CHL1   C1113916   6.319   6.412  15.560 -1.2024  0.0582 -0.0142
  104CHL1  H11A13917   6.316   6.301  15.569 -2.1943 -0.0671 -1.5113
  104CHL1  H11B13918   6.418   6.441  15.602  0.3609  0.6289 -3.7420
  104CHL1    C913919   6.194   6.464  15.641  0.2661 -0.4468 -0.0845
  104CHL1    H913920   6.183   6.574  15.629  1.2368 -0.2746  0.5321
  104CHL1   C1013921   6.185   6.434  15.791 -0.4611  0.4676  0.3161
  104CHL1   C1913922   6.243   6.290  15.826  0.1093  0.0412 -0.2613
  104CHL1  H19A13923   6.348   6.281  15.791 -0.1013 -1.9583 -0.4538
  104CHL1  H19B13924   6.237   6.289  15.937 -1.4410  1.4192 -0.2813
  104CHL1  H19C13925   6.178   6.206  15.793  1.3280 -1.9621  2.1155
  104CHL1    C113926   6.277   6.543  15.854 -0.4433  0.3060 -0.3198
  104CHL1   H1A13927   6.380   6.518  15.819 -0.8722 -2.4942  0.1413
  104CHL1   H1B13928   6.250   6.643  15.814 -1.6131  0.2881  0.3747
  104CHL1    C213929   6.274   6.544  16.007 -0.2294  0.1259  0.5024
  104CHL1   H2A13930   6.328   6.634  16.043  1.7239  0.1733 -2.2245
  104CHL1   H2B13931   6.328   6.454  16.045 -0.4564  0.0388  0.6176
  104CHL1   C2013932   6.248   6.404  15.083 -0.5111  0.4001  0.2608
  104CHL1   H2013933   6.241   6.293  15.087 -1.2092  0.4702  1.3318
  104CHL1   C2113934   6.393   6.452  15.098 -0.0920  0.0548  0.4552
  104CHL1  H21A13935   6.397   6.563  15.098  1.0456  0.0513 -1.2430
  104CHL1  H21B13936   6.455   6.424  15.010  0.8049  0.3360  0.9782
  104CHL1  H21C13937   6.449   6.419  15.189  1.8661 -1.1701 -1.1247
  104CHL1   C2213938   6.196   6.444  14.941 -0.1475 -0.0413 -0.3014
  104CHL1  H22A13939   6.088   6.418  14.932  0.3637 -1.8266 -1.7752
  104CHL1  H22B13940   6.206   6.554  14.946  0.2808 -0.1161  0.8686
  104CHL1   C2313941   6.252   6.375  14.820 -0.0687 -0.0063  0.4359
  104CHL1  H23A13942   6.356   6.411  14.803 -0.1218  0.3862  0.9167
  104CHL1  H23B13943   6.264   6.264  14.827 -0.6999 -0.2244 -1.4909
  104CHL1   C2413944   6.189   6.425  14.686  0.7799  0.3518  0.2347
  104CHL1  H24A13945   6.078   6.423  14.685  0.7903 -1.1696 -1.0183
  104CHL1  H24B13946   6.223   6.529  14.667  0.3358  0.7504  1.4975
  104CHL1   C2513947   6.229   6.334  14.572  0.1269 -0.0637 -0.3722
  104CHL1   H2513948   6.204   6.230  14.602  0.5597 -0.2360 -0.5833
  104CHL1   C2613949   6.151   6.369  14.450  0.2094 -0.3148  0.0285
  104CHL1  H26A13950   6.178   6.473  14.419 -0.8333  0.1970  0.7999
  104CHL1  H26B13951   6.183   6.301  14.368 -1.2543 -0.6422 -0.2861
  104CHL1  H26C13952   6.043   6.364  14.472 -0.1494 -1.0703 -1.7059
  104CHL1   C2713953   6.381   6.299  14.542  0.5121 -0.1210 -0.5295
  104CHL1  H27A13954   6.394   6.220  14.465  5.9602  0.0860 -0.2006
  104CHL1  H27B13955   6.421   6.387  14.489 -1.5125  1.1187 -0.1008
  104CHL1  H27C13956   6.445   6.284  14.632 -1.2218 -1.2884  0.5769
  105CHL1    C313957   5.197   3.479  16.035 -0.1594  0.0920 -0.4445
  105CHL1    H313958   5.163   3.373  16.027 -0.1076  0.0996 -0.7734
  105CHL1    O313959   5.186   3.519  16.177  0.0829 -0.3800 -0.2454
  105CHL1   H3'13960   5.096   3.489  16.193  1.1709 -4.3596 -0.5715
  105CHL1    C413961   5.347   3.473  15.984 -0.0482 -0.3495 -0.0917
  105CHL1   H4A13962   5.383   3.577  16.000 -0.9176 -0.1904  0.9645
  105CHL1   H4B13963   5.402   3.405  16.053  2.6449  0.6273 -1.1676
  105CHL1    C513964   5.363   3.438  15.836 -0.5861 -0.3391 -0.5913
  105CHL1    C613965   5.446   3.332  15.805 -0.4339 -0.0365  0.0569
  105CHL1    H613966   5.505   3.279  15.881  1.8544  1.4108 -0.6083
  105CHL1    C713967   5.484   3.307  15.657 -0.5332  0.8928 -0.9508
  105CHL1   H7A13968   5.593   3.290  15.645 -0.6607 -0.6432 -0.1198
  105CHL1   H7B13969   5.432   3.218  15.616 -0.4595  0.5915 -0.3898
  105CHL1    C813970   5.435   3.414  15.553  0.1486  0.0839 -0.0913
  105CHL1    H813971   5.509   3.497  15.549  1.2740 -0.8892  0.2067
  105CHL1   C1413972   5.429   3.370  15.411 -0.0586 -0.3010 -0.0933
  105CHL1   H1413973   5.355   3.288  15.414  0.0985 -0.4221  1.8341
  105CHL1   C1513974   5.556   3.310  15.352  0.5245 -0.1247 -0.4827
  105CHL1  H15A13975   5.633   3.389  15.365  0.2166  0.2225 -0.7478
  105CHL1  H15B13976   5.577   3.209  15.393 -0.4988 -0.2483 -0.2470
  105CHL1   C1613977   5.522   3.301  15.202 -0.5140  0.1328  0.0977
  105CHL1  H16A13978   5.611   3.352  15.158 -0.9741  2.3331  1.5542
  105CHL1  H16B13979   5.525   3.193  15.173 -2.3368 -0.1691  0.8869
  105CHL1   C1713980   5.392   3.374  15.178 -0.4515  0.7120 -0.5834
  105CHL1   H1713981   5.306   3.305  15.188  1.5256 -1.7621  0.3217
  105CHL1   C1313982   5.377   3.463  15.303 -0.2493 -0.2958 -1.3573
  105CHL1   C1813983   5.459   3.597  15.285  0.2242 -0.7665 -0.0828
  105CHL1  H18A13984   5.418   3.669  15.211  1.4309 -0.0959 -0.1250
  105CHL1  H18B13985   5.462   3.658  15.378 -0.3585  0.7104 -0.9932
  105CHL1  H18C13986   5.563   3.578  15.252 -0.6343 -1.7442 -2.4789
  105CHL1   C1213987   5.234   3.480  15.345  0.0931 -0.1623 -0.0062
  105CHL1  H12A13988   5.175   3.540  15.272  1.3627 -0.6604 -1.4921
  105CHL1  H12B13989   5.175   3.387  15.361 -0.6968  0.3086 -0.1436
  105CHL1   C1113990   5.230   3.551  15.481 -0.2782 -0.2623  0.3064
  105CHL1  H11A13991   5.269   3.654  15.467  0.7565 -0.6845 -0.0719
  105CHL1  H11B13992   5.122   3.562  15.501 -1.0081 -1.7967 -2.3028
  105CHL1    C913993   5.297   3.471  15.599 -0.2042  0.0583  0.0847
  105CHL1    H913994   5.232   3.381  15.600 -0.5879  0.3332  1.8184
  105CHL1   C1013995   5.287   3.533  15.737 -0.7301 -0.2881  0.7404
  105CHL1   C1913996   5.350   3.670  15.738 -0.2663 -0.2062 -0.0163
  105CHL1  H19A13997   5.347   3.728  15.833  0.9753 -0.8997  0.4686
  105CHL1  H19B13998   5.458   3.667  15.709 -0.5252  0.1162 -1.0398
  105CHL1  H19C13999   5.288   3.734  15.672 -0.6575  0.7554  1.2525
  105CHL1    C114000   5.140   3.531  15.784  0.0065 -0.6486  0.0997
  105CHL1   H1A14001   5.075   3.607  15.736 -0.5130 -1.1251  0.0371
  105CHL1   H1B14002   5.099   3.429  15.769 -0.4766 -0.6226  1.1308
  105CHL1    C214003   5.113   3.570  15.942  0.3208 -0.2769  0.3320
  105CHL1   H2A14004   5.007   3.555  15.972  1.1925 -0.4709  3.8445
  105CHL1   H2B14005   5.151   3.670  15.973 -0.1324  0.0198 -0.0570
  105CHL1   C2014006   5.380   3.443  15.042 -0.0996  1.0062 -0.0077
  105CHL1   H2014007   5.462   3.518  15.036  1.2575  0.0786  4.0576
  105CHL1   C2114008   5.246   3.513  15.029 -0.1070  0.1344 -0.2370
  105CHL1  H21A14009   5.170   3.439  15.063  1.0303 -0.3514  1.3273
  105CHL1  H21B14010   5.228   3.546  14.924  1.2970  1.0478 -0.2130
  105CHL1  H21C14011   5.239   3.604  15.092 -0.3596  1.0253 -1.4973
  105CHL1   C2214012   5.407   3.344  14.927 -0.4164 -0.0837  0.5494
  105CHL1  H22A14013   5.493   3.279  14.953  1.1662  1.6713 -0.0089
  105CHL1  H22B14014   5.316   3.281  14.916 -0.3125 -0.3612  1.2443
  105CHL1   C2314015   5.427   3.407  14.789  0.7716  0.6469  0.2778
  105CHL1  H23A14016   5.325   3.434  14.755  1.4263  0.9836 -1.5353
  105CHL1  H23B14017   5.472   3.508  14.790 -1.4443  1.6858  0.4417
  105CHL1   C2414018   5.495   3.319  14.685 -0.8317  0.2132 -0.0721
  105CHL1  H24A14019   5.587   3.273  14.728 -0.0295  0.6352 -1.2647
  105CHL1  H24B14020   5.424   3.239  14.654  1.3617 -1.7379 -0.4137
  105CHL1   C2514021   5.534   3.393  14.555 -0.1955  0.4710 -0.2027
  105CHL1   H2514022   5.614   3.464  14.584 -1.7191  0.9064  3.4511
  105CHL1   C2614023   5.598   3.305  14.447  0.7826 -0.2615 -0.4595
  105CHL1  H26A14024   5.682   3.257  14.503  0.0645  0.7919  1.6205
  105CHL1  H26B14025   5.522   3.236  14.404  1.5967 -2.0038  0.7425
  105CHL1  H26C14026   5.645   3.366  14.368  0.4639 -1.6714 -1.7831
  105CHL1   C2714027   5.414   3.475  14.490 -0.4136 -0.5572 -0.1291
  105CHL1  H27A14028   5.336   3.397  14.473 -0.0622 -0.7005 -1.1124
  105CHL1  H27B14029   5.383   3.554  14.561  2.5817  0.1223  0.5576
  105CHL1  H27C14030   5.433   3.523  14.392 -1.9344 -1.4261 -0.8854
  106CHL1    C314031   0.914   3.713  16.268 -0.1110  0.2954 -0.2148
  106CHL1    H314032   0.874   3.611  16.254  0.3648  0.1504 -0.5420
  106CHL1    O314033   0.900   3.744  16.410  0.2349 -0.5970  0.0169
  106CHL1   H3'14034   0.911   3.839  16.418 -0.8413 -0.5989  1.8546
  106CHL1    C414035   1.058   3.701  16.224  0.5675 -0.1700 -0.4658
  106CHL1   H4A14036   1.121   3.787  16.256  0.1745  0.0159 -0.1901
  106CHL1   H4B14037   1.113   3.624  16.283  3.8358  1.3357 -1.2881
  106CHL1    C514038   1.067   3.678  16.069  0.6511 -0.5034 -0.1821
  106CHL1    C614039   1.126   3.565  16.024  0.1716 -0.3729 -0.5689
  106CHL1    H614040   1.167   3.495  16.098  0.4550 -0.3789 -0.7309
  106CHL1    C714041   1.130   3.527  15.878 -0.3657  0.0003 -0.6909
  106CHL1   H7A14042   1.231   3.492  15.845  0.3040  1.0668  0.1677
  106CHL1   H7B14043   1.045   3.457  15.863 -0.6137  0.4009 -1.1510
  106CHL1    C814044   1.101   3.650  15.785 -0.1109 -0.1307  0.5538
  106CHL1    H814045   1.189   3.716  15.776 -0.5530  0.3321 -0.5800
  106CHL1   C1414046   1.064   3.602  15.645 -0.8161  0.8499  0.2640
  106CHL1   H1414047   0.973   3.538  15.650 -0.0207 -0.3674 -0.4202
  106CHL1   C1514048   1.168   3.506  15.590 -0.3258  0.7888 -0.7279
  106CHL1  H15A14049   1.267   3.556  15.597 -0.2780  0.5418  0.7139
  106CHL1  H15B14050   1.176   3.409  15.644 -0.9181  0.3028 -1.4771
  106CHL1   C1614051   1.121   3.486  15.441 -0.4645  0.2945 -0.4306
  106CHL1  H16A14052   1.212   3.486  15.376 -0.4584  0.7150 -0.4288
  106CHL1  H16B14053   1.054   3.398  15.433 -2.6629  1.8448 -0.0826
  106CHL1   C1714054   1.019   3.604  15.420 -0.4344  0.9445  0.3070
  106CHL1   H1714055   0.920   3.554  15.426 -0.7775  1.5669 -0.0988
  106CHL1   C1314056   1.037   3.705  15.536  0.8091  0.3871  0.0950
  106CHL1   C1814057   1.154   3.803  15.511 -0.3351  0.2425 -0.0316
  106CHL1  H18A14058   1.136   3.876  15.430 -1.0879 -0.4723 -0.5179
  106CHL1  H18B14059   1.185   3.860  15.602  1.1923  0.8632 -0.9023
  106CHL1  H18C14060   1.246   3.747  15.483 -1.1026 -1.0122 -0.1067
  106CHL1   C1214061   0.915   3.781  15.592  0.0528 -0.0353 -0.2975
  106CHL1  H12A14062   0.900   3.867  15.523 -0.3017 -0.1807 -0.4039
  106CHL1  H12B14063   0.826   3.714  15.596  0.1312 -0.0661  1.2966
  106CHL1   C1114064   0.935   3.837  15.732 -0.1545  0.5464  0.4451
  106CHL1  H11A14065   1.018   3.910  15.724  0.7896 -0.4617  0.8373
  106CHL1  H11B14066   0.845   3.882  15.781 -0.6433 -0.3297  0.3750
  106CHL1    C914067   0.979   3.730  15.835 -0.4771 -0.3792  1.2972
  106CHL1    H914068   0.897   3.654  15.832  0.0460 -1.0081 -2.6205
  106CHL1   C1014069   0.994   3.775  15.983 -0.0469 -0.0557  0.4430
  106CHL1   C1914070   1.078   3.912  15.984  0.8901  0.6397  0.0617
  106CHL1  H19A14071   1.172   3.888  15.930  1.0127 -0.1190  0.6066
  106CHL1  H19B14072   1.018   3.987  15.927  0.2860  0.7594  0.8412
  106CHL1  H19C14073   1.092   3.948  16.088 -1.7291 -0.3574  0.8339
  106CHL1    C114074   0.857   3.809  16.040 -0.2460  0.2098  1.5693
  106CHL1   H1A14075   0.823   3.903  15.990  0.9675 -0.5874 -0.9063
  106CHL1   H1B14076   0.794   3.722  16.010 -1.6020  2.0103 -1.2754
  106CHL1    C214077   0.837   3.824  16.190 -0.7237  0.6527 -0.2522
  106CHL1   H2A14078   0.727   3.832  16.207 -0.8961 -1.2303 -0.3109
  106CHL1   H2B14079   0.884   3.922  16.214 -2.1459  0.9724  1.4193
  106CHL1   C2014080   1.021   3.659  15.275 -0.0196 -0.6582 -0.0085
  106CHL1   H2014081   1.116   3.716  15.268  0.2347 -0.2358  4.2626
  106CHL1   C2114082   0.895   3.744  15.261 -0.0481  0.3055  0.1525
  106CHL1  H21A14083   0.811   3.683  15.300  0.0389  0.1914  0.1647
  106CHL1  H21B14084   0.876   3.777  15.156 -0.9578 -0.2817  0.1277
  106CHL1  H21C14085   0.893   3.842  15.313 -1.3440 -0.1875  1.0794
  106CHL1   C2214086   1.016   3.547  15.163 -0.0978 -0.6365 -0.1533
  106CHL1  H22A14087   1.073   3.457  15.194 -0.5432 -1.3510 -1.3420
  106CHL1  H22B14088   0.909   3.517  15.153 -0.0148 -0.5514 -1.4522
  106CHL1   C2314089   1.067   3.601  15.026 -0.0070  0.1079  0.6388
  106CHL1  H23A14090   1.003   3.682  14.984  1.9484  1.2864 -0.2326
  106CHL1  H23B14091   1.170   3.643  15.027  0.2633 -0.5245 -0.2191
  106CHL1   C2414092   1.059   3.497  14.915 -0.1742  0.0557  0.2744
  106CHL1  H24A14093   1.114   3.411  14.959  0.3154  1.4649  2.5914
  106CHL1  H24B14094   0.956   3.457  14.904  0.4049 -1.7074  0.8850
  106CHL1   C2514095   1.110   3.542  14.777 -0.8562 -0.8223  0.7769
  106CHL1   H2514096   1.211   3.586  14.793 -0.9710  0.4579 -1.4645
  106CHL1   C2614097   1.134   3.414  14.687 -0.3802 -0.5077  0.0541
  106CHL1  H26A14098   1.045   3.368  14.639  1.3286 -3.7539 -0.2108
  106CHL1  H26B14099   1.205   3.449  14.610 -2.0426  1.6445 -0.6342
  106CHL1  H26C14100   1.179   3.333  14.748  0.1519  0.2185  0.6496
  106CHL1   C2714101   1.037   3.656  14.710 -0.3169 -0.4356 -0.3836
  106CHL1  H27A14102   1.020   3.733  14.788 -0.6597  1.4171 -2.2045
  106CHL1  H27B14103   1.093   3.709  14.630  1.0854  0.0411  0.8703
  106CHL1  H27C14104   0.939   3.628  14.665  0.2770 -2.3900 -0.5668
  107CHL1    C314105   3.641   6.251  15.846 -0.2271 -0.1187  0.0065
  107CHL1    H314106   3.548   6.310  15.829 -1.0006 -1.9710 -3.1922
  107CHL1    O314107   3.651   6.236  15.988 -0.2158 -0.0504 -0.5493
  107CHL1   H3'14108   3.727   6.178  15.995  0.3048  0.6105 -0.5830
  107CHL1    C414109   3.627   6.115  15.783  0.3577 -0.4011  0.1461
  107CHL1   H4A14110   3.711   6.045  15.805  0.5954  0.5759  2.6601
  107CHL1   H4B14111   3.539   6.065  15.828 -0.1038  0.6290  0.4102
  107CHL1    C514112   3.605   6.144  15.636 -1.2414 -0.6565  0.2624
  107CHL1    C614113   3.491   6.124  15.581  0.4817 -0.6451 -0.5663
  107CHL1    H614114   3.407   6.087  15.642 -0.2897  3.4187  1.1591
  107CHL1    C714115   3.472   6.156  15.439 -0.3196  0.1271  0.1812
  107CHL1   H7A14116   3.420   6.070  15.392 -2.9078  0.3888  2.3384
  107CHL1   H7B14117   3.416   6.250  15.416 -1.4239 -0.3501  0.8473
  107CHL1    C814118   3.597   6.171  15.346 -0.3089 -0.1420 -0.2604
  107CHL1    H814119   3.635   6.068  15.325  2.0257  0.1840  1.8603
  107CHL1   C1414120   3.571   6.242  15.213  0.1237  0.3501  0.1337
  107CHL1   H1414121   3.531   6.343  15.236 -0.4329  0.3240 -0.6782
  107CHL1   C1514122   3.466   6.162  15.136 -0.3245 -0.1923  0.3101
  107CHL1  H15A14123   3.500   6.056  15.134 -0.1226 -0.1217 -0.4015
  107CHL1  H15B14124   3.361   6.167  15.170 -0.5501  0.2135 -0.4230
  107CHL1   C1614125   3.482   6.228  14.999 -0.2734  0.9376 -0.0937
  107CHL1  H16A14126   3.484   6.144  14.926  2.9674  1.5570 -0.8675
  107CHL1  H16B14127   3.393   6.288  14.972 -2.3124 -2.3815 -1.4321
  107CHL1   C1714128   3.619   6.307  14.994 -0.0885 -0.5187  0.0336
  107CHL1   H1714129   3.595   6.415  15.008  0.9833 -0.2552 -0.0453
  107CHL1   C1314130   3.694   6.248  15.119  0.0678 -0.3383  0.3280
  107CHL1   C1814131   3.763   6.118  15.081 -0.4765 -0.1145 -0.0984
  107CHL1  H18A14132   3.855   6.136  15.021  0.9014 -0.4123  1.8257
  107CHL1  H18B14133   3.794   6.062  15.171  0.8280  0.2846 -0.2785
  107CHL1  H18C14134   3.688   6.054  15.029 -1.4459  2.4923 -2.1800
  107CHL1   C1214135   3.794   6.342  15.196 -0.3412 -0.1761  0.6745
  107CHL1  H12A14136   3.887   6.333  15.135 -0.4898 -0.8568  0.5348
  107CHL1  H12B14137   3.749   6.443  15.190 -1.0112 -0.5289 -0.3689
  107CHL1   C1114138   3.823   6.296  15.335  0.0441 -0.1457  0.3008
  107CHL1  H11A14139   3.895   6.213  15.320  0.0886 -0.4744  2.1096
  107CHL1  H11B14140   3.876   6.379  15.387  0.2499 -0.2353  0.2332
  107CHL1    C914141   3.698   6.264  15.425  0.0935  1.0394 -0.0382
  107CHL1    H914142   3.640   6.358  15.437 -1.1389  0.4575 -1.1506
  107CHL1   C1014143   3.728   6.217  15.564 -0.8083  0.2090 -0.0962
  107CHL1   C1914144   3.853   6.114  15.557  0.0413 -0.1178 -0.3133
  107CHL1  H19A14145   3.951   6.158  15.528  0.2545 -2.0077 -2.7819
  107CHL1  H19B14146   3.862   6.054  15.649 -1.1252 -2.0323 -1.3888
  107CHL1  H19C14147   3.827   6.044  15.475 -1.0543  1.8511 -1.7536
  107CHL1    C114148   3.776   6.344  15.653  0.8552 -0.3619  0.1206
  107CHL1   H1A14149   3.877   6.372  15.616  0.6958 -0.5179 -0.4390
  107CHL1   H1B14150   3.698   6.416  15.621  0.6619 -1.2652 -1.5713
  107CHL1    C214151   3.770   6.318  15.801 -0.0257 -0.3227 -0.4917
  107CHL1   H2A14152   3.789   6.415  15.853 -0.0923 -0.2112 -0.6769
  107CHL1   H2B14153   3.856   6.252  15.823  1.1632  1.6496  1.2613
  107CHL1   C2014154   3.683   6.315  14.854 -0.4579 -0.0861 -0.6407
  107CHL1   H2014155   3.701   6.213  14.814 -0.7292  0.4347 -2.1609
  107CHL1   C2114156   3.810   6.406  14.855 -0.1416  0.5303 -0.1929
  107CHL1  H21A14157   3.828   6.436  14.749 -2.9046  2.8001 -0.1237
  107CHL1  H21B14158   3.905   6.356  14.885  0.9482  1.6616 -1.6145
  107CHL1  H21C14159   3.799   6.503  14.908  0.0263 -0.1999  1.2214
  107CHL1   C2214160   3.591   6.380  14.756  0.5690 -0.5799  0.1928
  107CHL1  H22A14161   3.491   6.340  14.781  0.6831 -0.5201  0.7418
  107CHL1  H22B14162   3.579   6.487  14.786 -1.8590 -0.7858  0.1767
  107CHL1   C2314163   3.619   6.368  14.607 -0.4370 -0.5402 -0.1736
  107CHL1  H23A14164   3.714   6.417  14.577 -1.0909  0.7580 -0.1980
  107CHL1  H23B14165   3.619   6.263  14.572  1.4188 -0.1159 -1.6156
  107CHL1   C2414166   3.507   6.444  14.526 -0.3074 -0.0654 -0.5715
  107CHL1  H24A14167   3.408   6.408  14.562 -0.3769 -0.1335 -0.8335
  107CHL1  H24B14168   3.524   6.549  14.559  1.3240 -0.4732 -0.0567
  107CHL1   C2514169   3.529   6.451  14.378  0.4380  0.0716  0.1889
  107CHL1   H2514170   3.549   6.348  14.342  0.5585 -0.8945  2.8311
  107CHL1   C2614171   3.398   6.501  14.309 -0.5506  0.4726  0.6414
  107CHL1  H26A14172   3.419   6.522  14.202  0.1404 -1.8082  0.2898
  107CHL1  H26B14173   3.318   6.424  14.313  0.6603 -0.8184  0.5641
  107CHL1  H26C14174   3.355   6.587  14.365 -1.2633 -0.1047  0.9929
  107CHL1   C2714175   3.649   6.528  14.331 -0.3101  0.1449 -0.6343
  107CHL1  H27A14176   3.672   6.512  14.223  1.1647  3.6947 -0.9771
  107CHL1  H27B14177   3.638   6.638  14.338 -1.0853  0.0129  0.5343
  107CHL1  H27C14178   3.742   6.495  14.383  0.6754 -0.6636 -2.7545
  108CHL1    C314179   5.470   2.654  16.389 -0.2727  0.1457 -0.3588
  108CHL1    H314180   5.396   2.736  16.380  0.1930  0.5589 -0.4037
  108CHL1    O314181   5.497   2.608  16.525 -0.1942  0.7485 -0.0178
  108CHL1   H3'14182   5.563   2.541  16.507  0.5718  2.2539 -3.6823
  108CHL1    C414183   5.419   2.535  16.301  0.2654  0.4894  0.7466
  108CHL1   H4A14184   5.460   2.435  16.325  1.5655  0.5163 -1.1048
  108CHL1   H4B14185   5.312   2.544  16.326 -1.1039  0.5885 -4.1291
  108CHL1    C514186   5.426   2.565  16.152 -0.6265 -0.1830  0.6159
  108CHL1    C614187   5.315   2.554  16.081  0.0841 -0.2886 -0.1736
  108CHL1    H614188   5.228   2.506  16.129 -0.1238  0.2302 -0.0292
  108CHL1    C714189   5.305   2.593  15.935 -1.5383  0.3923 -0.0051
  108CHL1   H7A14190   5.257   2.509  15.880 -1.7337  0.4588  0.0642
  108CHL1   H7B14191   5.241   2.682  15.920 -0.5248  0.7862 -2.4922
  108CHL1    C814192   5.443   2.620  15.863  0.3099 -0.1976 -0.3921
  108CHL1    H814193   5.485   2.519  15.842 -0.3457 -0.5497 -0.0237
  108CHL1   C1414194   5.424   2.695  15.732  0.0824  0.1627 -0.8959
  108CHL1   H1414195   5.377   2.794  15.748  0.6797  0.6652 -2.1545
  108CHL1   C1514196   5.330   2.627  15.628 -0.1011 -0.6171  0.3635
  108CHL1  H15A14197   5.353   2.518  15.623 -2.4441 -1.2865  2.1730
  108CHL1  H15B14198   5.221   2.628  15.652 -0.4238 -2.2962 -0.8129
  108CHL1   C1614199   5.369   2.700  15.497  0.6308 -0.4612  0.2114
  108CHL1  H16A14200   5.412   2.625  15.427 -0.4895 -0.9995  0.0798
  108CHL1  H16B14201   5.288   2.747  15.438  0.6600 -2.2748 -1.3960
  108CHL1   C1714202   5.495   2.785  15.529  0.3330  0.3065  0.0207
  108CHL1   H1714203   5.466   2.886  15.563  5.2612  2.5597 -1.4847
  108CHL1   C1314204   5.552   2.727  15.661  0.5097  0.2312 -0.0405
  108CHL1   C1814205   5.638   2.599  15.627  1.4834 -0.6117 -0.5153
  108CHL1  H18A14206   5.591   2.530  15.553 -0.1154 -0.6989  0.5285
  108CHL1  H18B14207   5.726   2.652  15.585 -0.0848  0.3987 -2.7695
  108CHL1  H18C14208   5.671   2.541  15.715  1.7451 -1.1402 -0.9524
  108CHL1   C1214209   5.629   2.829  15.757  0.1440  0.1330  0.1113
  108CHL1  H12A14210   5.716   2.864  15.697  0.1661 -0.6810 -0.3407
  108CHL1  H12B14211   5.562   2.915  15.777  1.3728  0.9919  0.6689
  108CHL1   C1114212   5.663   2.760  15.891  0.4441  0.2150 -0.1586
  108CHL1  H11A14213   5.715   2.664  15.871 -0.5101 -0.7538  1.7389
  108CHL1  H11B14214   5.738   2.826  15.940  0.9736 -0.3854 -0.1386
  108CHL1    C914215   5.533   2.703  15.958 -0.3342 -0.3661  0.5739
  108CHL1    H914216   5.469   2.792  15.977  2.1627  1.5124  0.6223
  108CHL1   C1014217   5.555   2.632  16.100  0.2553  0.2225  0.5167
  108CHL1   C1914218   5.668   2.529  16.076  0.4322  0.4051 -0.8082
  108CHL1  H19A14219   5.764   2.579  16.052  0.7839 -0.2202 -0.7205
  108CHL1  H19B14220   5.686   2.454  16.156 -0.7080 -0.3674 -1.2452
  108CHL1  H19C14221   5.644   2.459  15.994 -2.4321 -1.9350  1.7860
  108CHL1    C114222   5.607   2.744  16.195  0.4782  0.2090  0.3888
  108CHL1   H1A14223   5.711   2.773  16.171  0.7905  0.9163  2.3914
  108CHL1   H1B14224   5.547   2.838  16.189  1.8354  1.0044 -1.9339
  108CHL1    C214225   5.604   2.706  16.346 -0.1572 -0.2331  0.6421
  108CHL1   H2A14226   5.633   2.791  16.412 -2.5828  2.0255 -0.9746
  108CHL1   H2B14227   5.672   2.619  16.354  2.1946  1.4557 -0.0694
  108CHL1   C2014228   5.576   2.816  15.405  0.5239 -0.8672 -0.1859
  108CHL1   H2014229   5.610   2.719  15.363 -0.6544 -0.9617 -0.9653
  108CHL1   C2114230   5.700   2.901  15.428  0.1816  0.2273 -0.0782
  108CHL1  H21A14231   5.664   2.990  15.485 -1.2980  1.0347 -2.1455
  108CHL1  H21B14232   5.748   2.923  15.330 -1.2926 -0.9531 -1.0976
  108CHL1  H21C14233   5.769   2.844  15.494 -0.1272 -0.5282 -0.4014
  108CHL1   C2214234   5.496   2.885  15.293  0.3178 -0.1229  0.7699
  108CHL1  H22A14235   5.394   2.841  15.289 -0.7294  2.1219  1.1002
  108CHL1  H22B14236   5.482   2.993  15.318  3.0748  1.0346 -2.0212
  108CHL1   C2314237   5.564   2.868  15.163 -0.2309  0.3925  0.4877
  108CHL1  H23A14238   5.647   2.940  15.148 -0.6932  0.6043 -1.3091
  108CHL1  H23B14239   5.596   2.764  15.141 -1.1948 -0.1334  1.4922
  108CHL1   C2414240   5.465   2.909  15.045 -0.5825  0.1178  0.0312
  108CHL1  H24A14241   5.388   2.830  15.041 -0.2667 -0.2639  1.2453
  108CHL1  H24B14242   5.412   3.003  15.073 -0.8048  0.1137 -0.3707
  108CHL1   C2514243   5.523   2.927  14.905 -0.4932 -0.1159  0.5779
  108CHL1   H2514244   5.599   3.007  14.916 -0.1750 -0.1701 -1.0433
  108CHL1   C2614245   5.563   2.793  14.845  0.1708 -0.7547 -0.0497
  108CHL1  H26A14246   5.477   2.723  14.848  0.3805 -1.0081  0.1198
  108CHL1  H26B14247   5.586   2.823  14.741 -0.0212 -1.1257 -0.2008
  108CHL1  H26C14248   5.657   2.757  14.892  0.8261  1.2850  0.2964
  108CHL1   C2714249   5.412   2.980  14.815 -0.0335 -0.8462  0.5696
  108CHL1  H27A14250   5.456   2.999  14.715  1.0391 -0.0900  1.1680
  108CHL1  H27B14251   5.332   2.903  14.808 -1.6821  0.9232 -1.8555
  108CHL1  H27C14252   5.371   3.076  14.853 -0.4157 -0.1661 -1.4049
  109CHL1    C314253   1.735   5.638  16.331 -0.1763 -0.1006  0.3498
  109CHL1    H314254   1.648   5.583  16.290  0.7503  0.0204 -1.9056
  109CHL1    O314255   1.742   5.619  16.472 -0.1300 -0.2748 -0.7467
  109CHL1   H3'14256   1.674   5.670  16.515 -0.6229 -0.2540 -1.5527
  109CHL1    C414257   1.873   5.591  16.261  0.0452  0.0862 -0.0083
  109CHL1   H4A14258   1.964   5.633  16.309  0.4395 -0.0286 -0.6485
  109CHL1   H4B14259   1.888   5.481  16.267 -0.6676  0.0370  1.1895
  109CHL1    C514260   1.885   5.622  16.116  0.6069  0.6684  1.0087
  109CHL1    C614261   1.912   5.534  16.018  0.1170  0.5378 -0.2774
  109CHL1    H614262   1.933   5.432  16.053 -0.8645 -0.3284 -2.0648
  109CHL1    C714263   1.948   5.568  15.870 -0.0045  0.0987  0.6131
  109CHL1   H7A14264   2.049   5.529  15.843 -0.0570  1.4969 -1.8819
  109CHL1   H7B14265   1.878   5.527  15.795  0.6393  0.2642 -0.0946
  109CHL1    C814266   1.949   5.721  15.844  0.0751 -0.5860 -0.8802
  109CHL1    H814267   2.050   5.757  15.874 -0.9668  1.1320  0.7900
  109CHL1   C1414268   1.930   5.752  15.698  0.9252 -0.4626  0.6090
  109CHL1   H1414269   1.826   5.721  15.676  0.3007 -2.3425  5.0926
  109CHL1   C1514270   2.010   5.668  15.599 -0.0986  0.1510 -0.0591
  109CHL1  H15A14271   2.115   5.658  15.635 -0.1390 -0.2310 -0.0439
  109CHL1  H15B14272   1.978   5.563  15.580 -0.7678  0.1314  1.1047
  109CHL1   C1614273   2.017   5.761  15.480  0.2098  0.2162 -0.2038
  109CHL1  H16A14274   2.124   5.789  15.469  0.3629 -0.4780 -0.5757
  109CHL1  H16B14275   1.981   5.707  15.390 -0.9533 -0.7509  0.8044
  109CHL1   C1714276   1.931   5.888  15.511 -0.4855 -0.5559  0.5212
  109CHL1   H1714277   1.827   5.860  15.485 -0.5198  0.9066 -1.1094
  109CHL1   C1314278   1.945   5.901  15.662  0.7373 -0.2153 -0.5386
  109CHL1   C1814279   2.083   5.955  15.691 -0.0340  0.1327  0.7682
  109CHL1  H18A14280   2.110   5.952  15.799 -0.0915  2.2064  0.8807
  109CHL1  H18B14281   2.168   5.906  15.640  0.8436  1.9155  0.4574
  109CHL1  H18C14282   2.084   6.064  15.672 -2.9346  0.0719 -0.3305
  109CHL1   C1214283   1.831   5.974  15.731  0.1010 -0.7600  0.0114
  109CHL1  H12A14284   1.844   6.083  15.721  1.8790 -0.5936  2.7610
  109CHL1  H12B14285   1.730   5.940  15.701  0.5633 -0.8347 -1.5170
  109CHL1   C1114286   1.836   5.948  15.886 -0.1114 -0.1645 -0.1012
  109CHL1  H11A14287   1.931   5.992  15.921 -0.1929 -0.2689  0.2495
  109CHL1  H11B14288   1.750   5.994  15.938 -0.9799 -2.6231  0.8067
  109CHL1    C914289   1.844   5.796  15.921 -0.3156  0.1076  0.5952
  109CHL1    H914290   1.741   5.763  15.893 -0.5590  0.4534  1.0610
  109CHL1   C1014291   1.856   5.773  16.079  0.2739  0.1645 -0.2816
  109CHL1   C1914292   1.976   5.853  16.133 -0.2624 -0.5334 -0.4083
  109CHL1  H19A14293   1.963   5.963  16.128  2.4073 -0.1755 -1.6048
  109CHL1  H19B14294   1.992   5.842  16.242  0.0752  1.0420 -0.2769
  109CHL1  H19C14295   2.068   5.832  16.073  0.2586  0.3635  0.0445
  109CHL1    C114296   1.727   5.820  16.149  0.6602 -0.4050 -0.3354
  109CHL1   H1A14297   1.718   5.930  16.133  0.4717 -0.3167  0.3322
  109CHL1   H1B14298   1.646   5.768  16.093  1.4588 -1.9965 -0.0663
  109CHL1    C214299   1.719   5.792  16.299 -0.0994 -0.6876 -0.5894
  109CHL1   H2A14300   1.618   5.825  16.330 -0.6788  0.1401 -3.1600
  109CHL1   H2B14301   1.791   5.848  16.363 -1.7158 -1.4595  2.0518
  109CHL1   C2014302   1.964   6.013  15.419  0.3136 -1.0461 -0.2319
  109CHL1   H2014303   2.066   6.044  15.450  0.2953 -1.5969  0.3762
  109CHL1   C2114304   1.863   6.129  15.449  0.2740 -0.0737 -0.4775
  109CHL1  H21A14305   1.859   6.208  15.371 -1.0617  0.2670 -0.0960
  109CHL1  H21B14306   1.880   6.180  15.547  0.1437  0.6671 -0.8302
  109CHL1  H21C14307   1.759   6.092  15.462  0.2491 -0.0990 -0.7406
  109CHL1   C2214308   1.960   5.973  15.267  0.4783 -0.9658  0.4038
  109CHL1  H22A14309   2.004   5.872  15.250  0.4240 -0.5868 -2.3989
  109CHL1  H22B14310   1.851   5.971  15.248  0.2928  2.3427  0.5039
  109CHL1   C2314311   2.030   6.071  15.182 -0.1971 -0.1448 -0.5070
  109CHL1  H23A14312   1.970   6.165  15.183  1.6930  1.1333 -1.0141
  109CHL1  H23B14313   2.128   6.098  15.228  1.0164 -0.7839 -2.5787
  109CHL1   C2414314   2.050   6.029  15.037  0.0184 -0.1699  0.0942
  109CHL1  H24A14315   2.109   6.101  14.977  1.2674  0.2099  1.6975
  109CHL1  H24B14316   2.117   5.941  15.046  0.4804  0.2563  0.9411
  109CHL1   C2514317   1.917   5.997  14.970  0.2399  0.4166 -0.0020
  109CHL1   H2514318   1.857   5.925  15.030  1.7971 -1.0120 -0.1019
  109CHL1   C2614319   1.839   6.121  14.940  0.2469  0.6259 -0.3981
  109CHL1  H26A14320   1.902   6.190  14.880  0.4636  0.5876 -0.2163
  109CHL1  H26B14321   1.746   6.096  14.885  0.4263 -1.3908  0.1643
  109CHL1  H26C14322   1.810   6.174  15.034 -1.6205  0.8583 -1.0607
  109CHL1   C2714323   1.933   5.915  14.842  0.2968  0.8764  0.0138
  109CHL1  H27A14324   1.980   5.977  14.762 -2.0939 -0.0963 -2.3092
  109CHL1  H27B14325   1.977   5.814  14.851 -1.8030  0.0856  2.2969
  109CHL1  H27C14326   1.830   5.897  14.804  0.2616  0.2398  0.4103
  110CHL1    C314327   0.802   5.452  16.065 -0.2367  0.5053  0.1125
  110CHL1    H314328   0.814   5.563  16.075  4.5104  0.2490 -0.2511
  110CHL1    O314329   0.812   5.396  16.197 -0.0783 -0.7845  0.2797
  110CHL1   H3'14330   0.902   5.364  16.207 -0.5906 -2.3264  0.2038
  110CHL1    C414331   0.667   5.419  15.998 -0.0089 -0.1202  0.4855
  110CHL1   H4A14332   0.638   5.315  16.024  0.5576 -0.9500 -1.9208
  110CHL1   H4B14333   0.602   5.493  16.049  0.6026  0.7608  0.0151
  110CHL1    C514334   0.657   5.434  15.846 -0.2805 -0.1852 -0.2104
  110CHL1    C614335   0.556   5.509  15.794  0.0101 -0.2551  0.3117
  110CHL1    H614336   0.467   5.545  15.848 -0.8114  0.5359 -1.4768
  110CHL1    C714337   0.553   5.529  15.648  0.0309 -0.3494  0.8657
  110CHL1   H7A14338   0.453   5.541  15.601  1.0679 -0.3893 -1.4661
  110CHL1   H7B14339   0.604   5.624  15.620 -1.1301  0.4721  1.4593
  110CHL1    C814340   0.634   5.417  15.569 -0.0430  0.0665  0.3341
  110CHL1    H814341   0.577   5.322  15.576  1.5591 -1.0495 -0.9665
  110CHL1   C1414342   0.639   5.456  15.423  0.5130 -0.0317 -0.1623
  110CHL1   H1414343   0.690   5.555  15.417 -1.1393  0.8862  0.2655
  110CHL1   C1514344   0.504   5.486  15.357 -0.5330  0.0989  0.7266
  110CHL1  H15A14345   0.429   5.412  15.394  0.3407 -0.8999  0.5338
  110CHL1  H15B14346   0.475   5.589  15.387  1.6236  1.7632 -2.3393
  110CHL1   C1614347   0.527   5.470  15.212  0.1506 -0.5589 -0.0265
  110CHL1  H16A14348   0.473   5.382  15.173 -0.1740 -0.2934 -0.1781
  110CHL1  H16B14349   0.512   5.560  15.148 -0.8890  0.7467  1.9223
  110CHL1   C1714350   0.676   5.428  15.194 -0.1260 -0.0566  0.3098
  110CHL1   H1714351   0.729   5.525  15.190  0.0679 -0.2021 -1.0712
  110CHL1   C1314352   0.715   5.364  15.327 -0.1012  0.0448  0.0061
  110CHL1   C1814353   0.637   5.230  15.339  0.3391 -0.7440  0.8260
  110CHL1  H18A14354   0.673   5.180  15.432  0.8911 -0.3733  0.8204
  110CHL1  H18B14355   0.530   5.235  15.367  0.7627 -1.1631  2.6467
  110CHL1  H18C14356   0.639   5.154  15.258 -2.9382 -1.3676  1.1856
  110CHL1   C1214357   0.858   5.366  15.382 -0.2849  0.2697 -0.1973
  110CHL1  H12A14358   0.922   5.302  15.318 -2.8065 -0.1468 -2.4925
  110CHL1  H12B14359   0.894   5.471  15.369  3.3867 -0.4766  2.4347
  110CHL1   C1114360   0.873   5.323  15.533 -0.4460 -0.3758  0.0454
  110CHL1  H11A14361   0.863   5.213  15.541 -1.0520 -0.6508 -3.1568
  110CHL1  H11B14362   0.972   5.361  15.564  0.3290  0.1937 -2.8376
  110CHL1    C914363   0.779   5.406  15.622  0.1755 -0.7812  0.0516
  110CHL1    H914364   0.821   5.508  15.619 -0.6002 -0.4287  0.8723
  110CHL1   C1014365   0.775   5.364  15.774  0.0743 -0.6621 -0.4105
  110CHL1   C1914366   0.752   5.218  15.778  0.2840  0.6462 -0.1162
  110CHL1  H19A14367   0.665   5.189  15.714  1.4711  1.4855 -2.2166
  110CHL1  H19B14368   0.829   5.154  15.732 -2.4187 -2.8671 -0.1929
  110CHL1  H19C14369   0.736   5.183  15.882 -0.1915 -2.1416 -1.0434
  110CHL1    C114370   0.915   5.407  15.832 -0.1017 -0.3485  0.4021
  110CHL1   H1A14371   0.990   5.338  15.787 -2.5230 -2.9790  0.1433
  110CHL1   H1B14372   0.932   5.512  15.800 -0.0111 -1.1226 -2.3785
  110CHL1    C214373   0.920   5.390  15.987 -0.2017 -0.3553 -0.5618
  110CHL1   H2A14374   1.010   5.447  16.020 -1.4437  2.9396 -2.4216
  110CHL1   H2B14375   0.942   5.283  16.005 -0.5637 -0.2323  0.6748
  110CHL1   C2014376   0.716   5.353  15.063  0.1494 -0.3459 -0.0898
  110CHL1   H2014377   0.654   5.261  15.065 -0.0331 -0.2158  0.1815
  110CHL1   C2114378   0.863   5.328  15.060 -0.1428  0.3381 -0.4669
  110CHL1  H21A14379   0.884   5.253  15.139  1.9422  2.1495  0.8447
  110CHL1  H21B14380   0.922   5.421  15.074 -0.7676  0.5149  1.2054
  110CHL1  H21C14381   0.904   5.297  14.961  0.2194 -2.2864  0.4268
  110CHL1   C2214382   0.666   5.433  14.935  0.3066  0.0078 -0.9503
  110CHL1  H22A14383   0.556   5.440  14.952 -0.2289 -1.0447 -3.5528
  110CHL1  H22B14384   0.714   5.533  14.937  0.5091 -0.0933 -0.7529
  110CHL1   C2314385   0.691   5.360  14.809 -0.0589  0.5488  0.5442
  110CHL1  H23A14386   0.797   5.363  14.777 -0.2603  1.5612 -0.0663
  110CHL1  H23B14387   0.660   5.253  14.811  3.9090 -0.9630 -3.3367
  110CHL1   C2414388   0.606   5.419  14.691 -0.4853  0.1666  0.7270
  110CHL1  H24A14389   0.500   5.412  14.722 -0.3863  2.2662  1.7068
  110CHL1  H24B14390   0.634   5.525  14.674  1.9672 -0.8387 -2.5543
  110CHL1   C2514391   0.620   5.348  14.548 -0.0806  0.1862 -0.4029
  110CHL1   H2514392   0.596   5.241  14.562 -1.0730  0.5324  0.6656
  110CHL1   C2614393   0.524   5.407  14.438  0.1822 -0.7191 -0.4212
  110CHL1  H26A14394   0.543   5.512  14.407 -0.0064 -0.7617 -0.6916
  110CHL1  H26B14395   0.536   5.344  14.347  1.6698 -0.3058 -0.5404
  110CHL1  H26C14396   0.418   5.389  14.467  0.2967 -2.0963 -0.7877
  110CHL1   C2714397   0.765   5.355  14.495 -0.1970  0.3556  0.1010
  110CHL1  H27A14398   0.801   5.460  14.481  1.8675 -0.1614  1.1084
  110CHL1  H27B14399   0.842   5.310  14.561  0.3086  1.2330  0.1228
  110CHL1  H27C14400   0.773   5.302  14.398 -2.1670 -0.2035  0.2097
  111CHL1    C314401   1.219   0.809  16.230 -0.2432  0.6452 -0.2451
  111CHL1    H314402   1.210   0.919  16.217  1.2323  0.6674 -1.2838
  111CHL1    O314403   1.208   0.776  16.364 -0.3309  0.2474  0.3498
  111CHL1   H3'14404   1.246   0.688  16.363 -1.1602 -0.1246  0.7636
  111CHL1    C414405   1.117   0.717  16.152  0.0758 -0.0820 -0.1255
  111CHL1   H4A14406   1.145   0.615  16.185 -0.0762  0.4872  1.9063
  111CHL1   H4B14407   1.019   0.744  16.197  1.1184  2.8583  0.6295
  111CHL1    C514408   1.128   0.718  16.001  0.3770  0.1850 -0.9444
  111CHL1    C614409   1.022   0.752  15.922  0.1867 -0.0593 -0.7460
  111CHL1    H614410   0.924   0.781  15.964 -0.2195 -2.6198  0.2275
  111CHL1    C714411   1.033   0.756  15.774 -0.1970 -0.9785  0.2532
  111CHL1   H7A14412   0.955   0.700  15.718  0.5481  0.5245 -2.4927
  111CHL1   H7B14413   1.014   0.858  15.733 -0.3754 -1.3660 -0.6374
  111CHL1    C814414   1.165   0.706  15.708 -0.0354  0.3035 -0.2516
  111CHL1    H814415   1.148   0.597  15.703  0.6253  0.1891 -0.1325
  111CHL1   C1414416   1.184   0.764  15.563 -0.3406 -0.0736 -0.0840
  111CHL1   H1414417   1.190   0.875  15.570  3.5230 -0.1255 -0.3438
  111CHL1   C1514418   1.072   0.716  15.463 -1.2323 -0.1255 -0.3462
  111CHL1  H15A14419   1.056   0.607  15.479  2.3159 -0.9788 -1.6782
  111CHL1  H15B14420   0.977   0.774  15.463 -0.8267  0.7496  3.0320
  111CHL1   C1614421   1.138   0.736  15.324  0.0525 -0.8781  0.1302
  111CHL1  H16A14422   1.130   0.650  15.253  1.4810 -0.1087 -1.0067
  111CHL1  H16B14423   1.098   0.822  15.267  2.9757  0.2845 -0.2891
  111CHL1   C1714424   1.289   0.764  15.350 -0.3495 -0.6227 -0.0704
  111CHL1   H1714425   1.298   0.874  15.364 -0.2192 -0.5911 -0.3888
  111CHL1   C1314426   1.316   0.711  15.498 -0.5455  0.0827 -0.1936
  111CHL1   C1814427   1.324   0.557  15.511  0.1016  0.4597  0.3731
  111CHL1  H18A14428   1.230   0.514  15.470 -0.2189  1.1263  0.3925
  111CHL1  H18B14429   1.417   0.514  15.467  1.0683 -0.0082  2.7277
  111CHL1  H18C14430   1.329   0.539  15.620  1.4487  1.3668  0.4954
  111CHL1   C1214431   1.427   0.780  15.583  0.2777 -0.0385  0.1985
  111CHL1  H12A14432   1.521   0.742  15.539  0.3638 -1.9253  1.8754
  111CHL1  H12B14433   1.415   0.890  15.574 -0.3491 -0.1840 -0.8434
  111CHL1   C1114434   1.419   0.740  15.735 -0.5353 -0.0465 -0.2389
  111CHL1  H11A14435   1.458   0.638  15.756 -0.1553  0.5290  2.2054
  111CHL1  H11B14436   1.492   0.795  15.797 -0.3157  1.2177 -1.5875
  111CHL1    C914437   1.281   0.750  15.801  0.1268  0.3313  0.0228
  111CHL1    H914438   1.270   0.861  15.809  0.7407  0.4258 -0.4052
  111CHL1   C1014439   1.272   0.699  15.952  0.0336 -0.3057  0.1594
  111CHL1   C1914440   1.308   0.549  15.945 -0.0132  0.4280  0.0214
  111CHL1  H19A14441   1.280   0.491  16.035 -0.3743 -1.1214 -1.0421
  111CHL1  H19B14442   1.264   0.500  15.855  0.4800 -0.3568  0.2005
  111CHL1  H19C14443   1.416   0.537  15.922 -0.3821  1.0735 -2.3410
  111CHL1    C114444   1.373   0.787  16.035 -0.1931  0.5420 -0.6117
  111CHL1   H1A14445   1.475   0.762  15.997 -0.6277 -0.9675 -0.8635
  111CHL1   H1B14446   1.342   0.891  16.012  0.1280  0.4847 -1.3336
  111CHL1    C214447   1.357   0.762  16.189 -0.1637 -0.1473 -0.1327
  111CHL1   H2A14448   1.434   0.830  16.232  1.7567 -3.4485  2.0275
  111CHL1   H2B14449   1.385   0.661  16.225 -1.7248  0.1928  2.2591
  111CHL1   C2014450   1.379   0.713  15.239  0.8150  0.3306  0.1732
  111CHL1   H2014451   1.361   0.604  15.226 -1.8389  0.6314  0.8047
  111CHL1   C2114452   1.524   0.739  15.267 -0.0788 -0.4461  0.2822
  111CHL1  H21A14453   1.575   0.719  15.170 -2.5671 -1.3186 -0.9442
  111CHL1  H21B14454   1.577   0.674  15.340  0.2980  1.0832  1.4207
  111CHL1  H21C14455   1.539   0.843  15.301 -2.3609 -0.1616  0.5589
  111CHL1   C2214456   1.353   0.800  15.113 -0.2330 -0.2975  0.3593
  111CHL1  H22A14457   1.246   0.830  15.105 -0.2279 -0.6369 -1.3577
  111CHL1  H22B14458   1.415   0.891  15.124  1.4914 -1.5530  1.3855
  111CHL1   C2314459   1.379   0.730  14.980  0.5525 -0.4111 -0.1945
  111CHL1  H23A14460   1.477   0.679  14.988  0.6699 -0.0343  1.0101
  111CHL1  H23B14461   1.300   0.655  14.954  0.7934 -0.9639  0.6032
  111CHL1   C2414462   1.372   0.833  14.868 -0.5576  0.2335 -0.0166
  111CHL1  H24A14463   1.272   0.877  14.847 -0.7045  0.5922  1.3744
  111CHL1  H24B14464   1.447   0.914  14.880  1.3648 -1.0636 -2.2553
  111CHL1   C2514465   1.420   0.773  14.728  0.0022 -0.0424 -0.6925
  111CHL1   H2514466   1.522   0.731  14.741  0.8486  1.6794 -1.5226
  111CHL1   C2614467   1.328   0.659  14.673  0.1945  0.7717 -0.1422
  111CHL1  H26A14468   1.339   0.571  14.740  0.3467  0.1419 -0.9732
  111CHL1  H26B14469   1.220   0.685  14.666 -0.0058  1.5036  3.7869
  111CHL1  H26C14470   1.362   0.631  14.571  0.2956 -2.2333  0.6368
  111CHL1   C2714471   1.442   0.886  14.627 -0.3159 -1.1771  0.0231
  111CHL1  H27A14472   1.530   0.949  14.655 -1.8146  1.2386 -0.3478
  111CHL1  H27B14473   1.464   0.838  14.530  1.2820 -0.8885  0.2255
  111CHL1  H27C14474   1.358   0.955  14.602  0.1035 -1.4622 -2.3138
  112CHL1    C314475   3.854   1.642  16.143  0.1600 -0.0423  0.3072
  112CHL1    H314476   3.892   1.747  16.145  0.2438  0.0542 -2.4890
  112CHL1    O314477   3.836   1.593  16.274  0.0219 -0.6344  0.6662
  112CHL1   H3'14478   3.858   1.502  16.253  0.9711 -0.3503  0.3671
  112CHL1    C414479   3.723   1.623  16.063  0.0849 -0.0385  0.1601
  112CHL1   H4A14480   3.690   1.518  16.071  0.3096 -0.2328 -1.2086
  112CHL1   H4B14481   3.653   1.694  16.112  0.1375  1.5877 -1.9516
  112CHL1    C514482   3.740   1.658  15.915 -0.0026 -0.0207  0.0906
  112CHL1    C614483   3.670   1.758  15.863 -0.3107 -0.1907  0.3263
  112CHL1    H614484   3.586   1.814  15.909 -0.0451  1.3083 -0.9117
  112CHL1    C714485   3.690   1.804  15.721 -0.1653 -0.4826 -0.0616
  112CHL1   H7A14486   3.589   1.817  15.676 -1.2701 -1.5537  1.9418
  112CHL1   H7B14487   3.750   1.897  15.715 -0.6139 -0.2138 -0.4380
  112CHL1    C814488   3.764   1.707  15.631  0.0633  0.0492 -0.0057
  112CHL1    H814489   3.688   1.627  15.623 -0.3492  0.6230 -3.4650
  112CHL1   C1414490   3.799   1.763  15.493  0.8997 -0.1827  0.3060
  112CHL1   H1414491   3.865   1.851  15.510  0.9124  0.1138 -1.1265
  112CHL1   C1514492   3.681   1.817  15.406 -0.2635 -0.0990  0.0530
  112CHL1  H15A14493   3.588   1.756  15.409 -0.7775  0.5557 -1.3967
  112CHL1  H15B14494   3.640   1.916  15.436 -1.8639 -0.4785 -0.7544
  112CHL1   C1614495   3.735   1.809  15.260 -0.1234 -0.0096 -0.0869
  112CHL1  H16A14496   3.659   1.758  15.197 -0.7294  2.2482 -1.2711
  112CHL1  H16B14497   3.749   1.914  15.226 -0.5841  0.8338  2.1136
  112CHL1   C1714498   3.876   1.741  15.269  0.1062  0.2637  0.1676
  112CHL1   H1714499   3.944   1.828  15.282  0.0726 -0.0114  2.4761
  112CHL1   C1314500   3.879   1.662  15.402  0.0766 -0.7237 -0.7513
  112CHL1   C1814501   3.793   1.534  15.390  0.6592 -0.4129  0.2592
  112CHL1  H18A14502   3.761   1.494  15.489 -3.8158  1.6754 -0.1323
  112CHL1  H18B14503   3.702   1.568  15.336  2.5396  0.9524 -2.2772
  112CHL1  H18C14504   3.852   1.457  15.337  0.4290  0.4737 -1.3391
  112CHL1   C1214505   4.018   1.643  15.475  0.2960 -0.2107  0.0042
  112CHL1  H12A14506   4.091   1.580  15.420  1.3354  1.3409 -0.4674
  112CHL1  H12B14507   4.066   1.742  15.486 -0.5507  0.3866 -1.3865
  112CHL1   C1114508   3.993   1.582  15.614 -0.0047  0.4099  0.0749
  112CHL1  H11A14509   3.959   1.478  15.599  1.3535 -0.2885  1.5620
  112CHL1  H11B14510   4.090   1.573  15.668 -1.6073  0.5448  3.2094
  112CHL1    C914511   3.888   1.657  15.700 -0.2063  0.3685  0.2664
  112CHL1    H914512   3.939   1.754  15.721  1.0595 -0.6033  1.9219
  112CHL1   C1014513   3.865   1.594  15.838  0.5039 -0.6565 -0.3886
  112CHL1   C1914514   3.814   1.443  15.810 -0.0741  0.4669 -0.5528
  112CHL1  H19A14515   3.893   1.370  15.839  0.1672  1.6006  1.8514
  112CHL1  H19B14516   3.735   1.410  15.881 -1.1587  2.2654 -0.8579
  112CHL1  H19C14517   3.777   1.439  15.705 -2.1915 -0.1637  0.1523
  112CHL1    C114518   3.988   1.587  15.928 -0.9407  0.0920  0.4757
  112CHL1   H1A14519   4.064   1.518  15.886  1.2476  1.6911  1.5955
  112CHL1   H1B14520   4.047   1.681  15.928 -2.3435  0.9928  0.6845
  112CHL1    C214521   3.956   1.548  16.076  0.1221  0.3335 -0.0527
  112CHL1   H2A14522   4.052   1.562  16.131 -0.6785  2.5837  0.9268
  112CHL1   H2B14523   3.915   1.445  16.078  0.0415  0.3324 -1.1742
  112CHL1   C2014524   3.905   1.661  15.141 -0.0876  0.3495 -0.1873
  112CHL1   H2014525   3.838   1.573  15.140 -0.7652  0.8512  0.0508
  112CHL1   C2114526   4.050   1.619  15.150  0.6131 -0.5530  0.0015
  112CHL1  H21A14527   4.072   1.544  15.228  0.4851  0.3200  0.9008
  112CHL1  H21B14528   4.115   1.707  15.172  1.1488 -0.8722 -0.2768
  112CHL1  H21C14529   4.093   1.580  15.055  1.4634 -0.1851  0.2241
  112CHL1   C2214530   3.888   1.738  15.009 -0.3193 -0.5466 -0.3318
  112CHL1  H22A14531   3.792   1.794  14.996  0.6979  0.8739 -2.2592
  112CHL1  H22B14532   3.961   1.821  14.996  0.1214 -0.7534  0.6983
  112CHL1   C2314533   3.896   1.642  14.886  0.1358 -0.2026 -0.8746
  112CHL1  H23A14534   3.990   1.583  14.888  1.4846  1.7926  1.7603
  112CHL1  H23B14535   3.811   1.573  14.907 -0.8412  1.2873  0.3064
  112CHL1   C2414536   3.891   1.716  14.755  0.0917  0.9879  0.3347
  112CHL1  H24A14537   3.868   1.647  14.671 -0.2274  1.9645 -0.4078
  112CHL1  H24B14538   3.805   1.786  14.756  0.0777  0.9636  1.0126
  112CHL1   C2514539   4.020   1.794  14.722  0.1646 -0.3791  0.3457
  112CHL1   H2514540   4.045   1.864  14.805  2.0460  0.5056 -0.9022
  112CHL1   C2614541   4.149   1.708  14.713 -0.2161 -0.0696  0.2214
  112CHL1  H26A14542   4.129   1.626  14.641 -1.5717 -0.1992  0.7188
  112CHL1  H26B14543   4.236   1.763  14.671 -0.3891 -0.6971 -0.9893
  112CHL1  H26C14544   4.178   1.666  14.812  0.5874 -0.1739 -0.0501
  112CHL1   C2714545   4.006   1.878  14.592 -0.4688 -0.7509 -0.7627
  112CHL1  H27A14546   4.095   1.942  14.581 -1.1095  0.2757 -0.1556
  112CHL1  H27B14547   4.001   1.811  14.503 -1.0240  0.4700 -1.6700
  112CHL1  H27C14548   3.922   1.950  14.587  1.7436  2.0482  0.2941
  113CHL1    C314549   0.164   5.592  15.796  0.4763 -0.0750  0.0601
  113CHL1    H314550   0.271   5.615  15.780  0.3762  0.3608  0.0204
  113CHL1    O314551   0.139   5.597  15.936  0.3060 -0.6550 -0.2074
  113CHL1   H3'14552   0.078   5.528  15.962 -1.4934  1.3763  1.3097
  113CHL1    C414553   0.084   5.708  15.732  0.5404  0.1397  0.1635
  113CHL1   H4A14554  -0.021   5.699  15.768 -0.1360 -1.9980 -2.0361
  113CHL1   H4B14555   0.122   5.807  15.766 -0.7297  1.3062 -1.5841
  113CHL1    C514556   0.108   5.692  15.580 -1.0044  0.5674 -0.1728
  113CHL1    C614557   0.146   5.800  15.513  0.2079  0.0520  0.2177
  113CHL1    H614558   0.163   5.896  15.565  0.2565 -0.7607  1.7449
  113CHL1    C714559   0.167   5.810  15.367 -0.4221 -0.3081  0.4728
  113CHL1   H7A14560   0.121   5.905  15.331  2.5024  0.7977 -0.6223
  113CHL1   H7B14561   0.278   5.811  15.361 -0.4321  2.4550 -0.4987
  113CHL1    C814562   0.102   5.690  15.296 -0.6935 -0.5759  0.0227
  113CHL1    H814563  -0.006   5.713  15.289 -0.7295 -0.3983  1.0997
  113CHL1   C1414564   0.154   5.682  15.151 -0.1519 -0.0967 -0.2776
  113CHL1   H1414565   0.264   5.666  15.158 -0.1718 -0.0345  0.2710
  113CHL1   C1514566   0.134   5.813  15.064  0.2475  0.8027 -0.0818
  113CHL1  H15A14567   0.031   5.850  15.079 -0.4356 -1.5836  1.6259
  113CHL1  H15B14568   0.210   5.892  15.081 -0.0980  1.2038 -0.3703
  113CHL1   C1614569   0.141   5.758  14.920  0.4185 -0.3121  0.4315
  113CHL1  H16A14570   0.057   5.778  14.849 -0.4918 -2.4964  0.7899
  113CHL1  H16B14571   0.231   5.801  14.872  0.9574 -1.6673  0.1694
  113CHL1   C1714572   0.167   5.603  14.930  1.0551  0.3981  0.7054
  113CHL1   H1714573   0.277   5.596  14.946  1.2422  1.2623 -0.0966
  113CHL1   C1314574   0.096   5.563  15.064  0.0034  0.3688 -0.5667
  113CHL1   C1814575  -0.058   5.562  15.050  0.4660  0.3329 -0.0174
  113CHL1  H18A14576  -0.096   5.650  14.994 -2.9950 -1.2250 -0.3619
  113CHL1  H18B14577  -0.097   5.478  14.989  0.1549  0.7931 -0.4751
  113CHL1  H18C14578  -0.103   5.574  15.151 -0.9316 -0.6178 -0.4978
  113CHL1   C1214579   0.147   5.439  15.138 -0.2188  0.1686 -0.0402
  113CHL1  H12A14580   0.108   5.345  15.093 -1.3339  1.1057 -1.1223
  113CHL1  H12B14581   0.257   5.448  15.134 -0.1120 -0.2341  1.5720
  113CHL1   C1114582   0.094   5.439  15.280 -0.1128 -0.1363 -0.8459
  113CHL1  H11A14583  -0.016   5.423  15.290  0.0255 -0.2490  0.9009
  113CHL1  H11B14584   0.135   5.349  15.331 -3.7955  0.3594  3.7184
  113CHL1    C914585   0.127   5.558  15.366 -0.0287 -0.2678 -0.5408
  113CHL1    H914586   0.238   5.559  15.370  0.0478  0.3359 -2.0819
  113CHL1   C1014587   0.084   5.556  15.515 -0.3830  0.3265  0.1147
  113CHL1   C1914588  -0.068   5.535  15.525  0.1777  0.0959 -0.0320
  113CHL1  H19A14589  -0.115   5.591  15.441  0.0628 -1.2592 -0.8942
  113CHL1  H19B14590  -0.089   5.426  15.519  1.3087 -0.1305 -0.0336
  113CHL1  H19C14591  -0.107   5.566  15.624 -0.5540  1.8526 -0.8210
  113CHL1    C114592   0.163   5.438  15.589  0.4197  0.5962 -0.3504
  113CHL1   H1A14593   0.117   5.340  15.564  1.1267  0.5906 -1.6728
  113CHL1   H1B14594   0.268   5.424  15.557  0.4716 -0.1973  0.1281
  113CHL1    C214595   0.144   5.451  15.742 -0.1052  0.4270  0.1720
  113CHL1   H2A14596   0.220   5.386  15.789  1.1973  0.2456 -2.0328
  113CHL1   H2B14597   0.044   5.415  15.774  0.9832 -1.5700  1.5523
  113CHL1   C2014598   0.115   5.541  14.801  0.2540 -0.1079 -0.9281
  113CHL1   H2014599   0.004   5.543  14.797  0.1213 -1.9831  0.3438
  113CHL1   C2114600   0.159   5.389  14.809 -0.3148  0.6707  0.1983
  113CHL1  H21A14601   0.268   5.381  14.829 -0.2008 -2.4085 -1.0773
  113CHL1  H21B14602   0.143   5.333  14.714  0.8904  1.1209 -0.2789
  113CHL1  H21C14603   0.092   5.343  14.885  2.3071 -2.1051  1.0235
  113CHL1   C2214604   0.178   5.606  14.678 -0.0385  0.2033  0.2812
  113CHL1  H22A14605   0.133   5.707  14.666 -1.4345 -0.4583 -0.3390
  113CHL1  H22B14606   0.288   5.617  14.689 -0.3983  2.8887  2.1257
  113CHL1   C2314607   0.146   5.538  14.541 -0.4817 -0.3941 -1.0632
  113CHL1  H23A14608   0.206   5.445  14.531 -0.2776 -0.1023 -2.7141
  113CHL1  H23B14609   0.038   5.514  14.530 -1.2699  0.9526  2.2314
  113CHL1   C2414610   0.185   5.634  14.425  0.2277 -0.4945 -0.0077
  113CHL1  H24A14611   0.148   5.738  14.441  0.2699 -0.5129  0.2160
  113CHL1  H24B14612   0.293   5.658  14.434  0.0540  0.0600  0.7426
  113CHL1   C2514613   0.152   5.598  14.280 -0.3184 -0.1964 -1.1027
  113CHL1   H2514614   0.046   5.568  14.272 -0.7433  0.6304  0.8565
  113CHL1   C2614615   0.180   5.705  14.178 -0.0856 -0.7841 -0.3063
  113CHL1  H26A14616   0.123   5.794  14.210  0.8482 -0.0767 -0.5543
  113CHL1  H26B14617   0.285   5.742  14.177 -0.6289  1.0366  1.8829
  113CHL1  H26C14618   0.160   5.658  14.079  2.8177 -0.0682 -1.3469
  113CHL1   C2714619   0.230   5.467  14.244  0.5125  1.0171  0.6859
  113CHL1  H27A14620   0.172   5.414  14.165 -0.2986  0.4666  1.6303
  113CHL1  H27B14621   0.330   5.489  14.202 -0.3235  1.6063 -1.1315
  113CHL1  H27C14622   0.231   5.403  14.334 -0.9730  1.2641  0.9044
  114CHL1    C314623   3.793   6.625  16.092  0.2602 -0.0009  0.1355
  114CHL1    H314624   3.818   6.524  16.053  1.4400 -0.0544  0.9834
  114CHL1    O314625   3.802   6.622  16.231 -0.1649  0.5526 -0.1533
  114CHL1   H3'14626   3.730   6.573  16.271  0.8538  1.1332  2.5943
  114CHL1    C414627   3.891   6.732  16.046  0.5279  0.4095  0.1499
  114CHL1   H4A14628   3.883   6.838  16.077  1.8727  0.7409 -0.5445
  114CHL1   H4B14629   3.989   6.701  16.088 -0.2696 -0.2003  1.5972
  114CHL1    C514630   3.889   6.729  15.896 -0.4910 -0.4629 -0.3121
  114CHL1    C614631   3.998   6.692  15.826  0.5012 -0.2365 -0.4555
  114CHL1    H614632   4.094   6.674  15.877  0.3190 -2.1929 -0.7600
  114CHL1    C714633   4.017   6.706  15.681 -0.6219 -0.8484 -0.1515
  114CHL1   H7A14634   4.108   6.769  15.666 -1.5326  0.1508 -1.7353
  114CHL1   H7B14635   4.030   6.602  15.646 -2.2517 -0.7112 -1.2688
  114CHL1    C814636   3.900   6.783  15.614  0.1913 -1.0107 -0.4048
  114CHL1    H814637   3.906   6.894  15.615  0.4529 -0.9979 -1.5719
  114CHL1   C1414638   3.897   6.746  15.466  0.1984 -0.4261  0.0151
  114CHL1   H1414639   3.882   6.637  15.476  2.7790 -0.7390  1.2749
  114CHL1   C1514640   4.030   6.763  15.383  0.2630 -0.5346 -0.5344
  114CHL1  H15A14641   4.076   6.855  15.425 -0.3404 -0.7617  0.6694
  114CHL1  H15B14642   4.088   6.670  15.399 -0.1454 -1.4453 -3.6584
  114CHL1   C1614643   3.973   6.773  15.241  0.0623 -0.3737 -0.7840
  114CHL1  H16A14644   3.997   6.878  15.213  0.3413 -0.1395  0.3111
  114CHL1  H16B14645   4.033   6.703  15.179  0.7655 -0.2939 -0.2009
  114CHL1   C1714646   3.819   6.759  15.244 -0.2253  0.4461  0.4406
  114CHL1   H1714647   3.802   6.650  15.230  1.2406  0.5816 -4.1441
  114CHL1   C1314648   3.780   6.808  15.385  0.0799  0.4081 -0.5822
  114CHL1   C1814649   3.801   6.963  15.380 -0.0722  0.3986 -0.1038
  114CHL1  H18A14650   3.720   6.998  15.314  0.1386 -0.8710 -1.0765
  114CHL1  H18B14651   3.791   7.019  15.476 -2.0958 -1.3283  0.7684
  114CHL1  H18C14652   3.901   6.991  15.342  0.6750 -0.0429  1.4304
  114CHL1   C1214653   3.647   6.760  15.448  0.0476  0.4502  0.5385
  114CHL1  H12A14654   3.565   6.808  15.391  2.0207  1.6177 -1.4480
  114CHL1  H12B14655   3.644   6.652  15.423  0.7481  1.2718 -3.8452
  114CHL1   C1114656   3.638   6.801  15.594 -0.0974  0.1260 -0.1995
  114CHL1  H11A14657   3.661   6.910  15.594  2.8813 -0.3991 -0.7983
  114CHL1  H11B14658   3.538   6.795  15.641 -0.2808  2.6978 -0.1196
  114CHL1    C914659   3.767   6.743  15.676  0.1056 -0.1255 -0.3399
  114CHL1    H914660   3.750   6.635  15.658 -1.2573 -0.0222  0.1621
  114CHL1   C1014661   3.756   6.771  15.831 -0.4846 -0.1414  0.2719
  114CHL1   C1914662   3.740   6.925  15.855 -0.5663  0.1273  0.2026
  114CHL1  H19A14663   3.813   6.979  15.791  0.2943  0.8057  1.6950
  114CHL1  H19B14664   3.639   6.956  15.822 -0.3032  1.1217  0.3141
  114CHL1  H19C14665   3.770   6.965  15.954  1.6634  0.4807 -0.5522
  114CHL1    C114666   3.642   6.683  15.893 -0.0271  0.8895 -0.2017
  114CHL1   H1A14667   3.537   6.706  15.865  0.4843  1.6709 -1.5539
  114CHL1   H1B14668   3.656   6.586  15.839 -1.2376  0.5775  0.0160
  114CHL1    C214669   3.650   6.654  16.045 -0.3261 -0.2874  0.4684
  114CHL1   H2A14670   3.589   6.563  16.061 -0.3766 -0.2141  0.6896
  114CHL1   H2B14671   3.610   6.731  16.115 -0.4693  0.0944 -0.0304
  114CHL1   C2014672   3.752   6.822  15.116  0.5055 -0.0951 -0.3314
  114CHL1   H2014673   3.739   6.931  15.130  2.1884  0.1429 -0.3873
  114CHL1   C2114674   3.613   6.754  15.096  0.2104  0.3935  0.0672
  114CHL1  H21A14675   3.562   6.775  15.000 -0.4999  0.3402  0.4248
  114CHL1  H21B14676   3.543   6.767  15.181 -1.5909  0.6821 -1.4071
  114CHL1  H21C14677   3.623   6.644  15.081 -2.8176  0.2188 -1.4019
  114CHL1   C2214678   3.838   6.795  14.991 -0.0352  0.4902  0.2033
  114CHL1  H22A14679   3.941   6.831  15.007  1.1921 -3.1889  1.6345
  114CHL1  H22B14680   3.853   6.686  14.977  1.2403  0.7653 -0.7102
  114CHL1   C2314681   3.780   6.852  14.853 -0.3362  0.1686 -0.0931
  114CHL1  H23A14682   3.683   6.803  14.831 -0.1085 -0.0734 -0.5895
  114CHL1  H23B14683   3.749   6.958  14.862 -0.6065 -0.0401  1.7077
  114CHL1   C2414684   3.876   6.827  14.729  0.2037  1.0142 -0.1084
  114CHL1  H24A14685   3.945   6.914  14.728 -1.2768  2.2316  0.7153
  114CHL1  H24B14686   3.930   6.729  14.737 -1.6347 -0.1017 -0.7449
  114CHL1   C2514687   3.801   6.814  14.596 -0.3450 -0.3744 -0.5671
  114CHL1   H2514688   3.709   6.757  14.624 -0.3088 -0.3917 -0.4824
  114CHL1   C2614689   3.760   6.948  14.540 -0.5035  0.5662 -0.4691
  114CHL1  H26A14690   3.727   7.014  14.624  1.4177 -0.6241  1.3463
  114CHL1  H26B14691   3.852   6.990  14.494 -0.6646  1.0201 -0.3781
  114CHL1  H26C14692   3.677   6.941  14.468 -0.2682  1.6575 -0.8640
  114CHL1   C2714693   3.885   6.736  14.494  0.4918  0.1860 -0.7286
  114CHL1  H27A14694   3.989   6.775  14.485  0.8837 -1.0380 -1.7570
  114CHL1  H27B14695   3.886   6.628  14.520 -2.0562 -0.0419 -1.2950
  114CHL1  H27C14696   3.835   6.748  14.395  1.0820 -0.4115 -1.1118
  115CHL1    C314697   0.915   1.649  16.137 -0.7598 -0.4420  0.9226
  115CHL1    H314698   1.012   1.595  16.132 -0.3706  0.3474 -2.4856
  115CHL1    O314699   0.876   1.680  16.265 -0.1536 -0.1106 -0.4295
  115CHL1   H3'14700   0.781   1.676  16.278 -0.2329 -0.6193 -1.0866
  115CHL1    C414701   0.950   1.780  16.062 -0.1828 -0.6961  1.0598
  115CHL1   H4A14702   0.862   1.848  16.059  0.1154 -0.3130 -1.8528
  115CHL1   H4B14703   1.033   1.831  16.114  0.5802 -0.6830 -0.1313
  115CHL1    C514704   0.977   1.750  15.918  0.2674 -0.3141  0.1437
  115CHL1    C614705   1.093   1.783  15.866 -0.2176 -0.1149  0.1418
  115CHL1    H614706   1.164   1.841  15.928 -2.2191  2.0992  0.5507
  115CHL1    C714707   1.130   1.786  15.721 -0.4981  0.5465 -0.2792
  115CHL1   H7A14708   1.177   1.880  15.685 -2.2414  0.2354 -3.8232
  115CHL1   H7B14709   1.203   1.705  15.702 -1.1551 -0.1773  0.2367
  115CHL1    C814710   1.006   1.763  15.634  0.2198  0.4249 -0.4388
  115CHL1    H814711   0.931   1.845  15.636 -1.8367 -1.3002 -1.9534
  115CHL1   C1414712   1.057   1.742  15.490  0.3458  0.5490 -0.1856
  115CHL1   H1414713   1.132   1.661  15.503  2.5783  2.4407 -0.8001
  115CHL1   C1514714   1.133   1.851  15.411  0.8402 -0.3557 -0.7511
  115CHL1  H15A14715   1.087   1.951  15.426  1.9363 -0.0137  0.4621
  115CHL1  H15B14716   1.242   1.847  15.429  0.7289  2.2758  1.0292
  115CHL1   C1614717   1.114   1.817  15.262 -0.2644  0.2595  0.3012
  115CHL1  H16A14718   1.075   1.903  15.203  1.4479  2.2717  1.9453
  115CHL1  H16B14719   1.209   1.778  15.219  0.0647  0.2870  0.9903
  115CHL1   C1714720   1.022   1.689  15.261  0.2029 -0.1312 -0.5601
  115CHL1   H1714721   1.091   1.606  15.286  2.7818  2.2623  0.8127
  115CHL1   C1314722   0.946   1.697  15.393 -0.2408  0.3064 -0.4378
  115CHL1   C1814723   0.844   1.809  15.386  0.1142 -0.1748 -0.0107
  115CHL1  H18A14724   0.891   1.898  15.339  0.0855  0.0540  0.3936
  115CHL1  H18B14725   0.750   1.775  15.337 -0.5549  0.5751  0.7094
  115CHL1  H18C14726   0.805   1.833  15.487 -1.3415 -0.4573 -0.4823
  115CHL1   C1214727   0.880   1.566  15.446 -0.2673 -0.1438  0.0031
  115CHL1  H12A14728   0.808   1.533  15.369  0.4052  0.9084 -1.1066
  115CHL1  H12B14729   0.961   1.491  15.454  0.7512  0.9151 -0.0212
  115CHL1   C1114730   0.833   1.575  15.590  0.2566  0.0143 -1.0037
  115CHL1  H11A14731   0.735   1.627  15.588  0.3612  0.2116 -1.0026
  115CHL1  H11B14732   0.809   1.475  15.634  1.4681  0.0256 -0.2802
  115CHL1    C914733   0.934   1.637  15.695 -0.1033  0.1919 -0.5924
  115CHL1    H914734   1.007   1.555  15.713 -1.0488 -0.8961 -1.4571
  115CHL1   C1014735   0.873   1.671  15.836 -0.5309 -0.3051 -0.4967
  115CHL1   C1914736   0.748   1.754  15.825 -0.2065  0.5644  0.0053
  115CHL1  H19A14737   0.653   1.696  15.820  1.2702 -1.8240 -2.2185
  115CHL1  H19B14738   0.724   1.808  15.919 -0.3434 -0.1097  0.3673
  115CHL1  H19C14739   0.756   1.823  15.739 -0.7999 -0.6247 -1.0284
  115CHL1    C114740   0.846   1.545  15.921 -0.0029 -0.7352  0.1511
  115CHL1   H1A14741   0.765   1.504  15.858 -0.4116  2.6189 -1.7350
  115CHL1   H1B14742   0.938   1.482  15.918  0.1551 -0.5068  0.1870
  115CHL1    C214743   0.802   1.568  16.064 -0.5546  0.0932 -0.5232
  115CHL1   H2A14744   0.791   1.474  16.122  1.5349 -1.3290 -2.2617
  115CHL1   H2B14745   0.709   1.629  16.071 -1.1704 -0.9606  0.8125
  115CHL1   C2014746   0.952   1.643  15.137  0.1352 -0.5764  0.1947
  115CHL1   H2014747   0.843   1.662  15.146  0.3450 -0.3204  3.2026
  115CHL1   C2114748   0.974   1.492  15.122 -0.2238 -0.7976 -0.8309
  115CHL1  H21A14749   0.947   1.444  15.218  0.3149  0.2116 -0.1536
  115CHL1  H21B14750   1.083   1.475  15.106  0.4980  0.6693  1.9534
  115CHL1  H21C14751   0.922   1.458  15.029 -0.7476 -1.4058 -0.3265
  115CHL1   C2214752   1.006   1.715  15.007  0.3718 -0.3545  0.7807
  115CHL1  H22A14753   0.997   1.822  15.033 -0.4174 -0.4268  0.8488
  115CHL1  H22B14754   1.117   1.708  15.005  0.3638 -0.6368  1.2437
  115CHL1   C2314755   0.943   1.682  14.864  0.0142 -0.6717 -0.3156
  115CHL1  H23A14756   0.948   1.572  14.847 -1.1664 -0.7173 -0.3923
  115CHL1  H23B14757   0.838   1.715  14.851  0.3421  0.1044 -1.0970
  115CHL1   C2414758   1.032   1.742  14.753 -0.9229 -0.4790  0.4010
  115CHL1  H24A14759   1.052   1.850  14.768 -1.7666 -0.3753  0.8561
  115CHL1  H24B14760   1.133   1.695  14.755 -0.3054  0.6689 -1.4015
  115CHL1   C2514761   0.985   1.726  14.605 -0.6218 -0.5139  0.0788
  115CHL1   H2514762   0.891   1.782  14.585  0.4414  1.5352  0.5524
  115CHL1   C2614763   1.091   1.786  14.510 -0.1100  0.2300  0.0745
  115CHL1  H26A14764   1.120   1.887  14.547  0.5320  0.6522 -1.4994
  115CHL1  H26B14765   1.190   1.736  14.513  0.4578  1.0371 -2.6263
  115CHL1  H26C14766   1.055   1.806  14.407  1.0188 -0.7560 -0.5395
  115CHL1   C2714767   0.965   1.582  14.576 -0.1224  0.0873 -0.7013
  115CHL1  H27A14768   0.944   1.571  14.468  0.9871  0.2433 -0.9458
  115CHL1  H27B14769   1.060   1.530  14.600 -1.2728 -0.7041  2.6968
  115CHL1  H27C14770   0.888   1.527  14.634  0.6851  0.2295  0.5450
  116CHL1    C314771   1.669   0.560  16.147  0.9067  0.1404 -0.5231
  116CHL1    H314772   1.562   0.562  16.115  0.3761  2.5167  1.1169
  116CHL1    O314773   1.664   0.557  16.288  0.1774 -0.4540  0.1755
  116CHL1   H3'14774   1.670   0.467  16.320  1.4478  0.4922  2.9547
  116CHL1    C414775   1.744   0.434  16.093 -0.4208  0.1100 -0.6825
  116CHL1   H4A14776   1.841   0.439  16.147 -1.1844 -0.9313  0.8251
  116CHL1   H4B14777   1.699   0.343  16.136 -2.6823  1.4770 -0.0148
  116CHL1    C514778   1.773   0.424  15.946  0.3370  0.3981  0.3931
  116CHL1    C614779   1.737   0.325  15.870 -0.0076 -0.3272  0.4078
  116CHL1    H614780   1.688   0.237  15.915 -0.0272 -0.5509 -0.0363
  116CHL1    C714781   1.777   0.303  15.730 -0.2311  0.9351  0.6218
  116CHL1   H7A14782   1.823   0.202  15.723 -0.7361  0.5451  2.3713
  116CHL1   H7B14783   1.688   0.286  15.667  1.1537 -0.9197 -0.9715
  116CHL1    C814784   1.875   0.415  15.680  0.3012  0.9949 -0.3962
  116CHL1    H814785   1.981   0.400  15.708 -0.0128 -0.3990  0.1142
  116CHL1   C1414786   1.862   0.415  15.524 -0.1687 -0.8596  0.1977
  116CHL1   H1414787   1.757   0.450  15.531  0.4897  1.0755  1.1316
  116CHL1   C1514788   1.885   0.290  15.444 -0.0790 -0.5933 -0.5020
  116CHL1  H15A14789   1.979   0.242  15.480 -0.0627  0.3580  0.7987
  116CHL1  H15B14790   1.799   0.222  15.458 -2.2256  2.3007  1.8234
  116CHL1   C1614791   1.900   0.346  15.299  0.1832  0.0783  0.0538
  116CHL1  H16A14792   1.998   0.308  15.262  0.5659  0.2445  0.8906
  116CHL1  H16B14793   1.823   0.311  15.226 -0.2968  0.6998  0.2582
  116CHL1   C1714794   1.886   0.495  15.306 -1.0588 -0.0691 -0.0366
  116CHL1   H1714795   1.779   0.523  15.301 -1.1430  0.1189  2.1194
  116CHL1   C1314796   1.930   0.533  15.451  0.1312 -0.1400  0.1628
  116CHL1   C1814797   2.080   0.523  15.463 -0.3229 -0.1243 -0.2267
  116CHL1  H18A14798   2.107   0.510  15.570  1.4374 -0.2493 -0.6621
  116CHL1  H18B14799   2.127   0.437  15.412  0.2623 -0.6430  1.1193
  116CHL1  H18C14800   2.138   0.613  15.433  0.5519 -0.4175  0.5414
  116CHL1   C1214801   1.870   0.663  15.507  0.2521  0.4737  0.1634
  116CHL1  H12A14802   1.912   0.755  15.460 -0.1382  0.1130 -0.9384
  116CHL1  H12B14803   1.760   0.669  15.491  0.3145 -0.0901 -0.5704
  116CHL1   C1114804   1.893   0.668  15.657 -0.2214 -0.4862 -0.1952
  116CHL1  H11A14805   2.001   0.676  15.684 -0.4680  0.4750  0.5342
  116CHL1  H11B14806   1.845   0.756  15.704  1.5474 -0.1445  1.1050
  116CHL1    C914807   1.835   0.554  15.735  0.3476  0.5590  0.0910
  116CHL1    H914808   1.726   0.561  15.712 -0.1352 -0.9442  1.6329
  116CHL1   C1014809   1.836   0.555  15.888  0.0198  0.2521  0.1917
  116CHL1   C1914810   1.983   0.554  15.936  0.2707  0.2274  0.4590
  116CHL1  H19A14811   2.051   0.629  15.893  2.0270 -0.3878  2.0205
  116CHL1  H19B14812   1.995   0.577  16.044  2.5046 -1.1027  0.5349
  116CHL1  H19C14813   2.022   0.450  15.931 -1.5708 -0.5050  0.4558
  116CHL1    C114814   1.758   0.681  15.940  0.3460  0.1865 -0.0119
  116CHL1   H1A14815   1.822   0.768  15.914  1.4022 -1.3141 -2.9569
  116CHL1   H1B14816   1.659   0.688  15.890  1.0975  2.1130 -1.3548
  116CHL1    C214817   1.738   0.684  16.093 -0.1663  0.1888  0.1993
  116CHL1   H2A14818   1.681   0.772  16.130 -0.8086 -0.2908  0.3669
  116CHL1   H2B14819   1.837   0.696  16.143 -0.2175  0.3963  0.2530
  116CHL1   C2014820   1.959   0.561  15.186  0.1376  0.0760  0.0435
  116CHL1   H2014821   2.063   0.527  15.204 -0.2236 -0.8052  0.5590
  116CHL1   C2114822   1.946   0.715  15.192 -0.2589 -0.8623 -0.9547
  116CHL1  H21A14823   1.984   0.759  15.098  0.0185  0.5715 -0.1969
  116CHL1  H21B14824   2.001   0.765  15.275 -0.4521 -0.9478 -0.7748
  116CHL1  H21C14825   1.838   0.742  15.199  0.0361  0.4836 -1.2835
  116CHL1   C2214826   1.921   0.503  15.058  0.1787  0.5903 -0.2987
  116CHL1  H22A14827   1.984   0.558  14.984 -0.3416  0.6000 -0.7411
  116CHL1  H22B14828   1.951   0.396  15.050 -1.2078  0.1847 -0.2208
  116CHL1   C2314829   1.777   0.522  15.016  0.5778  0.0561 -0.2524
  116CHL1  H23A14830   1.710   0.499  15.102 -0.6508 -0.0523 -1.2125
  116CHL1  H23B14831   1.773   0.627  14.982  2.4068  0.3385  0.3036
  116CHL1   C2414832   1.736   0.424  14.906  0.1872 -0.1995 -0.1182
  116CHL1  H24A14833   1.733   0.322  14.951  0.4893  0.8176  2.3238
  116CHL1  H24B14834   1.631   0.449  14.882  0.9156  2.9081 -0.4578
  116CHL1   C2514835   1.821   0.418  14.776 -0.6384  0.0005  0.0524
  116CHL1   H2514836   1.922   0.383  14.806 -1.4156 -1.2125  1.3768
  116CHL1   C2614837   1.773   0.314  14.670  0.6277 -0.0363 -0.9514
  116CHL1  H26A14838   1.846   0.306  14.587  0.0008  1.5089 -1.7094
  116CHL1  H26B14839   1.742   0.222  14.724 -1.8342  0.3053 -1.6333
  116CHL1  H26C14840   1.676   0.347  14.627  0.0105 -0.7893 -0.1784
  116CHL1   C2714841   1.827   0.554  14.704  0.0795 -0.2303  0.0588
  116CHL1  H27A14842   1.866   0.549  14.600 -1.9017  0.4709 -0.7612
  116CHL1  H27B14843   1.724   0.595  14.695  0.5396  1.1341  0.7875
  116CHL1  H27C14844   1.892   0.615  14.770  0.6850 -0.4153 -0.3619
  117CHL1    C314845   4.123   1.119  15.950 -0.2515 -0.0254 -0.4932
  117CHL1    H314846   4.108   1.229  15.945  1.0177  0.2966  1.4753
  117CHL1    O314847   4.093   1.087  16.083 -0.2073  0.8958 -0.1195
  117CHL1   H3'14848   4.045   1.004  16.091  1.3595 -0.0913 -0.2922
  117CHL1    C414849   4.021   1.046  15.864  0.7217  0.2192 -0.6880
  117CHL1   H4A14850   4.033   0.938  15.885  2.9653  0.1541 -1.8999
  117CHL1   H4B14851   3.921   1.072  15.905  1.1637  1.7782 -0.5264
  117CHL1    C514852   4.043   1.069  15.717  0.2743 -0.1053  0.4427
  117CHL1    C614853   3.942   1.136  15.650  0.7977  0.8215  0.4880
  117CHL1    H614854   3.844   1.162  15.692 -0.3186  1.5676 -2.3283
  117CHL1    C714855   3.959   1.165  15.501 -0.1719  0.3975 -0.4387
  117CHL1   H7A14856   3.868   1.157  15.439 -1.2862 -0.1096  1.1864
  117CHL1   H7B14857   3.991   1.269  15.480 -1.3814  0.4430 -2.2854
  117CHL1    C814858   4.085   1.092  15.436  0.4121  0.3507 -0.1789
  117CHL1    H814859   4.052   0.989  15.411 -2.2839  1.4874 -1.7170
  117CHL1   C1414860   4.124   1.163  15.312  0.1082 -0.1515 -0.1344
  117CHL1   H1414861   4.155   1.267  15.335 -3.6208  1.6296 -2.1829
  117CHL1   C1514862   4.006   1.194  15.209  0.3314  1.2096 -0.0714
  117CHL1  H15A14863   3.935   1.111  15.190  2.2519 -0.3743 -0.6947
  117CHL1  H15B14864   3.944   1.276  15.250 -1.4318 -0.8581  1.6128
  117CHL1   C1614865   4.077   1.224  15.077 -0.4663  0.0872 -0.1574
  117CHL1  H16A14866   4.042   1.148  15.003 -0.6268  1.4341 -1.5081
  117CHL1  H16B14867   4.045   1.323  15.038 -1.4882 -0.0161  0.3703
  117CHL1   C1714868   4.225   1.190  15.108  0.7112  0.0212 -0.5266
  117CHL1   H1714869   4.266   1.286  15.144 -0.7871  0.0543  1.2544
  117CHL1   C1314870   4.232   1.102  15.233 -0.1127  0.1525  0.6003
  117CHL1   C1814871   4.188   0.957  15.181 -0.0994 -0.0513  0.1792
  117CHL1  H18A14872   4.106   0.974  15.108  0.1018 -0.2543 -0.0975
  117CHL1  H18B14873   4.274   0.919  15.122 -0.2820  1.4405 -1.1467
  117CHL1  H18C14874   4.155   0.882  15.255 -2.7182  0.4755 -0.3415
  117CHL1   C1214875   4.360   1.106  15.318  0.8150  0.4199  0.2788
  117CHL1  H12A14876   4.442   1.049  15.269 -0.8341 -1.5231 -0.4262
  117CHL1  H12B14877   4.391   1.212  15.325  0.3497  0.7384 -1.7097
  117CHL1   C1114878   4.334   1.045  15.458 -0.2352 -0.6673 -0.1681
  117CHL1  H11A14879   4.318   0.935  15.446 -0.2244 -0.5505 -1.3694
  117CHL1  H11B14880   4.419   1.061  15.527  1.3066  0.9883 -2.2874
  117CHL1    C914881   4.209   1.102  15.527  0.3361 -0.1412 -0.2687
  117CHL1    H914882   4.215   1.210  15.550  0.8699 -0.1804 -0.2161
  117CHL1   C1014883   4.185   1.039  15.666 -0.1582  0.2041 -0.6461
  117CHL1   C1914884   4.188   0.884  15.658  0.6031  0.1151  0.4207
  117CHL1  H19A14885   4.123   0.858  15.571 -0.3317  1.8226  0.5739
  117CHL1  H19B14886   4.292   0.848  15.642  0.7499  0.7422 -0.0636
  117CHL1  H19C14887   4.145   0.838  15.750  3.6809 -1.3683  1.2407
  117CHL1    C114888   4.296   1.081  15.763 -0.1693  0.0595  0.5829
  117CHL1   H1A14889   4.383   1.019  15.732 -0.7640 -0.4359 -0.1467
  117CHL1   H1B14890   4.323   1.188  15.749 -1.4752  0.3636  0.2339
  117CHL1    C214891   4.270   1.072  15.911 -0.0285  0.0668  0.4383
  117CHL1   H2A14892   4.344   1.129  15.970 -0.8802  2.1434 -0.3863
  117CHL1   H2B14893   4.276   0.965  15.940  0.0413 -0.1355 -0.3004
  117CHL1   C2014894   4.302   1.152  14.980 -0.3646 -0.6908  0.4994
  117CHL1   H2014895   4.257   1.060  14.937  1.3232 -1.8067  1.0149
  117CHL1   C2114896   4.456   1.141  15.011  0.1662  0.3179  0.7531
  117CHL1  H21A14897   4.510   1.112  14.918 -2.1932 -0.6610 -0.3854
  117CHL1  H21B14898   4.487   1.065  15.087  1.3809 -0.7187 -0.6922
  117CHL1  H21C14899   4.495   1.241  15.039 -0.6453  0.8019  0.2044
  117CHL1   C2214900   4.282   1.255  14.868 -0.2659 -0.0568 -0.2469
  117CHL1  H22A14901   4.175   1.267  14.842 -0.3430  0.5701  0.3268
  117CHL1  H22B14902   4.317   1.352  14.911 -1.7239  1.5831 -2.5165
  117CHL1   C2314903   4.359   1.232  14.741  0.3693  0.1157 -0.3972
  117CHL1  H23A14904   4.467   1.256  14.746  0.0344  2.5313 -2.8287
  117CHL1  H23B14905   4.347   1.126  14.709  0.8335 -0.2004  0.4388
  117CHL1   C2414906   4.302   1.323  14.627 -0.3449  0.2922 -0.1522
  117CHL1  H24A14907   4.194   1.303  14.611  0.3365 -1.7768 -3.0516
  117CHL1  H24B14908   4.318   1.426  14.666 -0.5753  0.8791 -1.5405
  117CHL1   C2514909   4.358   1.296  14.489 -0.0827  0.0685  0.0786
  117CHL1   H2514910   4.436   1.219  14.510 -0.4802  0.0475  1.5811
  117CHL1   C2614911   4.248   1.252  14.382  0.2744  0.6151 -0.0784
  117CHL1  H26A14912   4.290   1.216  14.286 -1.7982  0.2425 -0.9135
  117CHL1  H26B14913   4.176   1.173  14.414 -0.8767  0.8871 -1.8241
  117CHL1  H26C14914   4.171   1.330  14.360 -0.4592 -1.2029 -5.4357
  117CHL1   C2714915   4.445   1.414  14.434  0.3285  0.3278  0.3975
  117CHL1  H27A14916   4.525   1.447  14.504  1.3607  0.5562 -0.8671
  117CHL1  H27B14917   4.483   1.382  14.335 -1.3363  0.6355 -0.3824
  117CHL1  H27C14918   4.369   1.495  14.425  0.6809  0.5732 -0.4133
  118CHL1    C314919   6.092   2.190  16.233  0.0628 -0.1089  0.3832
  118CHL1    H314920   6.185   2.130  16.224  0.6654  1.1164 -3.5943
  118CHL1    O314921   6.089   2.208  16.373  0.0025  0.0971  0.3916
  118CHL1   H3'14922   6.047   2.129  16.406  0.2341 -1.5700 -2.9099
  118CHL1    C414923   6.113   2.324  16.166  0.2560  0.0324  0.5575
  118CHL1   H4A14924   6.015   2.376  16.177 -0.3641 -1.2024  0.9960
  118CHL1   H4B14925   6.190   2.385  16.218  2.6083 -1.1533 -1.3686
  118CHL1    C514926   6.143   2.298  16.020  0.3718  0.5861 -0.2845
  118CHL1    C614927   6.264   2.323  15.972  0.1910 -0.0043 -0.7193
  118CHL1    H614928   6.341   2.364  16.039 -1.5624  2.7328 -0.2446
  118CHL1    C714929   6.297   2.312  15.822  0.8980  0.3269  0.1206
  118CHL1   H7A14930   6.336   2.410  15.786  2.1872  0.4515  1.7401
  118CHL1   H7B14931   6.375   2.237  15.798 -1.2114 -1.1159 -2.9559
  118CHL1    C814932   6.179   2.274  15.731  0.4964  0.2688  0.6736
  118CHL1    H814933   6.119   2.367  15.722 -2.7427 -1.5673  1.7274
  118CHL1   C1414934   6.228   2.224  15.597  0.8040  0.5418 -1.0023
  118CHL1   H1414935   6.288   2.131  15.609 -1.2400 -0.6526  0.7100
  118CHL1   C1514936   6.313   2.319  15.509  1.1065  1.1214 -0.2901
  118CHL1  H15A14937   6.253   2.412  15.517  1.3839  1.1376  3.0395
  118CHL1  H15B14938   6.415   2.350  15.541  1.4781 -0.1052 -0.2395
  118CHL1   C1614939   6.302   2.254  15.373  0.1709  0.3977 -0.2927
  118CHL1  H16A14940   6.283   2.327  15.291 -2.1019  0.4131  0.1923
  118CHL1  H16B14941   6.397   2.201  15.351 -0.5508 -1.2527  0.3714
  118CHL1   C1714942   6.181   2.145  15.378 -0.7386 -0.3517 -0.9904
  118CHL1   H1714943   6.234   2.048  15.392 -1.0285 -0.1938  1.6055
  118CHL1   C1314944   6.108   2.179  15.513  0.7755 -0.3516 -0.3117
  118CHL1   C1814945   6.010   2.298  15.482 -0.1245 -0.2353 -0.5235
  118CHL1  H18A14946   5.913   2.254  15.448 -1.3513  0.1388  2.2116
  118CHL1  H18B14947   5.978   2.343  15.579 -2.0984 -0.6847 -0.9129
  118CHL1  H18C14948   6.047   2.371  15.408  0.2162 -0.8051 -0.9190
  118CHL1   C1214949   6.043   2.056  15.587  0.3826  0.0987  0.0489
  118CHL1  H12A14950   5.975   2.001  15.518  0.0177 -1.8119  1.8100
  118CHL1  H12B14951   6.118   1.976  15.605 -1.8624 -2.1186  0.2053
  118CHL1   C1114952   5.986   2.095  15.720 -0.0944 -0.3213 -0.2441
  118CHL1  H11A14953   5.893   2.154  15.704 -2.1130 -3.3253 -0.4313
  118CHL1  H11B14954   5.939   2.011  15.775 -0.7605 -0.2104 -0.6360
  118CHL1    C914955   6.095   2.167  15.806 -0.5309 -0.0742  0.2606
  118CHL1    H914956   6.165   2.085  15.832 -0.5277 -0.1205  0.1075
  118CHL1   C1014957   6.040   2.226  15.937 -0.8044  0.0726  0.4143
  118CHL1   C1914958   5.933   2.333  15.918 -0.1022 -0.3074 -0.2902
  118CHL1  H19A14959   5.883   2.365  16.012  1.4044  1.9078 -0.1800
  118CHL1  H19B14960   5.978   2.419  15.864 -0.6541 -0.1249 -0.4659
  118CHL1  H19C14961   5.856   2.305  15.843  1.0994 -1.1957 -1.2221
  118CHL1    C114962   5.974   2.112  16.026  0.0130 -0.5063 -0.1728
  118CHL1   H1A14963   5.873   2.078  15.994  0.1540 -3.5371  2.1299
  118CHL1   H1B14964   6.034   2.021  16.005 -0.4123 -0.7434 -0.3822
  118CHL1    C214965   5.957   2.137  16.178 -0.0083 -0.2477  0.5892
  118CHL1   H2A14966   5.921   2.047  16.233 -2.3630  0.6607  0.6607
  118CHL1   H2B14967   5.878   2.213  16.197 -0.5597 -0.7243  0.2447
  118CHL1   C2014968   6.107   2.149  15.246  0.3212 -0.1967  0.4940
  118CHL1   H2014969   6.049   2.243  15.234  3.3159  1.5607 -1.3242
  118CHL1   C2114970   6.003   2.035  15.244 -0.5272 -0.3408 -0.0334
  118CHL1  H21A14971   5.942   2.038  15.151 -2.2482 -0.5610  1.0393
  118CHL1  H21B14972   5.938   2.052  15.332  0.8293 -0.1937  0.9760
  118CHL1  H21C14973   6.058   1.940  15.260 -1.0386 -0.5988  0.2151
  118CHL1   C2214974   6.205   2.129  15.128 -0.4482  0.2583 -0.9773
  118CHL1  H22A14975   6.264   2.222  15.132 -0.0432 -0.0288  0.3561
  118CHL1  H22B14976   6.260   2.034  15.145 -1.7908 -0.6362 -1.4899
  118CHL1   C2314977   6.147   2.115  14.985  0.0513  0.4514  0.1686
  118CHL1  H23A14978   6.082   2.026  14.971 -1.3036  1.5242 -0.6621
  118CHL1  H23B14979   6.071   2.191  14.958 -1.1735 -0.5624  0.6968
  118CHL1   C2414980   6.256   2.089  14.885 -0.6951 -0.0183  0.1350
  118CHL1  H24A14981   6.342   2.156  14.908 -2.6389  1.5777  3.5694
  118CHL1  H24B14982   6.296   1.986  14.898 -1.4048 -0.1449  1.4808
  118CHL1   C2514983   6.230   2.115  14.735  0.7813  0.2381  0.2652
  118CHL1   H2514984   6.170   2.208  14.732  0.6426  0.1240 -0.8037
  118CHL1   C2614985   6.352   2.144  14.648  0.6066  0.5593 -0.7350
  118CHL1  H26A14986   6.313   2.178  14.550 -2.0279  0.3996  0.1809
  118CHL1  H26B14987   6.407   2.223  14.704  1.9394  0.0452 -1.2842
  118CHL1  H26C14988   6.404   2.046  14.643  2.9897  1.6940  0.3550
  118CHL1   C2714989   6.136   2.001  14.672  0.0844 -0.1130 -0.4233
  118CHL1  H27A14990   6.193   1.905  14.674  0.2973  0.0238  0.1385
  118CHL1  H27B14991   6.042   1.998  14.731 -0.2480  0.7224 -0.8972
  118CHL1  H27C14992   6.110   2.032  14.569  0.2753 -0.7342 -0.6676
  119CHL1    C314993   0.209   1.654  15.899  0.1823 -0.7691 -0.7586
  119CHL1    H314994   0.206   1.761  15.873  2.9525  0.4325  2.9569
  119CHL1    O314995   0.177   1.653  16.038  0.8676  0.0917 -0.0648
  119CHL1   H3'14996   0.154   1.560  16.048 -0.8744  0.1402 -2.6469
  119CHL1    C414997   0.108   1.569  15.821 -0.4811  0.6202  0.3767
  119CHL1   H4A14998   0.111   1.464  15.859 -0.8160  0.8429  1.0430
  119CHL1   H4B14999   0.005   1.608  15.840 -2.0711 -3.2985  0.8084
  119CHL1    C515000   0.146   1.563  15.673 -0.3398 -0.0034  0.6322
  119CHL1    C615001   0.055   1.610  15.584 -0.4184 -0.0856  0.0942
  119CHL1    H615002  -0.042   1.645  15.622  0.1998  2.3974 -0.4363
  119CHL1    C715003   0.076   1.603  15.434  0.0718 -0.5603  0.0322
  119CHL1   H7A15004  -0.005   1.558  15.372 -1.0835 -0.5626  1.4815
  119CHL1   H7B15005   0.097   1.701  15.388  1.0426  0.1727  1.8998
  119CHL1    C815006   0.207   1.519  15.401 -0.1455 -0.4306 -1.2175
  119CHL1    H815007   0.181   1.413  15.416  2.1945 -0.7597  1.0711
  119CHL1   C1415008   0.254   1.561  15.261  0.1087  0.1176 -0.2399
  119CHL1   H1415009   0.278   1.669  15.266  1.0151 -0.0675 -0.3415
  119CHL1   C1515010   0.141   1.566  15.157 -0.9521 -0.1332 -0.3344
  119CHL1  H15A15011   0.076   1.478  15.178 -1.1673  0.1077  0.0316
  119CHL1  H15B15012   0.078   1.658  15.158  0.3155  0.7551  0.0147
  119CHL1   C1615013   0.218   1.558  15.023 -0.1694 -0.3939 -0.4109
  119CHL1  H16A15014   0.180   1.477  14.958 -1.1316 -1.1594  1.0461
  119CHL1  H16B15015   0.230   1.657  14.973 -0.5344 -0.4003 -0.5148
  119CHL1   C1715016   0.372   1.537  15.062  0.1784  0.9729 -0.2069
  119CHL1   H1715017   0.415   1.639  15.070  4.3236 -0.6034  0.4946
  119CHL1   C1315018   0.374   1.484  15.207 -0.9657 -0.3322  0.7059
  119CHL1   C1815019   0.322   1.328  15.214  0.6738 -0.8819 -0.2831
  119CHL1  H18A15020   0.308   1.288  15.317  3.8973  0.0985  0.6595
  119CHL1  H18B15021   0.225   1.322  15.160 -1.5139 -3.4364  3.3791
  119CHL1  H18C15022   0.393   1.263  15.159 -1.1671 -0.7011 -3.0360
  119CHL1   C1215023   0.493   1.508  15.291  0.3706  0.3496  0.0907
  119CHL1  H12A15024   0.582   1.447  15.263  0.2325 -1.6247  3.4071
  119CHL1  H12B15025   0.513   1.617  15.297  0.3837  0.2830  1.5656
  119CHL1   C1115026   0.461   1.474  15.440  0.7242 -0.2771  0.9335
  119CHL1  H11A15027   0.446   1.364  15.450  2.7349 -0.7348 -0.4521
  119CHL1  H11B15028   0.545   1.506  15.506  1.2651  0.5326 -0.1218
  119CHL1    C915029   0.321   1.543  15.497 -0.6738  0.0257 -0.7649
  119CHL1    H915030   0.345   1.651  15.489 -2.1906  0.4941  0.4746
  119CHL1   C1015031   0.289   1.510  15.645  0.1359 -0.6378  0.5104
  119CHL1   C1915032   0.306   1.361  15.675  0.4807 -0.3809 -0.9323
  119CHL1  H19A15033   0.406   1.315  15.657  0.4444 -0.3615 -1.1874
  119CHL1  H19B15034   0.297   1.337  15.783 -0.6235 -0.2240 -0.9835
  119CHL1  H19C15035   0.228   1.297  15.627 -1.2559  0.5369  0.5503
  119CHL1    C115036   0.388   1.596  15.726 -0.2402 -0.4438  0.3445
  119CHL1   H1A15037   0.489   1.554  15.711 -0.5332 -1.3010  0.7437
  119CHL1   H1B15038   0.388   1.702  15.693  1.3982 -1.0589 -1.9121
  119CHL1    C215039   0.354   1.608  15.874  0.3381  0.1550  0.9554
  119CHL1   H2A15040   0.430   1.675  15.920  0.3488 -0.1533  1.3889
  119CHL1   H2B15041   0.356   1.505  15.916  1.6017  0.0205  0.5977
  119CHL1   C2015042   0.464   1.461  14.949 -1.1404 -0.6461 -0.3539
  119CHL1   H2015043   0.439   1.354  14.960 -2.2310 -0.1297  4.6841
  119CHL1   C2115044   0.623   1.473  14.978 -0.1502  0.5478 -0.0303
  119CHL1  H21A15045   0.642   1.581  14.994 -0.7412  0.6875 -0.2344
  119CHL1  H21B15046   0.680   1.431  14.893  0.4890  0.2001  0.5655
  119CHL1  H21C15047   0.631   1.409  15.068  0.6670  0.8243  0.1075
  119CHL1   C2215048   0.427   1.516  14.809  0.2066 -0.3913  0.5602
  119CHL1  H22A15049   0.323   1.479  14.796 -0.0594  0.7859 -0.8940
  119CHL1  H22B15050   0.426   1.627  14.811  0.0612 -0.3944  0.6598
  119CHL1   C2315051   0.505   1.454  14.702 -0.6481 -0.1252  0.6680
  119CHL1  H23A15052   0.613   1.481  14.704 -0.0709 -2.1881 -0.0696
  119CHL1  H23B15053   0.497   1.345  14.719  1.4549 -1.1959 -3.7236
  119CHL1   C2415054   0.451   1.485  14.561  0.8729 -0.1817  0.4652
  119CHL1  H24A15055   0.342   1.470  14.541  1.1099  0.5786 -1.6105
  119CHL1  H24B15056   0.477   1.590  14.536  0.0305  0.0802  0.6406
  119CHL1   C2515057   0.519   1.402  14.445  0.5018 -0.3979  0.3780
  119CHL1   H2515058   0.620   1.449  14.441  0.1578  0.4920  1.5147
  119CHL1   C2615059   0.535   1.252  14.470  0.6817 -0.0738 -0.0943
  119CHL1  H26A15060   0.582   1.242  14.570 -2.9638 -0.1620  1.7797
  119CHL1  H26B15061   0.433   1.213  14.489 -0.4921  1.5765 -2.4738
  119CHL1  H26C15062   0.588   1.193  14.392  1.3019 -0.9260  0.9422
  119CHL1   C2715063   0.455   1.430  14.305 -0.2158  0.0772  0.5358
  119CHL1  H27A15064   0.446   1.537  14.274 -1.3364 -0.4204 -0.9528
  119CHL1  H27B15065   0.520   1.381  14.229 -0.9995  0.4592 -0.4041
  119CHL1  H27C15066   0.356   1.383  14.289 -1.0727  1.9443  0.0053
  120CHL1    C315067   5.742   1.489  16.034  0.2198 -0.1308  0.1596
  120CHL1    H315068   5.728   1.380  16.042 -0.2356 -0.0776  0.0791
  120CHL1    O315069   5.763   1.545  16.164  0.0801  0.4875 -0.4170
  120CHL1   H3'15070   5.776   1.640  16.156  2.6850  0.3274  0.7599
  120CHL1    C415071   5.868   1.511  15.947  0.0577 -0.4297  0.1080
  120CHL1   H4A15072   5.904   1.614  15.965 -0.9108 -0.1760  0.6844
  120CHL1   H4B15073   5.946   1.443  15.988  1.9509 -0.1764 -2.8238
  120CHL1    C515074   5.835   1.493  15.801 -0.6870  0.0445  0.6854
  120CHL1    C615075   5.903   1.404  15.722  0.2520  0.5168  0.0772
  120CHL1    H615076   5.985   1.341  15.760  1.4154  1.0928 -1.3903
  120CHL1    C715077   5.878   1.382  15.580 -0.5887  0.0385  0.1364
  120CHL1   H7A15078   5.977   1.369  15.532 -0.3525  2.6516 -0.2398
  120CHL1   H7B15079   5.804   1.302  15.559 -0.4591 -0.3361  1.0832
  120CHL1    C815080   5.824   1.521  15.521  0.2925 -0.0114  1.1558
  120CHL1    H815081   5.904   1.598  15.530 -0.7047  1.2556 -0.3458
  120CHL1   C1415082   5.797   1.513  15.372  0.4506  0.3681  0.0148
  120CHL1   H1415083   5.720   1.433  15.366  0.0513  0.7908 -0.5997
  120CHL1   C1515084   5.910   1.453  15.279  0.0201 -0.2388 -0.7796
  120CHL1  H15A15085   6.005   1.486  15.326 -0.3147 -1.0981  0.5358
  120CHL1  H15B15086   5.908   1.342  15.281 -2.2429 -0.2248 -0.5022
  120CHL1   C1615087   5.878   1.500  15.137 -0.3456  0.7962  0.0008
  120CHL1  H16A15088   5.958   1.572  15.109 -0.8277  0.7967 -1.4475
  120CHL1  H16B15089   5.875   1.412  15.070 -0.1516  0.0613  0.9439
  120CHL1   C1715090   5.747   1.572  15.152  0.8077 -0.9236  0.2971
  120CHL1   H1715091   5.668   1.494  15.156  1.4435 -1.5263  1.9412
  120CHL1   C1315092   5.745   1.629  15.298 -0.0110  0.2579 -0.5897
  120CHL1   C1815093   5.838   1.751  15.300 -0.6882 -0.4472  0.5319
  120CHL1  H18A15094   5.801   1.834  15.236 -0.2442 -1.7878 -1.5782
  120CHL1  H18B15095   5.859   1.787  15.403  1.3901 -2.1837  0.7890
  120CHL1  H18C15096   5.935   1.727  15.252 -0.7535  0.1233  0.1042
  120CHL1   C1215097   5.611   1.658  15.362  1.0418 -0.2037 -0.3808
  120CHL1  H12A15098   5.568   1.757  15.335  2.4360  0.3917 -0.5153
  120CHL1  H12B15099   5.537   1.578  15.340  0.0568  0.1931  1.3693
  120CHL1   C1115100   5.627   1.682  15.510  0.2586 -0.0005  0.2305
  120CHL1  H11A15101   5.681   1.777  15.529  1.1330 -0.6039  0.7902
  120CHL1  H11B15102   5.527   1.702  15.555  1.5549  1.4927  2.6831
  120CHL1    C915103   5.700   1.566  15.591  0.1226 -1.1815  0.4776
  120CHL1    H915104   5.632   1.479  15.578  1.1165 -2.0817  1.2031
  120CHL1   C1015105   5.725   1.586  15.742  0.3982 -0.2320 -0.8701
  120CHL1   C1915106   5.764   1.739  15.758  0.3330  0.6416 -0.5333
  120CHL1  H19A15107   5.849   1.753  15.689 -0.2725 -1.5681 -1.8259
  120CHL1  H19B15108   5.679   1.805  15.730  0.1673 -0.3464 -2.4669
  120CHL1  H19C15109   5.794   1.765  15.862 -1.3490  0.8407 -0.0539
  120CHL1    C115110   5.593   1.564  15.819 -0.2900  0.0010  0.4199
  120CHL1   H1A15111   5.514   1.638  15.791 -2.3775 -1.8082  1.2920
  120CHL1   H1B15112   5.560   1.460  15.800 -1.8512  0.6442 -0.6396
  120CHL1    C215113   5.611   1.565  15.972  0.1692  0.0921  0.4223
  120CHL1   H2A15114   5.515   1.537  16.020  0.6725  1.5166  2.3906
  120CHL1   H2B15115   5.619   1.674  15.993 -0.5002  0.8411 -2.6710
  120CHL1   C2015116   5.707   1.653  15.024  0.3315 -0.5210 -0.0362
  120CHL1   H2015117   5.769   1.742  14.999 -0.3149 -0.4184 -1.3803
  120CHL1   C2115118   5.560   1.704  15.043  0.2379 -0.2933  0.6205
  120CHL1  H21A15119   5.551   1.792  15.110 -1.1425  0.2595 -0.2405
  120CHL1  H21B15120   5.495   1.615  15.059 -1.1510  0.7280  0.7981
  120CHL1  H21C15121   5.516   1.740  14.947 -1.9993 -2.0693  0.8866
  120CHL1   C2215122   5.734   1.571  14.901 -0.0634  0.1515 -0.2094
  120CHL1  H22A15123   5.843   1.558  14.891 -0.1916 -0.0650 -1.4993
  120CHL1  H22B15124   5.679   1.475  14.900 -0.8064  0.5667 -0.3572
  120CHL1   C2315125   5.704   1.645  14.776  0.5076 -0.3448  0.1135
  120CHL1  H23A15126   5.596   1.671  14.772  0.9385  1.7951  0.9510
  120CHL1  H23B15127   5.754   1.744  14.777 -1.2809  0.6338 -1.1245
  120CHL1   C2415128   5.739   1.554  14.653  0.8058 -0.1257 -0.0824
  120CHL1  H24A15129   5.839   1.512  14.678  0.0104 -0.8279  2.1680
  120CHL1  H24B15130   5.667   1.471  14.640  0.9259 -0.4353  1.1190
  120CHL1   C2515131   5.750   1.633  14.519  0.2502 -0.2653  0.9798
  120CHL1   H2515132   5.804   1.726  14.545  0.1550 -0.6536  2.7054
  120CHL1   C2615133   5.824   1.548  14.412 -0.3388  0.0100 -0.1172
  120CHL1  H26A15134   5.926   1.529  14.454  0.3343 -1.9024 -2.4214
  120CHL1  H26B15135   5.782   1.448  14.390  2.6505 -1.7794  1.6390
  120CHL1  H26C15136   5.835   1.593  14.311  0.3169  0.1900  0.0276
  120CHL1   C2715137   5.610   1.673  14.463 -0.4614  0.1216  0.3608
  120CHL1  H27A15138   5.558   1.756  14.515 -0.6521  1.8261 -2.3771
  120CHL1  H27B15139   5.621   1.704  14.358 -0.3076  1.4721  0.7605
  120CHL1  H27C15140   5.535   1.591  14.455 -0.3862 -0.0139  0.9453
  121CHL1    C315141   4.532   4.664  12.473 -0.1968  0.3966 -0.5115
  121CHL1    H315142   4.523   4.555  12.454  0.8514 -0.2067  1.9290
  121CHL1    O315143   4.540   4.739  12.356  0.0400 -0.0736  0.3190
  121CHL1   H3'15144   4.452   4.736  12.318  0.2704  0.1381 -0.2369
  121CHL1    C415145   4.415   4.703  12.558  0.5274  0.3158 -0.4981
  121CHL1   H4A15146   4.429   4.813  12.566  0.8368  0.1739  1.9164
  121CHL1   H4B15147   4.313   4.686  12.518  0.2515 -2.2417  1.1029
  121CHL1    C515148   4.420   4.642  12.699 -0.6473  0.0805  0.1115
  121CHL1    C615149   4.318   4.584  12.767 -0.2383  0.2824  0.5338
  121CHL1    H615150   4.220   4.582  12.716 -0.9276 -0.8685  1.8360
  121CHL1    C715151   4.317   4.513  12.901 -0.7772 -0.3673 -0.6014
  121CHL1   H7A15152   4.223   4.535  12.956 -0.6522 -1.3793  0.0577
  121CHL1   H7B15153   4.324   4.402  12.901 -0.1638 -0.3528 -2.0665
  121CHL1    C815154   4.429   4.576  12.979  0.5226  0.0555 -0.1965
  121CHL1    H815155   4.404   4.683  12.998 -0.0673  0.2091 -1.7064
  121CHL1   C1415156   4.443   4.511  13.117  0.7216  0.1281 -0.2976
  121CHL1   H1415157   4.473   4.406  13.099  1.2363  0.4858 -1.7125
  121CHL1   C1515158   4.309   4.507  13.202  0.2206 -0.1986 -0.1903
  121CHL1  H15A15159   4.253   4.602  13.191  0.3332  0.0531  1.2170
  121CHL1  H15B15160   4.241   4.425  13.171 -0.6544 -0.3998  2.0822
  121CHL1   C1615161   4.368   4.496  13.347 -0.2613  0.3665 -0.1143
  121CHL1  H16A15162   4.342   4.589  13.401  2.6474  2.2181 -1.6335
  121CHL1  H16B15163   4.318   4.414  13.402  1.5447 -2.0068 -1.7627
  121CHL1   C1715164   4.524   4.476  13.339 -0.0771 -0.0638  0.5304
  121CHL1   H1715165   4.543   4.371  13.309 -0.3753 -0.0953  0.4508
  121CHL1   C1315166   4.555   4.565  13.210 -0.4765 -0.0687  0.0733
  121CHL1   C1815167   4.526   4.716  13.241 -0.3655 -0.0125  0.4379
  121CHL1  H18A15168   4.604   4.751  13.312  0.1239 -0.2497  0.0206
  121CHL1  H18B15169   4.528   4.780  13.150 -2.0777  0.6820  0.8442
  121CHL1  H18C15170   4.420   4.729  13.273 -0.0327 -2.3920  2.8723
  121CHL1   C1215171   4.692   4.555  13.143  0.1300  0.5169  0.2898
  121CHL1  H12A15172   4.763   4.621  13.197 -1.7041  2.9238 -0.0471
  121CHL1  H12B15173   4.739   4.455  13.132  1.0205  1.1952 -3.5652
  121CHL1   C1115174   4.682   4.623  12.999  0.6115  0.1831  0.2963
  121CHL1  H11A15175   4.675   4.732  13.020 -0.2759 -0.0228  1.1223
  121CHL1  H11B15176   4.780   4.633  12.948  0.9337  2.6692  1.2450
  121CHL1    C915177   4.564   4.572  12.906  0.3452  0.8297 -0.0731
  121CHL1    H915178   4.588   4.467  12.878  0.9636  0.6206  1.1557
  121CHL1   C1015179   4.553   4.651  12.769  0.7097 -0.1749 -0.0192
  121CHL1   C1915180   4.565   4.800  12.797 -0.1557  0.5159 -0.7869
  121CHL1  H19A15181   4.670   4.820  12.826 -0.3867 -1.7432  2.0246
  121CHL1  H19B15182   4.549   4.871  12.713  4.9748  0.9713 -1.7120
  121CHL1  H19C15183   4.505   4.830  12.886  0.4183 -2.8853  0.9064
  121CHL1    C115184   4.661   4.605  12.679 -0.4204  0.0230 -0.0159
  121CHL1   H1A15185   4.762   4.614  12.724 -0.3398 -1.5164  0.1716
  121CHL1   H1B15186   4.650   4.497  12.657  3.5226 -0.4879 -0.2084
  121CHL1    C215187   4.666   4.681  12.545 -0.6373 -0.1779 -0.3054
  121CHL1   H2A15188   4.749   4.650  12.478  0.9740  3.7436 -0.3757
  121CHL1   H2B15189   4.689   4.787  12.568 -2.1009  0.3631 -1.1598
  121CHL1   C2015190   4.609   4.501  13.470  0.4423  0.0491  0.1215
  121CHL1   H2015191   4.650   4.605  13.469  0.1418  0.1698  0.1148
  121CHL1   C2115192   4.729   4.405  13.474  0.0489 -0.5682 -0.2626
  121CHL1  H21A15193   4.780   4.411  13.375  0.3876  1.7961  0.0094
  121CHL1  H21B15194   4.690   4.302  13.489  0.1104 -0.5821 -0.2041
  121CHL1  H21C15195   4.795   4.421  13.562 -1.4864 -1.2256  1.0636
  121CHL1   C2215196   4.526   4.483  13.602 -0.0759 -0.0146 -0.4224
  121CHL1  H22A15197   4.435   4.547  13.602  0.2856  0.5433 -1.8537
  121CHL1  H22B15198   4.496   4.376  13.607  1.1442 -0.3125  2.1163
  121CHL1   C2315199   4.606   4.513  13.726 -0.7258 -0.7124  0.0367
  121CHL1  H23A15200   4.675   4.427  13.738 -1.2692 -1.0793  0.5892
  121CHL1  H23B15201   4.655   4.613  13.721  0.2147 -1.1211  0.8077
  121CHL1   C2415202   4.528   4.529  13.855 -0.1594  0.3468 -0.0565
  121CHL1  H24A15203   4.447   4.604  13.846 -1.0320 -0.5567  0.2237
  121CHL1  H24B15204   4.477   4.436  13.887  2.2443 -0.9902  0.1403
  121CHL1   C2515205   4.613   4.570  13.985 -0.5032 -0.4055  0.6621
  121CHL1   H2515206   4.557   4.570  14.081  0.7584 -3.7555  1.5380
  121CHL1   C2615207   4.728   4.473  14.010  0.1391  0.7721 -0.2152
  121CHL1  H26A15208   4.715   4.364  13.992  0.3957  0.5817  0.7098
  121CHL1  H26B15209   4.812   4.502  13.942  1.3404 -2.4387 -0.2855
  121CHL1  H26C15210   4.771   4.483  14.112 -2.2585  0.9130  0.8397
  121CHL1   C2715211   4.668   4.713  13.976  0.3817  0.1324  0.5760
  121CHL1  H27A15212   4.728   4.721  13.883 -0.7138  1.1392 -0.0671
  121CHL1  H27B15213   4.597   4.789  13.937  1.9239  1.2897 -0.0802
  121CHL1  H27C15214   4.710   4.741  14.075 -0.0137  1.8336  0.2993
  122CHL1    C315215   3.647   5.206  12.451 -0.6351 -0.1497  0.4759
  122CHL1    H315216   3.748   5.161  12.438 -0.4764  0.1702  0.5737
  122CHL1    O315217   3.594   5.240  12.323 -0.3628 -0.3999 -0.1971
  122CHL1   H3'15218   3.509   5.280  12.345  0.1207  0.4062  0.2759
  122CHL1    C415219   3.546   5.110  12.518  0.1224  0.1282 -0.3103
  122CHL1   H4A15220   3.448   5.162  12.509 -1.1847 -2.3461 -1.4957
  122CHL1   H4B15221   3.537   5.021  12.452  2.6101  0.4507 -1.1569
  122CHL1    C515222   3.570   5.070  12.658  0.3269 -0.4921 -0.4652
  122CHL1    C615223   3.582   4.939  12.697 -0.5931  0.0615 -0.2841
  122CHL1    H615224   3.564   4.852  12.633 -0.1594 -0.0075 -0.3176
  122CHL1    C715225   3.600   4.916  12.842  0.8478  0.2758  0.4981
  122CHL1   H7A15226   3.522   4.840  12.865  0.0819  1.2900  1.3039
  122CHL1   H7B15227   3.705   4.881  12.858  1.1415  0.0625 -1.6549
  122CHL1    C815228   3.581   5.031  12.937  0.1766  0.1745  0.2745
  122CHL1    H815229   3.473   5.058  12.946  0.1708 -0.2305  1.5339
  122CHL1   C1415230   3.639   5.003  13.074  0.1973  0.3356  1.2029
  122CHL1   H1415231   3.747   4.983  13.060  0.1773  1.3591 -0.6833
  122CHL1   C1515232   3.567   4.878  13.135 -0.0479  1.0109 -0.1122
  122CHL1  H15A15233   3.460   4.885  13.105  0.4677 -0.8301 -2.6283
  122CHL1  H15B15234   3.613   4.788  13.091  2.3195  1.8034  0.6035
  122CHL1   C1615235   3.583   4.903  13.287  0.0625 -0.7940  0.2740
  122CHL1  H16A15236   3.481   4.915  13.328 -0.4954 -0.4378 -1.1441
  122CHL1  H16B15237   3.632   4.814  13.333 -1.3473 -2.0869 -0.6232
  122CHL1   C1715238   3.674   5.025  13.300 -0.2836  0.3700  0.6737
  122CHL1   H1715239   3.774   4.979  13.282 -0.6875 -0.7759  1.2828
  122CHL1   C1315240   3.631   5.113  13.173  0.2327 -1.1113 -0.3256
  122CHL1   C1815241   3.488   5.170  13.179 -0.2200 -0.2369  0.1695
  122CHL1  H18A15242   3.484   5.257  13.248  0.4716 -0.9569  1.1541
  122CHL1  H18B15243   3.436   5.197  13.085 -1.4088 -3.0809 -0.0969
  122CHL1  H18C15244   3.424   5.088  13.218  0.6247 -1.1342 -0.2992
  122CHL1   C1215245   3.730   5.221  13.122  0.2092  0.2493  0.2480
  122CHL1  H12A15246   3.719   5.300  13.199  0.4668 -0.9742  1.5896
  122CHL1  H12B15247   3.830   5.173  13.127 -0.2707 -0.8484 -0.3419
  122CHL1   C1115248   3.680   5.274  12.984 -0.6912  0.5365 -0.1028
  122CHL1  H11A15249   3.582   5.325  12.996 -1.2521 -0.1809 -1.4373
  122CHL1  H11B15250   3.750   5.351  12.944 -0.3022 -0.5082 -1.4996
  122CHL1    C915251   3.658   5.157  12.883  0.6922 -0.1060  0.0377
  122CHL1    H915252   3.758   5.115  12.860  1.0740  1.0151 -0.4447
  122CHL1   C1015253   3.603   5.199  12.753  0.0012  0.4680  1.0025
  122CHL1   C1915254   3.470   5.271  12.770 -0.7210  0.2578 -0.6392
  122CHL1  H19A15255   3.480   5.361  12.834 -0.4343 -0.1788 -0.0673
  122CHL1  H19B15256   3.426   5.316  12.678  0.0148 -1.0284 -1.6745
  122CHL1  H19C15257   3.400   5.206  12.828  1.8378 -0.1584  2.1844
  122CHL1    C115258   3.703   5.299  12.683  0.3802 -0.0828 -0.0447
  122CHL1   H1A15259   3.707   5.401  12.725 -0.2744 -0.2654  0.4635
  122CHL1   H1B15260   3.809   5.265  12.672  0.1276 -1.0335  0.4052
  122CHL1    C215261   3.667   5.333  12.534  0.3063 -0.3285  0.1330
  122CHL1   H2A15262   3.754   5.383  12.485  0.4265 -0.2789  0.3927
  122CHL1   H2B15263   3.583   5.405  12.524  1.3677  1.0398  0.6234
  122CHL1   C2015264   3.671   5.091  13.439  0.1393 -0.5787 -0.2931
  122CHL1   H2015265   3.575   5.147  13.441 -0.7472 -1.8972 -2.3450
  122CHL1   C2115266   3.779   5.198  13.453  1.3815  0.7887  0.0228
  122CHL1  H21A15267   3.880   5.158  13.427  0.3408 -1.6135 -0.5475
  122CHL1  H21B15268   3.786   5.245  13.553  1.6678  1.1383 -0.1587
  122CHL1  H21C15269   3.748   5.288  13.395 -0.1362 -0.9798 -2.0391
  122CHL1   C2215270   3.660   4.996  13.560 -0.0627  0.4868 -0.4625
  122CHL1  H22A15271   3.577   4.922  13.549  1.4922 -1.2968 -0.7429
  122CHL1  H22B15272   3.749   4.929  13.561 -0.2450  0.2368 -0.6864
  122CHL1   C2315273   3.643   5.058  13.698  0.8066  0.1319  0.0790
  122CHL1  H23A15274   3.736   5.116  13.715  2.0586 -1.4443 -1.0357
  122CHL1  H23B15275   3.560   5.132  13.697 -0.0363 -0.6157 -3.9895
  122CHL1   C2415276   3.614   4.946  13.800 -0.2220 -0.3548 -0.4131
  122CHL1  H24A15277   3.509   4.913  13.787  0.3336 -3.3737  1.5756
  122CHL1  H24B15278   3.671   4.852  13.781  0.0369 -0.3528  0.3092
  122CHL1   C2515279   3.631   4.979  13.951  0.3523 -0.0106 -0.2297
  122CHL1   H2515280   3.617   5.087  13.971  1.3623 -0.1038  1.1231
  122CHL1   C2615281   3.532   4.892  14.040 -0.4324 -0.1778 -0.2545
  122CHL1  H26A15282   3.503   4.957  14.126  1.0294  1.0460 -0.6470
  122CHL1  H26B15283   3.442   4.860  13.984 -2.5846  0.3719  2.6138
  122CHL1  H26C15284   3.593   4.807  14.078 -0.2017 -0.7057 -1.7354
  122CHL1   C2715285   3.775   4.949  13.999  0.8033  0.0958 -0.0223
  122CHL1  H27A15286   3.850   5.009  13.943 -0.5542  0.2508 -1.7452
  122CHL1  H27B15287   3.780   4.973  14.107  1.4332 -1.5020  0.3288
  122CHL1  H27C15288   3.806   4.844  13.982  0.7143  0.5056 -3.3104
  123CHL1    C315289   5.689   5.219  12.242 -0.9033 -0.2984 -0.4617
  123CHL1    H315290   5.642   5.120  12.221 -0.8438 -0.2538 -0.8155
  123CHL1    O315291   5.728   5.259  12.112 -0.2144 -0.9184  0.9083
  123CHL1   H3'15292   5.641   5.260  12.071 -0.3286 -1.6098  1.1242
  123CHL1    C415293   5.579   5.312  12.287 -0.0866 -0.6042 -0.3228
  123CHL1   H4A15294   5.626   5.412  12.280 -3.3153  1.2726  2.1298
  123CHL1   H4B15295   5.492   5.316  12.218 -0.5018  1.8974  0.2583
  123CHL1    C515296   5.535   5.295  12.436  1.2730  0.1092  0.8173
  123CHL1    C615297   5.413   5.288  12.485  0.1659 -0.2584  0.5423
  123CHL1    H615298   5.326   5.281  12.418 -0.9404  0.3232  1.8723
  123CHL1    C715299   5.382   5.283  12.633  0.8669  0.1645  0.8227
  123CHL1   H7A15300   5.295   5.351  12.643  0.4125 -0.6981  3.1931
  123CHL1   H7B15301   5.353   5.180  12.661  1.0160 -0.6904 -1.8806
  123CHL1    C815302   5.499   5.325  12.730 -0.1530  0.2910 -0.4188
  123CHL1    H815303   5.516   5.434  12.735  0.9376  0.0832  0.8392
  123CHL1   C1415304   5.466   5.264  12.869  0.9473 -0.6037  0.0378
  123CHL1   H1415305   5.458   5.154  12.853  1.5889 -0.6197 -0.1751
  123CHL1   C1515306   5.327   5.300  12.913  0.3848  0.1761 -1.4567
  123CHL1  H15A15307   5.306   5.409  12.903  0.6881  0.4135  0.1206
  123CHL1  H15B15308   5.246   5.248  12.858  2.0196 -2.3729 -1.6277
  123CHL1   C1615309   5.339   5.261  13.063 -0.2403 -0.5669 -0.1625
  123CHL1  H16A15310   5.309   5.349  13.125 -1.1987 -0.7344 -0.3743
  123CHL1  H16B15311   5.272   5.175  13.082 -0.2042 -0.6287 -0.3185
  123CHL1   C1715312   5.488   5.226  13.098 -0.4346 -0.4466  0.1637
  123CHL1   H1715313   5.491   5.116  13.080 -1.1676 -0.2459 -1.4170
  123CHL1   C1315314   5.568   5.283  12.974  0.2403 -0.3041  0.1017
  123CHL1   C1815315   5.596   5.431  13.002  0.0445 -0.2752 -0.5404
  123CHL1  H18A15316   5.650   5.456  13.095 -0.6108 -0.3654 -0.1311
  123CHL1  H18B15317   5.653   5.481  12.920 -0.1843 -1.5037 -1.4715
  123CHL1  H18C15318   5.501   5.487  12.992  0.6303  0.7433 -0.5081
  123CHL1   C1215319   5.694   5.216  12.925 -0.1905  0.0027 -0.7728
  123CHL1  H12A15320   5.777   5.229  12.997  0.0252  2.9739 -1.4209
  123CHL1  H12B15321   5.671   5.108  12.932  2.3983 -0.4991  1.8334
  123CHL1   C1115322   5.741   5.255  12.781 -0.5542  0.1444 -0.3119
  123CHL1  H11A15323   5.761   5.363  12.797 -0.6543 -0.0217  1.0633
  123CHL1  H11B15324   5.828   5.196  12.747  2.0315  2.3885  1.9153
  123CHL1    C915325   5.627   5.260  12.674 -0.1098  0.1062 -0.2657
  123CHL1    H915326   5.606   5.151  12.668  3.4823 -0.8116  1.1866
  123CHL1   C1015327   5.665   5.305  12.532  0.2929 -0.0551  0.5041
  123CHL1   C1915328   5.733   5.444  12.545 -0.1289  0.2816 -0.3403
  123CHL1  H19A15329   5.766   5.492  12.450 -0.8227  0.6865 -0.3840
  123CHL1  H19B15330   5.659   5.513  12.590  0.9001  1.0028  0.2707
  123CHL1  H19C15331   5.821   5.432  12.611 -0.7730 -1.4712  0.2780
  123CHL1    C115332   5.764   5.201  12.482  1.0459  0.3949  0.1357
  123CHL1   H1A15333   5.862   5.199  12.536  1.2744 -0.5663 -0.3026
  123CHL1   H1B15334   5.716   5.105  12.511  0.6245  0.9624  1.4083
  123CHL1    C215335   5.812   5.222  12.336  0.0426  0.2197 -0.3236
  123CHL1   H2A15336   5.888   5.143  12.313  0.1156  0.5092 -1.1397
  123CHL1   H2B15337   5.871   5.316  12.333  3.7939 -1.8144  1.8764
  123CHL1   C2015338   5.540   5.240  13.243  0.2010  0.3809 -0.1856
  123CHL1   H2015339   5.559   5.347  13.264  1.5724 -0.0372  0.8196
  123CHL1   C2115340   5.669   5.158  13.251  0.5209 -0.0794 -0.2844
  123CHL1  H21A15341   5.669   5.057  13.203  5.0446 -0.0270 -0.8467
  123CHL1  H21B15342   5.708   5.134  13.352 -0.0194 -0.0223 -0.0598
  123CHL1  H21C15343   5.751   5.224  13.216  0.8766 -1.3074 -1.8651
  123CHL1   C2215344   5.436   5.199  13.349  0.1495  0.1057  0.2313
  123CHL1  H22A15345   5.328   5.220  13.337  0.5497  1.2486 -1.8143
  123CHL1  H22B15346   5.428   5.088  13.340  0.6368  0.1472 -0.8977
  123CHL1   C2315347   5.465   5.235  13.497  0.1036  0.7380  0.4115
  123CHL1  H23A15348   5.573   5.214  13.516  0.0259 -0.8045 -0.6784
  123CHL1  H23B15349   5.453   5.344  13.512 -0.5454  0.9680 -1.5475
  123CHL1   C2415350   5.378   5.156  13.598  0.0860 -0.1863  0.4853
  123CHL1  H24A15351   5.276   5.198  13.611 -1.1527 -2.6142 -0.7374
  123CHL1  H24B15352   5.359   5.052  13.565  0.8462 -0.2796  0.3219
  123CHL1   C2515353   5.441   5.162  13.739  0.0780 -0.1227 -0.2050
  123CHL1   H2515354   5.540   5.110  13.744  0.3604  0.5249  2.1059
  123CHL1   C2615355   5.468   5.306  13.784 -0.4160 -0.3558 -0.3777
  123CHL1  H26A15356   5.563   5.345  13.741  0.6335 -1.9756  0.3627
  123CHL1  H26B15357   5.385   5.380  13.777  0.1474  0.3038 -0.2051
  123CHL1  H26C15358   5.480   5.311  13.894 -3.0398  0.8205 -0.0625
  123CHL1   C2715359   5.339   5.094  13.833  0.1130 -0.0205  0.1111
  123CHL1  H27A15360   5.324   4.989  13.801  2.2707  0.1042 -1.5046
  123CHL1  H27B15361   5.391   5.087  13.931  2.3452 -0.0719 -1.0246
  123CHL1  H27C15362   5.241   5.147  13.838  0.4239  0.4790  1.3396
  124CHL1    C315363   4.104   6.018  12.645 -0.3512 -0.4945  0.0359
  124CHL1    H315364   4.067   5.913  12.648 -2.3563  0.1027 -1.3894
  124CHL1    O315365   4.125   6.067  12.507 -0.2676 -0.1853 -0.0184
  124CHL1   H3'15366   4.163   6.154  12.521  0.4770 -0.5174  0.0677
  124CHL1    C415367   3.992   6.098  12.716  0.0849  0.4620  0.2964
  124CHL1   H4A15368   4.001   6.204  12.683 -1.2941 -0.1304 -2.2034
  124CHL1   H4B15369   3.899   6.068  12.664 -0.4983  2.7764 -0.1282
  124CHL1    C515370   3.979   6.071  12.867 -0.6925  0.4546  1.2352
  124CHL1    C615371   3.859   6.042  12.921 -1.1798  0.5865 -0.2847
  124CHL1    H615372   3.775   6.041  12.849  0.3724  3.0698 -2.3475
  124CHL1    C715373   3.849   6.011  13.067  0.1052  0.3429  0.3961
  124CHL1   H7A15374   3.761   6.065  13.109 -0.2941  0.7186 -0.8691
  124CHL1   H7B15375   3.843   5.900  13.079 -1.5233  0.2208 -1.1404
  124CHL1    C815376   3.976   6.056  13.148 -0.0258  0.2150  0.6954
  124CHL1    H815377   3.976   6.166  13.161  1.3003  0.4346 -0.7776
  124CHL1   C1415378   3.976   5.992  13.284 -0.5772 -0.5101  0.5252
  124CHL1   H1415379   3.978   5.883  13.262  2.5245 -0.7098  1.2935
  124CHL1   C1515380   3.850   6.010  13.374 -0.1500  0.3061  0.6865
  124CHL1  H15A15381   3.819   6.116  13.369 -0.1623  0.3778  1.9393
  124CHL1  H15B15382   3.763   5.947  13.348  0.0996 -0.3968  1.4674
  124CHL1   C1615383   3.899   5.968  13.509 -0.2253 -0.1911 -0.5303
  124CHL1  H16A15384   3.901   6.058  13.575  1.0325 -0.8017  0.3126
  124CHL1  H16B15385   3.843   5.883  13.553  0.7113 -0.9653 -0.8207
  124CHL1   C1715386   4.050   5.930  13.493 -0.6361 -0.5738  0.2277
  124CHL1   H1715387   4.051   5.824  13.462 -2.4047 -0.4704 -0.2602
  124CHL1   C1315388   4.100   6.019  13.373  0.6574 -0.2145 -1.0936
  124CHL1   C1815389   4.117   6.172  13.411  0.2565  0.1210 -0.9075
  124CHL1  H18A15390   4.019   6.210  13.446 -0.5984 -1.1853 -1.7899
  124CHL1  H18B15391   4.201   6.195  13.480 -0.3032  1.2201 -0.5689
  124CHL1  H18C15392   4.147   6.231  13.321 -1.2934  1.9763 -0.2748
  124CHL1   C1215393   4.226   5.965  13.299 -0.4079 -0.8019  0.6235
  124CHL1  H12A15394   4.319   5.990  13.355 -0.4277  0.0514  0.2945
  124CHL1  H12B15395   4.219   5.855  13.307  1.8143 -1.0152  0.3092
  124CHL1   C1115396   4.235   6.020  13.160  0.5152 -0.4719 -0.2655
  124CHL1  H11A15397   4.273   6.124  13.169  0.5869 -0.5997  1.1731
  124CHL1  H11B15398   4.312   5.960  13.107 -0.0057  0.8292 -2.6258
  124CHL1    C915399   4.105   6.008  13.079  0.7808 -0.3769  0.1956
  124CHL1    H915400   4.093   5.899  13.062 -1.5829 -0.1968  0.3699
  124CHL1   C1015401   4.111   6.071  12.943 -0.5794  0.0694  0.9919
  124CHL1   C1915402   4.147   6.227  12.951  0.6061 -0.0768  0.2752
  124CHL1  H19A15403   4.159   6.281  12.854 -0.0309 -1.2347 -0.4757
  124CHL1  H19B15404   4.059   6.273  13.000 -0.3552 -0.0426 -1.3983
  124CHL1  H19C15405   4.247   6.241  12.997  1.0241 -1.1412 -0.2695
  124CHL1    C115406   4.228   6.002  12.870  0.3098  0.7907 -0.1936
  124CHL1   H1A15407   4.326   6.025  12.918 -0.5905  2.9546  0.7338
  124CHL1   H1B15408   4.211   5.892  12.871 -1.3232  1.0153  1.4058
  124CHL1    C215409   4.232   6.040  12.721 -0.0120 -0.3528  0.4432
  124CHL1   H2A15410   4.316   5.985  12.673 -0.7584 -0.6090 -0.5854
  124CHL1   H2B15411   4.254   6.149  12.710 -0.2904 -0.1066  2.0442
  124CHL1   C2015412   4.137   5.933  13.625 -0.4759 -0.2024 -0.8119
  124CHL1   H2015413   4.143   6.038  13.661  0.0009  0.1754 -1.9750
  124CHL1   C2115414   4.284   5.891  13.601 -0.2146 -0.1247  0.6524
  124CHL1  H21A15415   4.294   5.808  13.529  2.2517 -1.2642  2.1739
  124CHL1  H21B15416   4.322   5.859  13.701  2.6085  1.7918  0.3132
  124CHL1  H21C15417   4.339   5.977  13.558 -0.8025  0.4113  0.9440
  124CHL1   C2215418   4.088   5.842  13.741 -0.0249  0.0189  0.3865
  124CHL1  H22A15419   3.977   5.854  13.739  0.0123  0.8583  1.9410
  124CHL1  H22B15420   4.110   5.738  13.708 -0.8824 -0.0649  0.0322
  124CHL1   C2315421   4.131   5.883  13.880  0.9854 -0.3256 -0.8788
  124CHL1  H23A15422   4.236   5.919  13.876  0.2674  1.9212 -0.8623
  124CHL1  H23B15423   4.069   5.972  13.907  2.8936  0.7588  0.1525
  124CHL1   C2415424   4.116   5.769  13.983  0.0896  0.4848 -0.2998
  124CHL1  H24A15425   4.011   5.733  13.980  1.0470 -2.7432  0.4089
  124CHL1  H24B15426   4.190   5.691  13.956  0.3938  0.7059 -0.1177
  124CHL1   C2515427   4.154   5.803  14.129 -0.0504 -0.4205 -0.2214
  124CHL1   H2515428   4.120   5.709  14.177  0.4887 -0.6458 -0.2804
  124CHL1   C2615429   4.298   5.820  14.149 -0.3168 -0.0401 -0.2538
  124CHL1  H26A15430   4.353   5.725  14.171  0.4715  0.1278 -1.4077
  124CHL1  H26B15431   4.339   5.866  14.057  0.7615  1.2220  0.8209
  124CHL1  H26C15432   4.335   5.892  14.225 -1.2155  1.5063 -1.2452
  124CHL1   C2715433   4.054   5.910  14.181  0.5690  0.3681 -1.0791
  124CHL1  H27A15434   4.074   5.941  14.285 -0.4112 -2.6439  0.1371
  124CHL1  H27B15435   4.040   5.994  14.109  0.1073  0.7401 -0.5662
  124CHL1  H27C15436   3.954   5.861  14.190  0.7679  0.3177  1.6069
  125CHL1    C315437   4.051   6.645  12.719 -1.0311  0.4755 -0.0323
  125CHL1    H315438   4.068   6.536  12.714  0.8339  0.4879  3.1495
  125CHL1    O315439   4.094   6.699  12.598  0.0405 -0.1019  0.3224
  125CHL1   H3'15440   4.023   6.678  12.537 -0.5566 -1.2565  1.3713
  125CHL1    C415441   3.905   6.670  12.750  0.0369  0.0913 -0.9878
  125CHL1   H4A15442   3.874   6.776  12.759 -1.1823 -0.3639  0.7690
  125CHL1   H4B15443   3.845   6.628  12.667 -1.7658 -1.7794  1.1202
  125CHL1    C515444   3.870   6.609  12.886  0.1727  0.0765  0.5854
  125CHL1    C615445   3.781   6.504  12.891 -0.2964  0.4056  0.0966
  125CHL1    H615446   3.721   6.477  12.803 -1.3787 -3.9860  1.8898
  125CHL1    C715447   3.738   6.441  13.020 -0.5685 -0.7510  0.7059
  125CHL1   H7A15448   3.627   6.429  13.030 -0.9539  2.2780  0.8732
  125CHL1   H7B15449   3.781   6.339  13.028 -0.2316 -0.5881  1.0281
  125CHL1    C815450   3.795   6.526  13.141 -0.0447  0.2140 -0.0017
  125CHL1    H815451   3.733   6.618  13.139  1.2477  1.1229  0.4886
  125CHL1   C1415452   3.771   6.442  13.267 -0.6169  0.5960  0.3862
  125CHL1   H1415453   3.840   6.355  13.266  0.4057  1.3029  2.8198
  125CHL1   C1515454   3.633   6.374  13.281  0.0284  0.2859 -0.3731
  125CHL1  H15A15455   3.551   6.440  13.245 -1.2703 -1.0771 -0.0380
  125CHL1  H15B15456   3.641   6.281  13.221 -2.2415  0.1372 -0.5372
  125CHL1   C1615457   3.628   6.342  13.431  1.4706  0.7003 -0.1561
  125CHL1  H16A15458   3.545   6.398  13.479  0.9323 -0.3396  0.1685
  125CHL1  H16B15459   3.621   6.234  13.457 -0.7874  0.5881 -1.0547
  125CHL1   C1715460   3.762   6.399  13.489  0.9994  0.7518 -0.3798
  125CHL1   H1715461   3.827   6.309  13.478 -1.3520 -1.2346  0.8339
  125CHL1   C1315462   3.808   6.508  13.394  0.7894  0.0877 -0.0798
  125CHL1   C1815463   3.721   6.638  13.418 -0.3138  0.2819  0.8642
  125CHL1  H18A15464   3.745   6.708  13.335  0.1378 -0.7689  0.0822
  125CHL1  H18B15465   3.613   6.614  13.422  0.5520 -4.4574  2.3055
  125CHL1  H18C15466   3.748   6.683  13.517 -1.2234 -2.2255  2.3477
  125CHL1   C1215467   3.952   6.546  13.387 -0.1304 -0.1493  0.0849
  125CHL1  H12A15468   3.985   6.592  13.482 -0.9956  1.0402 -0.1767
  125CHL1  H12B15469   4.003   6.448  13.371  0.1944 -0.2001  1.3148
  125CHL1   C1115470   3.994   6.626  13.264 -1.0192  0.9682 -0.3986
  125CHL1  H11A15471   3.964   6.732  13.276  2.2354  1.9563  0.1556
  125CHL1  H11B15472   4.105   6.623  13.264 -1.0409 -0.4554 -0.4488
  125CHL1    C915473   3.938   6.569  13.128 -0.2995 -0.0392 -0.1894
  125CHL1    H915474   3.995   6.476  13.110 -0.5805 -0.5038  1.1791
  125CHL1   C1015475   3.959   6.655  13.005  0.0550  0.5054  0.8585
  125CHL1   C1915476   3.934   6.801  13.034 -0.6358 -0.3385 -0.0786
  125CHL1  H19A15477   4.020   6.837  13.094  0.6359 -1.6691 -1.0188
  125CHL1  H19B15478   3.939   6.853  12.936 -0.0982  0.8703  0.5708
  125CHL1  H19C15479   3.832   6.813  13.075 -1.1341 -0.6139 -1.1991
  125CHL1    C115480   4.106   6.635  12.967 -0.7610  0.1799 -0.1419
  125CHL1   H1A15481   4.162   6.682  13.051 -0.8694 -0.5884  0.3674
  125CHL1   H1B15482   4.144   6.531  12.974 -1.6921 -0.3017 -1.7325
  125CHL1    C215483   4.145   6.694  12.829 -0.5290 -0.0612 -0.2642
  125CHL1   H2A15484   4.251   6.687  12.797 -0.7068 -2.6524 -0.5230
  125CHL1   H2B15485   4.128   6.802  12.845  0.0426 -0.2096  1.4776
  125CHL1   C2015486   3.748   6.418  13.644  0.4436  0.2035 -0.2984
  125CHL1   H2015487   3.672   6.494  13.672  0.9351  0.4243  0.4804
  125CHL1   C2115488   3.880   6.471  13.699 -0.1220 -0.4182  0.2413
  125CHL1  H21A15489   3.975   6.427  13.661  0.6805  1.6652 -0.3120
  125CHL1  H21B15490   3.873   6.494  13.807 -1.6527  3.3866 -0.5073
  125CHL1  H21C15491   3.881   6.575  13.660 -1.1804 -0.1118  0.9965
  125CHL1   C2215492   3.717   6.291  13.725  0.3868 -0.3921 -0.0038
  125CHL1  H22A15493   3.620   6.255  13.685 -0.7225  1.0033  1.3245
  125CHL1  H22B15494   3.791   6.213  13.697 -0.9571 -1.8116  0.2274
  125CHL1   C2315495   3.693   6.301  13.880 -0.2494  0.2779  0.9049
  125CHL1  H23A15496   3.779   6.354  13.927 -1.1382  1.3231  1.3984
  125CHL1  H23B15497   3.600   6.358  13.899 -2.0192 -1.9589 -0.5470
  125CHL1   C2415498   3.667   6.163  13.939 -0.0779  0.5972  0.0561
  125CHL1  H24A15499   3.585   6.121  13.877 -0.7116 -0.9021  1.8229
  125CHL1  H24B15500   3.751   6.092  13.924  0.1859  1.0478 -0.7006
  125CHL1   C2515501   3.621   6.162  14.086  0.6076 -0.0868  0.3607
  125CHL1   H2515502   3.535   6.231  14.105  2.3800  3.0988 -2.1441
  125CHL1   C2615503   3.575   6.021  14.122 -0.4643  0.4829  0.7542
  125CHL1  H26A15504   3.479   6.005  14.068 -0.3003 -0.7231  0.7913
  125CHL1  H26B15505   3.661   5.957  14.096 -0.9507  0.0339  0.2075
  125CHL1  H26C15506   3.551   6.005  14.230 -1.3253 -1.1167  0.3670
  125CHL1   C2715507   3.734   6.210  14.184 -0.4453  0.8412 -0.7772
  125CHL1  H27A15508   3.772   6.311  14.157  1.2026  0.3034 -0.5406
  125CHL1  H27B15509   3.686   6.230  14.282 -1.6653  1.5878 -1.4926
  125CHL1  H27C15510   3.813   6.133  14.183 -0.4865  0.7613  0.5911
  126CHL1    C315511   2.212   5.364  12.859 -0.5206 -0.2542 -0.4232
  126CHL1    H315512   2.183   5.464  12.897 -0.2913 -1.1184  2.1856
  126CHL1    O315513   2.211   5.369  12.716 -0.4796  0.6235 -0.0681
  126CHL1   H3'15514   2.221   5.277  12.688  2.1427  0.7046  0.3169
  126CHL1    C415515   2.340   5.310  12.921 -0.3456  0.0137 -0.4001
  126CHL1   H4A15516   2.374   5.215  12.877 -0.1844 -0.1078 -0.0170
  126CHL1   H4B15517   2.411   5.391  12.894 -2.1686  1.5629 -0.7585
  126CHL1    C515518   2.340   5.289  13.069  0.3209 -0.1361  0.3534
  126CHL1    C615519   2.426   5.360  13.143  0.1706  0.6182  1.1752
  126CHL1    H615520   2.501   5.410  13.080 -1.4340  0.4501 -0.9481
  126CHL1    C715521   2.430   5.369  13.291 -0.5169 -0.1395  0.4558
  126CHL1   H7A15522   2.533   5.372  13.333 -0.6493 -3.0092  1.2288
  126CHL1   H7B15523   2.376   5.462  13.319  0.5650  0.5678  0.2762
  126CHL1    C815524   2.343   5.261  13.356 -0.9854 -0.1700  0.6116
  126CHL1    H815525   2.393   5.163  13.340 -0.3270 -0.0448  1.7834
  126CHL1   C1415526   2.320   5.283  13.506 -0.0380  0.1869 -0.6005
  126CHL1   H1415527   2.265   5.379  13.520 -0.4195  0.0138 -0.8633
  126CHL1   C1515528   2.442   5.296  13.597  0.1199  0.2343  0.3099
  126CHL1  H15A15529   2.511   5.211  13.579 -0.1322 -0.0304  0.5652
  126CHL1  H15B15530   2.503   5.388  13.591  0.8224 -0.2778 -0.8246
  126CHL1   C1615531   2.382   5.273  13.734 -0.1284  0.1387  0.4143
  126CHL1  H16A15532   2.443   5.214  13.805 -1.2452 -2.5107 -0.7025
  126CHL1  H16B15533   2.376   5.371  13.786 -0.6571  0.0244  0.5755
  126CHL1   C1715534   2.236   5.213  13.724  0.4803 -0.5222  1.0309
  126CHL1   H1715535   2.164   5.297  13.735  0.6924 -0.2644  0.4630
  126CHL1   C1315536   2.227   5.178  13.575  0.6213  0.3430 -0.9445
  126CHL1   C1815537   2.284   5.034  13.560  0.7155  0.3823 -0.1273
  126CHL1  H18A15538   2.212   4.959  13.597  0.3769 -0.5068 -2.4439
  126CHL1  H18B15539   2.298   5.009  13.452  0.1172  1.4987 -0.4795
  126CHL1  H18C15540   2.380   5.022  13.615  0.3060 -0.1979  0.4665
  126CHL1   C1215541   2.089   5.185  13.503 -0.2848 -0.0276 -0.0217
  126CHL1  H12A15542   2.017   5.109  13.541  0.2792 -0.2106  0.7139
  126CHL1  H12B15543   2.048   5.284  13.533  1.5349  0.6014  0.5303
  126CHL1   C1115544   2.102   5.163  13.356  0.3429  0.2445 -0.5198
  126CHL1  H11A15545   2.119   5.054  13.341  1.2018  0.6169 -2.5225
  126CHL1  H11B15546   2.001   5.192  13.320 -0.0055 -1.7058 -1.2402
  126CHL1    C915547   2.204   5.250  13.283  0.4847 -0.2504  1.2167
  126CHL1    H915548   2.150   5.347  13.290 -2.4518 -1.4787 -1.6431
  126CHL1   C1015549   2.212   5.229  13.130  0.1023  0.8974  0.3709
  126CHL1   C1915550   2.229   5.077  13.093 -0.0231 -0.2567  0.3271
  126CHL1  H19A15551   2.218   5.045  12.987 -0.1808 -0.6314  0.4532
  126CHL1  H19B15552   2.314   5.027  13.145  1.0262  1.4460  0.3031
  126CHL1  H19C15553   2.144   5.025  13.143  0.3725 -0.4668  0.7891
  126CHL1    C115554   2.088   5.287  13.064 -0.0026  0.1606 -0.0878
  126CHL1   H1A15555   2.008   5.224  13.108  1.0404  0.6917  2.7503
  126CHL1   H1B15556   2.080   5.394  13.093  2.0029  1.0031 -2.2657
  126CHL1    C215557   2.097   5.286  12.911  0.0881 -0.0326  0.3183
  126CHL1   H2A15558   2.002   5.328  12.871  0.6586  0.2118 -0.8117
  126CHL1   H2B15559   2.108   5.180  12.880  1.0898  0.6670 -1.9341
  126CHL1   C2015560   2.201   5.119  13.842  0.4904 -0.0755  0.5076
  126CHL1   H2015561   2.274   5.035  13.831  1.9256  1.3838 -1.9072
  126CHL1   C2115562   2.068   5.058  13.838 -0.9809 -0.4340  0.4407
  126CHL1  H21A15563   1.981   5.127  13.827  0.3075  1.5166  1.7829
  126CHL1  H21B15564   2.067   4.996  13.931  2.2376 -0.5834  0.4811
  126CHL1  H21C15565   2.059   4.990  13.751  1.5194 -0.6730  0.3200
  126CHL1   C2215566   2.234   5.190  13.983 -0.2380  0.5288 -0.1002
  126CHL1  H22A15567   2.236   5.116  14.066 -1.3788 -1.7787 -2.0276
  126CHL1  H22B15568   2.337   5.230  13.986 -0.3194  0.7974 -0.7982
  126CHL1   C2315569   2.141   5.310  14.021  0.1489 -0.1704 -0.2380
  126CHL1  H23A15570   2.125   5.395  13.952 -1.4026  0.9171  1.3649
  126CHL1  H23B15571   2.042   5.264  14.043 -0.8254  2.7504  2.1947
  126CHL1   C2415572   2.174   5.361  14.166  0.2310  0.1279 -0.0573
  126CHL1  H24A15573   2.093   5.434  14.189 -0.0317 -0.4628  0.9379
  126CHL1  H24B15574   2.156   5.286  14.246  1.3811 -0.3294 -0.2166
  126CHL1   C2515575   2.309   5.431  14.176 -0.3498  0.1199 -0.1917
  126CHL1   H2515576   2.391   5.364  14.144 -1.0908 -0.6063 -0.5824
  126CHL1   C2615577   2.319   5.551  14.084  0.3918  0.0117  0.0602
  126CHL1  H26A15578   2.289   5.522  13.981 -0.3842 -0.5520  0.4387
  126CHL1  H26B15579   2.250   5.635  14.106 -1.9278 -1.9930  0.7739
  126CHL1  H26C15580   2.423   5.591  14.079 -0.7218  3.0998 -0.7617
  126CHL1   C2715581   2.336   5.475  14.324  0.4633  0.5793 -0.0470
  126CHL1  H27A15582   2.433   5.526  14.339  0.7017 -0.2980  1.6968
  126CHL1  H27B15583   2.257   5.542  14.364 -0.7387 -1.2212  0.7368
  126CHL1  H27C15584   2.334   5.381  14.384 -3.1876  0.9451  0.6326
  127CHL1    C315585   2.965   0.166  12.613  0.0614  0.0442  0.7445
  127CHL1    H315586   2.855   0.167  12.622  0.1195 -1.2843  2.0063
  127CHL1    O315587   2.991   0.090  12.499  0.1109 -0.1949 -0.2950
  127CHL1   H3'15588   3.085   0.069  12.499 -0.0339 -0.9330  0.8156
  127CHL1    C415589   3.008   0.306  12.600  0.3314 -0.5540  0.2803
  127CHL1   H4A15590   3.115   0.311  12.570 -0.4628  1.7695 -2.6629
  127CHL1   H4B15591   2.946   0.348  12.518 -0.4687  3.1896  2.5749
  127CHL1    C515592   2.979   0.392  12.721 -0.2810 -0.0377 -0.3895
  127CHL1    C615593   2.920   0.511  12.721 -0.1598  0.3500  0.4491
  127CHL1    H615594   2.913   0.554  12.620  1.2342  0.6963  0.4810
  127CHL1    C715595   2.896   0.596  12.837 -0.1595 -0.3928 -0.0092
  127CHL1   H7A15596   2.930   0.697  12.805 -2.8655  0.8553  0.8009
  127CHL1   H7B15597   2.788   0.613  12.854 -0.6835 -3.1832 -0.1307
  127CHL1    C815598   2.971   0.557  12.968 -0.3519 -0.2196 -0.0696
  127CHL1    H815599   3.077   0.592  12.968 -0.9375  1.7174  0.6919
  127CHL1   C1415600   2.909   0.617  13.100  0.2132 -0.3009 -0.4645
  127CHL1   H1415601   2.810   0.566  13.106  0.1827 -0.0821  1.2172
  127CHL1   C1515602   2.863   0.761  13.108 -0.4148 -0.6501 -0.4050
  127CHL1  H15A15603   2.935   0.823  13.049  1.0108  0.4583  2.3061
  127CHL1  H15B15604   2.764   0.767  13.059 -0.6195 -1.4851 -0.1119
  127CHL1   C1615605   2.857   0.800  13.255  0.1376  0.3057  0.3506
  127CHL1  H16A15606   2.939   0.872  13.271  1.5446 -0.6500 -2.1219
  127CHL1  H16B15607   2.765   0.849  13.293  1.1637  0.3573  3.0218
  127CHL1   C1715608   2.889   0.664  13.326  0.0504 -0.4509 -0.4172
  127CHL1   H1715609   2.792   0.612  13.338  0.7398 -2.5925 -3.0856
  127CHL1   C1315610   2.973   0.581  13.234 -0.2626 -0.1643 -0.2031
  127CHL1   C1815611   3.121   0.627  13.241 -0.3043 -0.4337  0.3958
  127CHL1  H18A15612   3.157   0.593  13.341 -1.4553 -0.8688  0.6913
  127CHL1  H18B15613   3.188   0.592  13.159 -0.1634  0.0148  0.3192
  127CHL1  H18C15614   3.123   0.736  13.222 -1.5909 -0.4771 -0.1257
  127CHL1   C1215615   2.970   0.423  13.255 -0.3019  0.3544  0.6285
  127CHL1  H12A15616   3.025   0.399  13.349  1.1178  1.1822  0.0385
  127CHL1  H12B15617   2.866   0.393  13.280 -0.2116 -1.0958 -0.5341
  127CHL1   C1115618   3.030   0.357  13.124  0.7436 -0.1511 -0.1212
  127CHL1  H11A15619   3.139   0.376  13.138  0.6213  0.6473 -0.2033
  127CHL1  H11B15620   3.028   0.247  13.140 -1.5576 -0.2363 -0.6301
  127CHL1    C915621   2.967   0.403  12.986  0.1526  0.2154  0.2953
  127CHL1    H915622   2.857   0.387  12.984  0.0913  0.5845  0.4984
  127CHL1   C1015623   3.025   0.331  12.862 -0.2185 -0.4479  0.6047
  127CHL1   C1915624   3.179   0.325  12.863  0.6518  0.1167  0.9355
  127CHL1  H19A15625   3.219   0.308  12.761  0.7567  1.2966  0.7626
  127CHL1  H19B15626   3.227   0.417  12.902 -0.3108  1.0578 -0.0316
  127CHL1  H19C15627   3.208   0.246  12.936  2.7439 -0.9183 -0.9123
  127CHL1    C115628   2.974   0.184  12.859 -0.5778  0.0651  0.5187
  127CHL1   H1A15629   2.993   0.131  12.955 -0.3149 -0.2557  0.2939
  127CHL1   H1B15630   2.864   0.192  12.863 -0.5005  0.7664  1.7573
  127CHL1    C215631   3.022   0.105  12.734  0.4897  0.7530 -0.4833
  127CHL1   H2A15632   2.996  -0.002  12.743  0.3279  0.8082 -0.2794
  127CHL1   H2B15633   3.132   0.101  12.714  0.8232  0.0938  1.2817
  127CHL1   C2015634   2.943   0.691  13.465  0.0182  0.4529  0.1494
  127CHL1   H2015635   3.035   0.752  13.452 -0.8720  1.6019 -1.0622
  127CHL1   C2115636   2.978   0.559  13.541  0.4631  0.4210  0.6496
  127CHL1  H21A15637   3.072   0.503  13.523  0.5313 -0.1070  2.4477
  127CHL1  H21B15638   2.895   0.490  13.516 -0.1922  0.9691  1.2848
  127CHL1  H21C15639   2.962   0.570  13.650  0.9040 -0.8240  0.8491
  127CHL1   C2215640   2.850   0.781  13.543 -0.7437  0.2920  0.0190
  127CHL1  H22A15641   2.841   0.881  13.495 -0.2076  0.4100  0.1587
  127CHL1  H22B15642   2.749   0.742  13.569 -0.9153  0.0712 -0.9389
  127CHL1   C2315643   2.904   0.815  13.687 -0.5488  0.6623  0.6434
  127CHL1  H23A15644   2.830   0.884  13.733 -1.8751 -1.0187  1.1252
  127CHL1  H23B15645   2.913   0.737  13.766 -0.5248 -0.2203 -0.2257
  127CHL1   C2415646   3.035   0.899  13.697 -0.1783  0.0768 -1.0149
  127CHL1  H24A15647   3.122   0.844  13.656 -0.1726 -0.2557 -0.5559
  127CHL1  H24B15648   3.018   0.996  13.645  0.2607 -0.0234 -1.3463
  127CHL1   C2515649   3.058   0.937  13.849  0.0333  0.8106 -0.3520
  127CHL1   H2515650   2.957   0.946  13.895 -0.1594 -0.8090 -0.4068
  127CHL1   C2615651   3.138   0.821  13.921 -0.2779 -1.0252 -0.3536
  127CHL1  H26A15652   3.148   0.837  14.030 -2.0477 -0.6842 -0.2014
  127CHL1  H26B15653   3.100   0.718  13.905  0.5103 -1.5412  0.9976
  127CHL1  H26C15654   3.237   0.816  13.871 -0.1202 -0.9894 -0.0438
  127CHL1   C2715655   3.138   1.073  13.844  0.1730  0.4594 -0.0156
  127CHL1  H27A15656   3.085   1.157  13.795  0.1235  0.4824  0.0767
  127CHL1  H27B15657   3.161   1.102  13.949  1.0326 -0.9111  0.2051
  127CHL1  H27C15658   3.237   1.054  13.796 -0.2583  1.9577 -1.5905
  128CHL1    C315659   4.551   2.074  12.438  0.2504  0.2700 -0.1653
  128CHL1    H315660   4.566   1.964  12.428  2.6593  0.3334  1.7954
  128CHL1    O315661   4.513   2.115  12.310  0.0802 -0.4048  0.1973
  128CHL1   H3'15662   4.591   2.160  12.276 -0.7195  0.7119 -0.2380
  128CHL1    C415663   4.430   2.092  12.533 -0.1732  0.7072  1.3671
  128CHL1   H4A15664   4.389   2.195  12.520  0.1568  0.4545 -3.4614
  128CHL1   H4B15665   4.357   2.016  12.498 -0.1372  0.9409  0.7770
  128CHL1    C515666   4.471   2.067  12.674 -0.3390  0.1690  0.2055
  128CHL1    C615667   4.403   1.982  12.744  0.6274  0.3584  0.4722
  128CHL1    H615668   4.324   1.918  12.703  1.1229  0.3291 -0.4652
  128CHL1    C715669   4.424   1.973  12.891 -0.0031  0.0218 -0.1017
  128CHL1   H7A15670   4.329   1.964  12.949  1.9517  0.3319  3.3734
  128CHL1   H7B15671   4.470   1.878  12.923 -0.8188  0.5929  3.1155
  128CHL1    C815672   4.515   2.085  12.957  0.4872 -0.1491  0.5997
  128CHL1    H815673   4.453   2.176  12.966 -1.3101 -1.1291 -0.9900
  128CHL1   C1415674   4.556   2.044  13.092  0.3060  0.5612  0.0784
  128CHL1   H1415675   4.630   1.961  13.087  0.7556  0.8364  1.7030
  128CHL1   C1515676   4.446   2.002  13.196 -0.1730  0.0592  0.9477
  128CHL1  H15A15677   4.362   2.074  13.182  0.2965  0.5579  0.6514
  128CHL1  H15B15678   4.412   1.900  13.169  1.6036  0.4076 -3.4679
  128CHL1   C1615679   4.509   2.011  13.333 -0.5653  0.8837  0.7974
  128CHL1  H16A15680   4.456   2.086  13.396 -2.7997  1.1441 -1.2596
  128CHL1  H16B15681   4.523   1.915  13.387 -0.9197  0.5593  0.3145
  128CHL1   C1715682   4.654   2.068  13.303  0.9365 -0.0724  0.6884
  128CHL1   H1715683   4.718   1.979  13.284 -1.1302 -1.4777 -0.1591
  128CHL1   C1315684   4.640   2.150  13.170  0.1540  0.1590 -0.3678
  128CHL1   C1815685   4.560   2.277  13.200 -0.5913  0.4221  0.3988
  128CHL1  H18A15686   4.532   2.330  13.107 -0.6655 -0.2138  0.0557
  128CHL1  H18B15687   4.464   2.253  13.250  0.1482 -0.1706  1.5692
  128CHL1  H18C15688   4.624   2.341  13.265 -0.6494 -0.5004  1.3977
  128CHL1   C1215689   4.773   2.171  13.081  0.7558 -0.0777  0.2314
  128CHL1  H12A15690   4.842   2.245  13.127  0.9477 -1.4992  2.4032
  128CHL1  H12B15691   4.822   2.072  13.069  0.2570 -0.3130  0.1335
  128CHL1   C1115692   4.738   2.203  12.929  0.2802  0.0861 -0.5582
  128CHL1  H11A15693   4.693   2.304  12.941 -3.3292 -1.4300  0.2486
  128CHL1  H11B15694   4.829   2.217  12.867  0.5157  1.0563 -0.0042
  128CHL1    C915695   4.636   2.111  12.863  0.3300 -0.3998  0.0286
  128CHL1    H915696   4.693   2.016  12.858  0.2946 -0.4115 -0.1367
  128CHL1   C1015697   4.595   2.145  12.719  0.2237  0.3377  0.1957
  128CHL1   C1915698   4.570   2.299  12.705 -0.0746 -0.2494 -0.5758
  128CHL1  H19A15699   4.516   2.316  12.610 -0.9639 -0.2194 -0.0809
  128CHL1  H19B15700   4.508   2.332  12.792 -0.2606  0.4437 -0.9675
  128CHL1  H19C15701   4.657   2.367  12.705 -0.7163  0.6040  0.1371
  128CHL1    C115702   4.709   2.105  12.625 -0.1139 -0.9184 -0.6274
  128CHL1   H1A15703   4.799   2.166  12.647 -2.0547  1.2045  2.1282
  128CHL1   H1B15704   4.731   1.997  12.641  1.5011 -0.6795 -1.0645
  128CHL1    C215705   4.680   2.139  12.478  0.2572 -0.1997 -0.1225
  128CHL1   H2A15706   4.766   2.109  12.413 -0.7895 -0.6814 -1.3323
  128CHL1   H2B15707   4.677   2.250  12.480 -2.4663 -0.2037  1.8816
  128CHL1   C2015708   4.711   2.136  13.429  0.1377  0.0860 -0.0437
  128CHL1   H2015709   4.677   2.242  13.435  0.0495  0.0779 -0.3936
  128CHL1   C2115710   4.863   2.125  13.409 -0.1382 -0.0862 -0.1593
  128CHL1  H21A15711   4.915   2.183  13.488 -0.7582 -0.2920  0.4035
  128CHL1  H21B15712   4.885   2.167  13.309 -0.2849 -0.6695 -0.4457
  128CHL1  H21C15713   4.897   2.019  13.401 -1.3817 -0.3694 -2.6444
  128CHL1   C2215714   4.667   2.074  13.566 -0.2909  0.2805  0.5415
  128CHL1  H22A15715   4.558   2.086  13.583 -0.1556  1.4679  0.6982
  128CHL1  H22B15716   4.677   1.964  13.565 -0.8575  0.2166 -1.0273
  128CHL1   C2315717   4.762   2.118  13.689 -0.8882 -0.6489 -0.1452
  128CHL1  H23A15718   4.871   2.101  13.671 -0.4772  1.8729 -0.4726
  128CHL1  H23B15719   4.746   2.228  13.697 -0.9861 -0.7728  1.8447
  128CHL1   C2415720   4.705   2.057  13.823 -0.4942  0.2141  0.6332
  128CHL1  H24A15721   4.595   2.053  13.810 -0.4077 -1.1591  0.1404
  128CHL1  H24B15722   4.747   1.955  13.831  1.9417  1.0724 -0.1830
  128CHL1   C2515723   4.741   2.141  13.955  0.0141  0.3558 -1.1569
  128CHL1   H2515724   4.712   2.067  14.032  1.6852 -0.6933 -1.4953
  128CHL1   C2615725   4.891   2.165  13.971  0.5725 -0.2111  0.0740
  128CHL1  H26A15726   4.955   2.075  13.957  1.4796  0.4941 -0.4131
  128CHL1  H26B15727   4.918   2.256  13.914 -0.8724  0.5332  0.5311
  128CHL1  H26C15728   4.894   2.200  14.076  0.4670  0.3576 -0.1085
  128CHL1   C2715729   4.661   2.265  13.967  0.6459 -0.1256 -0.2490
  128CHL1  H27A15730   4.672   2.338  13.884 -0.3044  0.4079  0.0794
  128CHL1  H27B15731   4.554   2.242  13.983  0.1148  3.2441  2.1849
  128CHL1  H27C15732   4.684   2.327  14.057 -1.0827  1.5686 -0.9027
  129CHL1    C315733   4.990   6.641  12.277  0.2077  0.7398  1.1711
  129CHL1    H315734   5.078   6.583  12.242  0.9254  1.8448  1.1223
  129CHL1    O315735   4.932   6.701  12.165  0.0273 -0.1977  0.3728
  129CHL1   H3'15736   4.852   6.736  12.205  0.3811 -0.7927  1.6625
  129CHL1    C415737   4.887   6.555  12.351  0.2776 -0.4372  0.6278
  129CHL1   H4A15738   4.794   6.612  12.371  0.3185 -0.5356  1.1176
  129CHL1   H4B15739   4.847   6.474  12.286 -0.1636 -0.9595  1.5313
  129CHL1    C515740   4.948   6.504  12.482  0.3800 -0.1192 -0.9192
  129CHL1    C615741   4.952   6.377  12.514 -0.4169  1.2210 -0.2898
  129CHL1    H615742   4.896   6.309  12.448  0.5884 -0.1667  0.2448
  129CHL1    C715743   5.000   6.320  12.642  0.2924 -0.0724  0.0298
  129CHL1   H7A15744   4.936   6.234  12.671  0.2058 -0.4310 -1.1728
  129CHL1   H7B15745   5.098   6.271  12.628  0.7047  0.4223  1.0826
  129CHL1    C815746   5.006   6.429  12.759 -0.1574  0.4243 -0.2913
  129CHL1    H815747   4.899   6.452  12.777 -1.1423 -2.6073 -1.5480
  129CHL1   C1415748   5.082   6.369  12.879  0.3535  0.2628 -0.9483
  129CHL1   H1415749   5.181   6.331  12.846 -0.5390 -1.4274 -1.8510
  129CHL1   C1515750   5.008   6.251  12.943  0.2694  0.3737  1.0751
  129CHL1  H15A15751   4.898   6.265  12.935 -0.1077 -2.5145 -0.3441
  129CHL1  H15B15752   5.040   6.160  12.888 -1.0968 -0.6522  1.9039
  129CHL1   C1615753   5.052   6.259  13.087 -0.2084  0.4373 -0.3048
  129CHL1  H16A15754   4.962   6.267  13.152 -1.3005 -2.7202 -1.2530
  129CHL1  H16B15755   5.103   6.172  13.134 -1.8379 -1.2127 -1.4636
  129CHL1   C1715756   5.153   6.376  13.105 -0.8339 -0.1207 -0.5975
  129CHL1   H1715757   5.256   6.346  13.075 -1.2257 -1.4904 -0.6468
  129CHL1   C1315758   5.100   6.471  12.989  0.0178 -0.1167 -1.4506
  129CHL1   C1815759   4.964   6.526  13.040  1.0149  0.0914 -0.4267
  129CHL1  H18A15760   4.992   6.612  13.104 -0.1822 -0.5224  0.9632
  129CHL1  H18B15761   4.910   6.574  12.955 -0.7716  0.7711  1.0321
  129CHL1  H18C15762   4.892   6.461  13.094  1.4847  0.3231  0.4988
  129CHL1   C1215763   5.191   6.582  12.937  0.3646 -0.9649  0.3933
  129CHL1  H12A15764   5.204   6.658  13.017 -1.4133  0.2058 -0.3703
  129CHL1  H12B15765   5.292   6.539  12.922  0.1880 -0.9075 -1.1361
  129CHL1   C1115766   5.129   6.657  12.815  0.2522  1.0132 -0.4154
  129CHL1  H11A15767   5.042   6.709  12.859 -1.1423 -0.7263 -0.9840
  129CHL1  H11B15768   5.199   6.737  12.782 -1.5182  2.9123  0.2285
  129CHL1    C915769   5.081   6.553  12.706  0.4012  1.1429 -0.5965
  129CHL1    H915770   5.178   6.507  12.677  0.5555  2.2756 -1.9820
  129CHL1   C1015771   5.006   6.603  12.582  0.1075 -0.8352  0.2252
  129CHL1   C1915772   4.894   6.692  12.649  0.7064 -0.5895 -0.8180
  129CHL1  H19A15773   4.945   6.779  12.696  1.3750 -2.4842  2.2342
  129CHL1  H19B15774   4.826   6.731  12.569 -0.7305 -1.6829 -0.1710
  129CHL1  H19C15775   4.832   6.645  12.728  0.2637 -0.0810 -0.8567
  129CHL1    C115776   5.105   6.693  12.496 -0.1409  0.1917 -0.2643
  129CHL1   H1A15777   5.156   6.767  12.562 -1.0323  2.1299 -1.6468
  129CHL1   H1B15778   5.190   6.631  12.463 -0.2805  1.6109 -3.6789
  129CHL1    C215779   5.043   6.759  12.364 -0.4902  0.0686 -0.0552
  129CHL1   H2A15780   5.119   6.821  12.312 -0.7375  1.1412  0.8241
  129CHL1   H2B15781   4.956   6.828  12.377 -2.3374 -1.7644 -1.8078
  129CHL1   C2015782   5.166   6.428  13.249  0.1854  0.7314  0.7380
  129CHL1   H2015783   5.075   6.488  13.273 -0.1365 -0.0230  1.4582
  129CHL1   C2115784   5.294   6.510  13.253 -0.1016  0.5246 -0.3912
  129CHL1  H21A15785   5.294   6.595  13.182  0.1980 -1.0055 -2.3064
  129CHL1  H21B15786   5.382   6.450  13.223  1.6148  2.3975  0.6625
  129CHL1  H21C15787   5.296   6.559  13.353 -0.1279 -0.0223 -0.1191
  129CHL1   C2215788   5.162   6.312  13.350 -0.1504  0.3131  0.0789
  129CHL1  H22A15789   5.079   6.239  13.341  0.2652 -0.6107  2.6602
  129CHL1  H22B15790   5.259   6.267  13.319 -1.1034 -0.9928 -1.1242
  129CHL1   C2315791   5.155   6.356  13.498  0.1675 -0.7572 -0.5647
  129CHL1  H23A15792   5.187   6.276  13.568  3.1989  1.9709  1.4458
  129CHL1  H23B15793   5.227   6.438  13.519 -0.9961  0.4443 -1.0770
  129CHL1   C2415794   5.010   6.401  13.539 -0.3250 -0.5581 -0.0706
  129CHL1  H24A15795   4.993   6.508  13.515  2.3109 -0.1300 -0.2315
  129CHL1  H24B15796   4.936   6.334  13.489 -1.1362  0.8255 -0.7718
  129CHL1   C2515797   4.979   6.393  13.686 -0.3586 -0.0487  0.8861
  129CHL1   H2515798   5.010   6.292  13.720 -4.4687 -1.9793 -0.5213
  129CHL1   C2615799   5.047   6.500  13.763  0.0682 -0.1934  0.1446
  129CHL1  H26A15800   4.998   6.600  13.767  2.5877  1.1607 -0.5264
  129CHL1  H26B15801   5.074   6.469  13.866 -3.1386 -0.0804  1.1346
  129CHL1  H26C15802   5.146   6.523  13.718  1.0620 -0.8366  1.8835
  129CHL1   C2715803   4.823   6.404  13.696 -0.3815  0.5696 -0.3617
  129CHL1  H27A15804   4.789   6.497  13.647 -0.5011 -0.9229 -3.3481
  129CHL1  H27B15805   4.774   6.318  13.645 -0.9445  0.4763  0.3293
  129CHL1  H27C15806   4.790   6.407  13.802  0.1522  3.2248 -0.1935
  130CHL1    C315807   3.313   0.753  12.427 -0.5383  0.0105  0.0397
  130CHL1    H315808   3.252   0.835  12.383  0.6512  1.6263  1.2731
  130CHL1    O315809   3.342   0.659  12.319  0.1445 -0.0498 -0.0164
  130CHL1   H3'15810   3.341   0.719  12.244 -2.1301  2.2519  1.6587
  130CHL1    C415811   3.447   0.817  12.473 -0.3585 -0.1010  0.1400
  130CHL1   H4A15812   3.529   0.743  12.489 -0.2924  0.1455  0.9853
  130CHL1   H4B15813   3.482   0.876  12.385  1.6035 -0.7879  0.3912
  130CHL1    C515814   3.424   0.902  12.599  0.8413  0.2029 -0.3012
  130CHL1    C615815   3.462   1.034  12.596  0.0176  0.5058 -0.1968
  130CHL1    H615816   3.517   1.070  12.508  0.8814 -1.0511 -0.3282
  130CHL1    C715817   3.441   1.128  12.715 -0.0233  0.1902  0.6672
  130CHL1   H7A15818   3.535   1.185  12.726 -0.2577  1.2903 -2.1408
  130CHL1   H7B15819   3.356   1.196  12.690 -0.9224 -1.5418 -1.3229
  130CHL1    C815820   3.412   1.053  12.847 -0.2115  1.1072  0.4191
  130CHL1    H815821   3.508   1.003  12.874 -0.7453 -0.6343 -0.7287
  130CHL1   C1415822   3.378   1.151  12.961  0.0344 -0.2859  0.3771
  130CHL1   H1415823   3.278   1.195  12.940 -0.3144 -0.3505  1.7859
  130CHL1   C1515824   3.466   1.271  12.984  0.5622 -0.0779  0.1057
  130CHL1  H15A15825   3.576   1.254  12.977  0.9406  0.4769  3.3557
  130CHL1  H15B15826   3.453   1.354  12.911 -0.8093  0.4087  0.8766
  130CHL1   C1615827   3.425   1.310  13.132  0.4367 -0.1418 -0.0271
  130CHL1  H16A15828   3.523   1.316  13.183  0.6985  2.7779 -0.6689
  130CHL1  H16B15829   3.392   1.416  13.136  0.3933 -0.1642  0.2000
  130CHL1   C1715830   3.326   1.205  13.187 -0.6088  0.1832  0.4447
  130CHL1   H1715831   3.222   1.240  13.166 -0.1462  1.6992  0.5587
  130CHL1   C1315832   3.346   1.081  13.090  0.2962 -0.2286 -0.2912
  130CHL1   C1815833   3.463   0.996  13.142  0.4447 -0.3842 -0.7688
  130CHL1  H18A15834   3.546   1.062  13.173 -1.0836  1.1236  0.2898
  130CHL1  H18B15835   3.439   0.936  13.232 -1.4270  2.2621  0.6257
  130CHL1  H18C15836   3.485   0.913  13.071  0.4944  0.4015 -1.6910
  130CHL1   C1215837   3.221   0.997  13.064  0.3117 -0.6130  0.5083
  130CHL1  H12A15838   3.191   0.947  13.159  0.7180 -1.0301  0.4176
  130CHL1  H12B15839   3.140   1.058  13.019  2.7935  1.5712 -1.2752
  130CHL1   C1115840   3.247   0.886  12.957 -0.9535 -0.1251  0.0043
  130CHL1  H11A15841   3.319   0.819  13.009 -1.5733 -0.7625  0.0593
  130CHL1  H11B15842   3.157   0.823  12.940 -0.8562  0.6183 -4.2571
  130CHL1    C915843   3.301   0.945  12.824 -0.7497  0.6773 -0.1498
  130CHL1    H915844   3.226   1.013  12.780 -1.2711  0.4883  0.4224
  130CHL1   C1015845   3.338   0.840  12.715 -0.8458  0.1901  0.1953
  130CHL1   C1915846   3.438   0.740  12.774  0.0128  0.1473 -1.0588
  130CHL1  H19A15847   3.520   0.787  12.833 -2.5804  0.1896  2.7928
  130CHL1  H19B15848   3.372   0.677  12.837 -0.0358  1.9240  0.7722
  130CHL1  H19C15849   3.480   0.673  12.695  0.3920  0.4286 -1.1012
  130CHL1    C115850   3.209   0.771  12.661 -0.0758 -0.0944  0.1292
  130CHL1   H1A15851   3.159   0.720  12.746  0.5647  0.8242  1.0818
  130CHL1   H1B15852   3.146   0.860  12.642 -0.3415 -0.1440  0.7491
  130CHL1    C215853   3.230   0.684  12.536  0.1330 -0.6809 -0.1265
  130CHL1   H2A15854   3.127   0.678  12.496  0.3203 -1.4764 -0.5168
  130CHL1   H2B15855   3.249   0.577  12.562  0.0284 -0.3463  1.4006
  130CHL1   C2015856   3.338   1.193  13.340 -0.5376 -0.4288  0.1136
  130CHL1   H2015857   3.444   1.165  13.360 -1.0998 -3.0420 -0.1635
  130CHL1   C2115858   3.243   1.088  13.396 -0.6817 -0.8329  0.6302
  130CHL1  H21A15859   3.140   1.125  13.376  0.0629  0.8828 -0.2250
  130CHL1  H21B15860   3.263   1.088  13.505  0.0549  1.0552  0.5368
  130CHL1  H21C15861   3.246   0.982  13.363  0.4701 -0.3138 -1.0128
  130CHL1   C2215862   3.309   1.335  13.413 -0.4900  0.0754 -0.0225
  130CHL1  H22A15863   3.372   1.415  13.370 -0.3429 -0.0564 -0.0538
  130CHL1  H22B15864   3.205   1.372  13.405 -0.9030 -1.0279  0.0286
  130CHL1   C2315865   3.347   1.337  13.560 -0.3554 -0.2703 -1.0960
  130CHL1  H23A15866   3.276   1.268  13.609 -2.5236  1.2929 -1.8921
  130CHL1  H23B15867   3.445   1.288  13.579 -0.1393  0.1250 -1.1609
  130CHL1   C2415868   3.338   1.480  13.620 -0.0527  0.3825 -0.1753
  130CHL1  H24A15869   3.413   1.538  13.564 -0.1755  1.7526  1.0160
  130CHL1  H24B15870   3.239   1.530  13.612 -0.6044 -0.7002 -0.2894
  130CHL1   C2515871   3.373   1.493  13.770  0.3190  0.4725  0.5479
  130CHL1   H2515872   3.378   1.601  13.792 -0.2506  0.8343 -0.9683
  130CHL1   C2615873   3.263   1.433  13.868 -0.9419  0.6715 -0.1061
  130CHL1  H26A15874   3.167   1.482  13.845 -0.8243  0.9984  0.0961
  130CHL1  H26B15875   3.251   1.324  13.851  0.2480  0.3827  0.7159
  130CHL1  H26C15876   3.286   1.449  13.976 -2.0069 -0.8023  0.3650
  130CHL1   C2715877   3.513   1.425  13.800 -0.1155  0.0708  0.7429
  130CHL1  H27A15878   3.580   1.436  13.712 -1.7911  0.1628 -0.5776
  130CHL1  H27B15879   3.562   1.457  13.894 -0.0495 -0.2618  0.8241
  130CHL1  H27C15880   3.497   1.315  13.804 -0.6559  0.0123 -1.5553
  131CHL1    C315881   1.676   6.195  12.626  0.0146 -0.0848 -0.6208
  131CHL1    H315882   1.756   6.269  12.604  0.9013 -0.1851  2.0083
  131CHL1    O315883   1.619   6.146  12.509  0.0786  0.1899 -0.1722
  131CHL1   H3'15884   1.582   6.227  12.473  0.5963  0.8396  0.7153
  131CHL1    C415885   1.748   6.078  12.698  0.4984  0.0262  0.0895
  131CHL1   H4A15886   1.669   6.003  12.719  0.0684  0.9791  2.1256
  131CHL1   H4B15887   1.829   6.027  12.642  1.6914  0.0261  1.7179
  131CHL1    C515888   1.796   6.119  12.838 -0.7988  0.9360 -0.0796
  131CHL1    C615889   1.925   6.089  12.874  0.9871 -0.0614 -0.1759
  131CHL1    H615890   1.981   6.026  12.803  1.5011 -1.5853  1.5053
  131CHL1    C715891   1.982   6.115  13.011  0.0095 -0.5802 -0.9534
  131CHL1   H7A15892   2.050   6.034  13.045  0.1558 -0.6456 -1.3902
  131CHL1   H7B15893   2.035   6.212  13.008 -0.4318 -0.1820  1.7830
  131CHL1    C815894   1.861   6.137  13.111  0.1264  0.4411  0.5119
  131CHL1    H815895   1.812   6.038  13.127  0.6045  0.0487 -0.3901
  131CHL1   C1415896   1.915   6.200  13.242  0.0165 -0.0392  0.2887
  131CHL1   H1415897   1.956   6.298  13.208  1.0436 -0.7507 -0.5728
  131CHL1   C1515898   2.030   6.132  13.301 -0.9722 -0.2322  0.6650
  131CHL1  H15A15899   2.026   6.022  13.291  0.4156 -0.3029  0.5799
  131CHL1  H15B15900   2.126   6.156  13.249 -1.1762 -0.8275  0.0010
  131CHL1   C1615901   2.038   6.181  13.449  0.3829 -0.3552  0.1738
  131CHL1  H16A15902   2.023   6.084  13.501  1.7611 -0.8668 -0.3238
  131CHL1  H16B15903   2.134   6.235  13.468 -0.3601  1.4038 -0.8368
  131CHL1   C1715904   1.913   6.274  13.457 -0.5515  1.0995  0.0884
  131CHL1   H1715905   1.958   6.361  13.404  0.5181 -0.1862 -1.2146
  131CHL1   C1315906   1.814   6.230  13.353  0.3148 -0.0892  0.2950
  131CHL1   C1815907   1.738   6.103  13.397  0.1637  0.9760  0.6949
  131CHL1  H18A15908   1.806   6.018  13.419 -0.6840  0.0992  0.0440
  131CHL1  H18B15909   1.664   6.126  13.476 -0.2404  0.6050  0.4321
  131CHL1  H18C15910   1.673   6.071  13.313 -0.5623  3.2067  0.3226
  131CHL1   C1215911   1.721   6.335  13.295  0.0509  0.5111 -0.1550
  131CHL1  H12A15912   1.648   6.368  13.372 -0.4392 -0.9866  0.0715
  131CHL1  H12B15913   1.781   6.425  13.272  0.5153 -0.0177 -1.0751
  131CHL1   C1115914   1.662   6.297  13.162 -0.2347  0.8583 -0.4741
  131CHL1  H11A15915   1.584   6.223  13.188 -0.9929  2.1517  1.0819
  131CHL1  H11B15916   1.610   6.385  13.121 -2.3117 -1.3969 -3.0364
  131CHL1    C915917   1.757   6.240  13.059  0.4308 -0.5169  0.4090
  131CHL1    H915918   1.821   6.327  13.034 -2.0015  2.3039  3.2138
  131CHL1   C1015919   1.688   6.188  12.929 -0.1736 -0.5200 -0.7311
  131CHL1   C1915920   1.577   6.086  12.964 -0.3961  0.0823  0.0026
  131CHL1  H19A15921   1.500   6.156  13.002 -0.4208  1.9433 -3.2254
  131CHL1  H19B15922   1.533   6.036  12.875  1.0385  0.5143 -0.9731
  131CHL1  H19C15923   1.602   6.005  13.037 -1.2119 -0.8632 -0.7431
  131CHL1    C115924   1.620   6.308  12.848  0.6585  0.7311 -0.1967
  131CHL1   H1A15925   1.532   6.350  12.900 -0.8753 -0.5271 -1.6936
  131CHL1   H1B15926   1.697   6.386  12.824  0.9316  0.2930 -0.7676
  131CHL1    C215927   1.563   6.263  12.710 -0.1907  0.0815  0.2266
  131CHL1   H2A15928   1.522   6.345  12.649  1.6698  1.1711  0.3687
  131CHL1   H2B15929   1.489   6.181  12.726 -2.3226  2.1531  1.6826
  131CHL1   C2015930   1.867   6.295  13.595  0.2807 -0.3324  0.1269
  131CHL1   H2015931   1.762   6.331  13.588 -0.1348 -1.3258  0.9082
  131CHL1   C2115932   1.953   6.414  13.640 -0.2854  0.1604 -0.1834
  131CHL1  H21A15933   1.919   6.455  13.738 -1.2869  0.8382 -0.8018
  131CHL1  H21B15934   1.938   6.493  13.564 -2.3136 -1.1176 -1.2015
  131CHL1  H21C15935   2.057   6.375  13.636 -0.3344 -0.0080  0.1679
  131CHL1   C2215936   1.881   6.177  13.697 -0.2693  0.0743  0.3603
  131CHL1  H22A15937   1.842   6.080  13.661  2.2674 -1.1239  0.6002
  131CHL1  H22B15938   1.991   6.175  13.717  0.3671  0.7288 -2.5097
  131CHL1   C2315939   1.812   6.204  13.833  0.6528  0.4215 -0.2614
  131CHL1  H23A15940   1.860   6.295  13.873 -2.6368  1.1414  2.5276
  131CHL1  H23B15941   1.703   6.222  13.819  0.3261 -1.4798 -0.3506
  131CHL1   C2415942   1.824   6.091  13.932 -0.7295  0.0146 -0.5912
  131CHL1  H24A15943   1.815   5.998  13.872 -1.1398  0.7948 -1.7723
  131CHL1  H24B15944   1.927   6.096  13.972 -1.2677  0.6059  0.8034
  131CHL1   C2515945   1.710   6.095  14.042 -0.4956 -0.3537  0.8993
  131CHL1   H2515946   1.620   6.131  13.988  0.1135  0.5876  0.5060
  131CHL1   C2615947   1.676   5.955  14.099 -0.4335  0.4229  0.0249
  131CHL1  H26A15948   1.650   5.894  14.010  1.5604 -0.1161 -0.2374
  131CHL1  H26B15949   1.769   5.914  14.143  0.5068 -0.5100 -2.6318
  131CHL1  H26C15950   1.593   5.956  14.173 -0.9916  0.6206 -0.5989
  131CHL1   C2715951   1.751   6.183  14.160  0.3788  0.1114  0.8271
  131CHL1  H27A15952   1.843   6.157  14.216 -0.3716 -1.1391  1.5337
  131CHL1  H27B15953   1.762   6.284  14.114 -1.4301 -0.0446 -0.0325
  131CHL1  H27C15954   1.671   6.179  14.237  1.2469 -0.4195  1.7332
  132CHL1    C315955   6.026   1.998  12.580 -0.0132 -0.4480  0.3621
  132CHL1    H315956   5.946   2.073  12.602  0.8239  1.3043 -2.1078
  132CHL1    O315957   6.039   1.974  12.443  0.2840  0.2635 -0.1745
  132CHL1   H3'15958   6.100   1.900  12.442  0.5597  0.4148  1.5161
  132CHL1    C415959   6.155   2.055  12.642 -0.4351  0.0579  0.0748
  132CHL1   H4A15960   6.243   1.995  12.612  0.3479  1.6198 -0.8913
  132CHL1   H4B15961   6.170   2.146  12.580  0.8534  1.1233  1.8667
  132CHL1    C515962   6.142   2.083  12.793 -0.1058  0.0729  0.1544
  132CHL1    C615963   6.177   2.199  12.848  0.6900 -0.9087 -0.0535
  132CHL1    H615964   6.221   2.270  12.778  1.3057 -1.7839 -0.5684
  132CHL1    C715965   6.161   2.237  12.989 -0.1391  0.1360 -0.5452
  132CHL1   H7A15966   6.243   2.296  13.034 -0.9859 -1.1534  2.9755
  132CHL1   H7B15967   6.060   2.282  13.002 -0.0123  0.1140  0.5642
  132CHL1    C815968   6.164   2.111  13.074  0.2021 -0.3937  0.1724
  132CHL1    H815969   6.269   2.075  13.080 -0.1076 -1.4850 -0.6589
  132CHL1   C1415970   6.131   2.150  13.218  0.1952  0.2848  0.0120
  132CHL1   H1415971   6.029   2.193  13.223 -0.2779 -0.8751  1.1983
  132CHL1   C1515972   6.226   2.256  13.282  0.5813 -0.1108 -0.0195
  132CHL1  H15A15973   6.333   2.249  13.254  0.8224  0.9396  0.6129
  132CHL1  H15B15974   6.202   2.362  13.259  1.4786  0.1903  0.3996
  132CHL1   C1615975   6.207   2.235  13.429 -0.3019 -0.0437 -0.1087
  132CHL1  H16A15976   6.307   2.193  13.454  0.7691  1.5574 -1.4253
  132CHL1  H16B15977   6.179   2.321  13.494  0.1266 -0.7139  0.9861
  132CHL1   C1715978   6.109   2.114  13.449  0.2588 -0.6900  0.4191
  132CHL1   H1715979   6.008   2.158  13.447 -0.0296 -1.2795 -2.1880
  132CHL1   C1315980   6.126   2.032  13.317  0.7446 -0.2277  0.2257
  132CHL1   C1815981   6.255   1.951  13.318 -0.0701 -0.1960 -0.6835
  132CHL1  H18A15982   6.266   1.897  13.221  1.1085 -1.9154  0.3506
  132CHL1  H18B15983   6.348   2.009  13.335  0.4758 -1.1295 -0.4079
  132CHL1  H18C15984   6.249   1.877  13.401  1.4018  1.9492  1.4514
  132CHL1   C1215985   6.004   1.954  13.279  0.2067 -0.0016 -0.1002
  132CHL1  H12A15986   5.999   1.861  13.339  2.3317 -0.7723 -1.0102
  132CHL1  H12B15987   5.912   2.013  13.295 -0.8969 -1.1850 -1.7608
  132CHL1   C1115988   6.020   1.900  13.127 -0.4157 -0.6626 -0.0681
  132CHL1  H11A15989   6.092   1.816  13.124  0.1664 -0.1857 -3.2920
  132CHL1  H11B15990   5.919   1.858  13.108 -0.9071  0.1521  0.6789
  132CHL1    C915991   6.061   2.010  13.021  0.0954 -0.1566 -0.5112
  132CHL1    H915992   5.970   2.074  13.014 -0.7139 -1.1841  0.3296
  132CHL1   C1015993   6.095   1.965  12.878  0.4627 -0.2274 -0.3389
  132CHL1   C1915994   6.217   1.870  12.894  0.3208  0.2234  0.1082
  132CHL1  H19A15995   6.300   1.928  12.939  0.8650 -0.2201 -0.2932
  132CHL1  H19B15996   6.191   1.778  12.952 -0.7289  1.1543  1.1534
  132CHL1  H19C15997   6.258   1.837  12.796 -0.0098 -0.1282  0.0847
  132CHL1    C115998   5.982   1.885  12.816 -0.3223 -0.2796 -0.1143
  132CHL1   H1A15999   5.972   1.787  12.866  1.3943  0.0688  1.0158
  132CHL1   H1B16000   5.893   1.949  12.834  1.7506  2.6268  0.6097
  132CHL1    C216001   6.004   1.871  12.660 -0.1622  0.4433  0.3350
  132CHL1   H2A16002   5.917   1.820  12.612  1.2618 -0.2715 -1.6543
  132CHL1   H2B16003   6.079   1.790  12.643 -0.6952  0.0538 -0.2067
  132CHL1   C2016004   6.130   2.044  13.581 -0.4602  0.4344  0.6915
  132CHL1   H2016005   6.216   1.973  13.575 -0.4534  0.2886  2.1444
  132CHL1   C2116006   6.008   1.958  13.632  0.2059  0.0474  0.1650
  132CHL1  H21A16007   6.000   1.884  13.549 -1.7211 -0.1379  0.4711
  132CHL1  H21B16008   5.918   2.022  13.640 -0.9270 -1.4888  0.2075
  132CHL1  H21C16009   6.030   1.909  13.729  0.7218 -2.2285 -1.0421
  132CHL1   C2216010   6.168   2.140  13.698 -0.1436  0.0489  0.1859
  132CHL1  H22A16011   6.260   2.198  13.677  2.3199 -2.2854  3.3920
  132CHL1  H22B16012   6.080   2.199  13.731 -1.3937 -1.4455 -0.3936
  132CHL1   C2316013   6.208   2.080  13.837 -0.7758 -0.7587  0.7086
  132CHL1  H23A16014   6.123   2.018  13.873  0.2299 -1.4009  2.0965
  132CHL1  H23B16015   6.299   2.018  13.820  0.4310  1.0097  0.5496
  132CHL1   C2416016   6.236   2.196  13.940  1.0741  0.5320  0.3560
  132CHL1  H24A16017   6.330   2.236  13.894 -0.1473 -1.2452 -4.2187
  132CHL1  H24B16018   6.152   2.266  13.922 -0.2059 -0.9752  0.2514
  132CHL1   C2516019   6.265   2.147  14.084 -0.6249 -0.8309  0.1160
  132CHL1   H2516020   6.344   2.069  14.080  0.8773  0.5430  1.3642
  132CHL1   C2616021   6.314   2.269  14.170  0.3351  0.0959  0.0200
  132CHL1  H26A16022   6.240   2.353  14.173  0.5312  0.6117 -4.0000
  132CHL1  H26B16023   6.329   2.235  14.275 -1.1813  1.3232  0.6932
  132CHL1  H26C16024   6.412   2.303  14.131  0.7581 -0.5712  0.4889
  132CHL1   C2716025   6.151   2.076  14.161  0.6397 -0.0862  0.6598
  132CHL1  H27A16026   6.079   2.158  14.180  1.0223  0.3754  0.1241
  132CHL1  H27B16027   6.094   1.992  14.115 -0.3259 -0.7015  2.8565
  132CHL1  H27C16028   6.203   2.050  14.256  0.6422 -1.3468  0.3328
  133CHL1    C316029   2.058   3.975  12.276 -0.2503 -0.9297 -0.1074
  133CHL1    H316030   1.971   4.042  12.292  0.1285 -0.6579  0.8526
  133CHL1    O316031   2.082   3.959  12.139 -0.3672 -0.8123 -0.1236
  133CHL1   H3'16032   2.176   3.949  12.121 -0.6433  0.3843 -2.7041
  133CHL1    C416033   2.182   4.039  12.340  0.2156 -0.0771  1.1859
  133CHL1   H4A16034   2.275   3.989  12.305 -0.5781 -1.9527  1.6754
  133CHL1   H4B16035   2.185   4.139  12.291  1.0906 -1.9861 -3.1315
  133CHL1    C516036   2.159   4.055  12.487  0.4426  0.3973 -0.3957
  133CHL1    C616037   2.151   4.176  12.544  0.4465 -0.2274  0.0912
  133CHL1    H616038   2.153   4.261  12.474 -0.8661  0.4629  0.8562
  133CHL1    C716039   2.143   4.199  12.692  0.8740 -0.0646 -0.0730
  133CHL1   H7A16040   2.208   4.279  12.734  1.1457 -1.0385  1.4539
  133CHL1   H7B16041   2.036   4.219  12.714  0.5741 -1.3456 -0.2843
  133CHL1    C816042   2.194   4.078  12.775 -1.0178  0.5314  0.1259
  133CHL1    H816043   2.304   4.064  12.774 -0.4617  3.8176  1.6735
  133CHL1   C1416044   2.156   4.102  12.917  0.2746  0.0255  0.7376
  133CHL1   H1416045   2.045   4.111  12.911  0.4734  2.7747  0.1409
  133CHL1   C1516046   2.197   4.233  12.984 -0.2920  0.3939 -0.1761
  133CHL1  H15A16047   2.303   4.260  12.965 -0.4413  0.9679 -0.2064
  133CHL1  H15B16048   2.142   4.324  12.950 -0.6830  0.0915 -0.3610
  133CHL1   C1616049   2.162   4.198  13.132  0.4455  0.9700 -0.0392
  133CHL1  H16A16050   2.256   4.219  13.188  1.0888  0.0864 -0.7474
  133CHL1  H16B16051   2.070   4.257  13.150  0.1142  0.0465  1.4613
  133CHL1   C1716052   2.116   4.047  13.141 -0.4195 -0.1585 -0.2930
  133CHL1   H1716053   2.009   4.041  13.111  0.1002 -1.6107 -2.1030
  133CHL1   C1316054   2.177   3.986  13.013 -0.1195 -0.5398 -0.2053
  133CHL1   C1816055   2.324   3.967  13.025  0.5645 -0.0166 -0.4442
  133CHL1  H18A16056   2.365   3.946  12.924 -0.2451 -1.6617 -0.4783
  133CHL1  H18B16057   2.377   4.056  13.064 -0.3925 -0.5306  2.2788
  133CHL1  H18C16058   2.349   3.881  13.091 -2.2643 -0.3356  0.3563
  133CHL1   C1216059   2.110   3.864  12.955  0.1495 -0.5914 -0.0487
  133CHL1  H12A16060   2.118   3.778  13.025 -1.0999 -1.1869 -0.5922
  133CHL1  H12B16061   1.999   3.877  12.955  0.1754 -0.2090  1.3720
  133CHL1   C1116062   2.164   3.828  12.816 -0.5941  0.0875  0.3133
  133CHL1  H11A16063   2.273   3.804  12.818  0.2319  3.2878 -0.1845
  133CHL1  H11B16064   2.108   3.737  12.785 -0.8532 -0.1557  1.4629
  133CHL1    C916065   2.133   3.948  12.722  0.1095 -0.1974 -0.5497
  133CHL1    H916066   2.023   3.967  12.733  0.3860  1.7422 -0.6674
  133CHL1   C1016067   2.153   3.925  12.571  0.0160  0.2158 -0.2420
  133CHL1   C1916068   2.288   3.857  12.562 -0.2601  0.2968  0.0614
  133CHL1  H19A16069   2.370   3.918  12.605 -0.3621  0.0396  0.6314
  133CHL1  H19B16070   2.292   3.760  12.616 -2.2054 -0.7617 -1.5533
  133CHL1  H19C16071   2.311   3.842  12.454 -2.0794  3.0173 -0.8196
  133CHL1    C116072   2.042   3.842  12.505  0.1462  0.1579 -0.6923
  133CHL1   H1A16073   2.039   3.737  12.541  1.1445  0.3713  0.0461
  133CHL1   H1B16074   1.938   3.879  12.520 -0.3455 -0.7709 -1.6801
  133CHL1    C216075   2.051   3.836  12.345 -0.1344 -0.3661 -0.6718
  133CHL1   H2A16076   1.961   3.781  12.309 -1.2672  0.0887  1.3454
  133CHL1   H2B16077   2.141   3.773  12.326  0.6183  0.9400 -1.6397
  133CHL1   C2016078   2.152   3.986  13.280  0.5572  0.5163 -0.3001
  133CHL1   H2016079   2.260   3.996  13.305  0.2065  0.3686  1.3934
  133CHL1   C2116080   2.107   3.836  13.285 -0.0965 -0.1075 -0.1528
  133CHL1  H21A16081   2.005   3.826  13.243 -0.9690  3.6989  0.7072
  133CHL1  H21B16082   2.116   3.786  13.384  1.5280 -1.4976 -0.9485
  133CHL1  H21C16083   2.176   3.774  13.223  1.0733 -1.5088  2.3685
  133CHL1   C2216084   2.092   4.070  13.404  0.0180 -0.0972 -0.6022
  133CHL1  H22A16085   2.151   4.163  13.419  1.9586 -1.6841  3.3954
  133CHL1  H22B16086   1.986   4.094  13.386  0.7760  2.2389 -2.4569
  133CHL1   C2316087   2.111   3.999  13.543  0.3227 -0.2955  0.3406
  133CHL1  H23A16088   2.033   3.920  13.552  2.0376 -2.1119 -0.0867
  133CHL1  H23B16089   2.208   3.945  13.541  0.9619  0.8243  0.1260
  133CHL1   C2416090   2.111   4.098  13.658 -0.9658 -0.7817 -1.5774
  133CHL1  H24A16091   2.210   4.148  13.663 -1.8847  0.9859  1.2662
  133CHL1  H24B16092   2.035   4.178  13.643  0.0482  2.0151  4.8817
  133CHL1   C2516093   2.082   4.035  13.797  0.3077  0.5427 -0.0769
  133CHL1   H2516094   2.151   3.949  13.793  0.0413  0.2479  1.2193
  133CHL1   C2616095   2.134   4.121  13.917  0.3066 -0.4401  0.0994
  133CHL1  H26A16096   2.077   4.216  13.932  3.3939  1.6983 -0.8218
  133CHL1  H26B16097   2.142   4.068  14.014  0.1806 -0.9937 -0.1872
  133CHL1  H26C16098   2.238   4.151  13.894 -0.0991  0.3206 -0.8296
  133CHL1   C2716099   1.936   3.992  13.818  0.4817  0.3751  0.3595
  133CHL1  H27A16100   1.917   3.970  13.925  1.8256 -0.0452  0.5337
  133CHL1  H27B16101   1.867   4.079  13.810  0.7215  0.6597  1.2690
  133CHL1  H27C16102   1.912   3.915  13.741  0.7196 -2.9544  3.3689
  134CHL1    C316103   6.323   3.843  11.930  0.4241  0.0217  1.1118
  134CHL1    H316104   6.403   3.919  11.919 -0.7856  1.3200  1.0218
  134CHL1    O316105   6.319   3.785  11.799  0.4863  0.3086  0.5367
  134CHL1   H3'16106   6.281   3.699  11.817  1.3305  0.0787  1.3299
  134CHL1    C416107   6.361   3.736  12.029 -0.3199 -0.0181  0.0388
  134CHL1   H4A16108   6.303   3.642  12.018  0.8773 -0.9911  1.7066
  134CHL1   H4B16109   6.460   3.696  12.001  0.6274  3.2636 -1.8266
  134CHL1    C516110   6.359   3.782  12.172  0.2960 -0.3442  0.2905
  134CHL1    C616111   6.466   3.770  12.248  0.0168 -0.0674 -0.0120
  134CHL1    H616112   6.555   3.721  12.208  0.2589  2.3591 -2.7536
  134CHL1    C716113   6.476   3.809  12.389 -0.2766  0.1233 -0.1211
  134CHL1   H7A16114   6.531   3.734  12.449  0.7054  1.2624  0.4543
  134CHL1   H7B16115   6.539   3.899  12.407  0.4371 -0.2300 -0.7604
  134CHL1    C816116   6.333   3.833  12.450  0.1211  0.5317  0.5377
  134CHL1    H816117   6.281   3.735  12.456  1.8494 -0.4712  0.0690
  134CHL1   C1416118   6.351   3.896  12.586  0.2140  0.2425  0.1730
  134CHL1   H1416119   6.392   3.997  12.566 -0.5578  0.0850 -2.8261
  134CHL1   C1516120   6.452   3.841  12.685  0.2498  0.0857 -0.1999
  134CHL1  H15A16121   6.442   3.731  12.702  1.6533 -0.1522 -0.8015
  134CHL1  H15B16122   6.561   3.845  12.667  0.4002 -2.1594 -0.0713
  134CHL1   C1616123   6.403   3.901  12.819  0.6923 -0.6066  0.3111
  134CHL1  H16A16124   6.374   3.813  12.880  0.1217 -1.6989 -1.4460
  134CHL1  H16B16125   6.475   3.964  12.873 -0.8365  2.0102 -0.5352
  134CHL1   C1716126   6.267   3.982  12.793 -0.0926 -0.0204 -0.1833
  134CHL1   H1716127   6.297   4.087  12.775 -0.6216  0.0641 -0.5646
  134CHL1   C1316128   6.219   3.927  12.655 -0.4567  0.3745  0.3538
  134CHL1   C1816129   6.144   3.789  12.679 -0.4966  0.1900  0.2421
  134CHL1  H18A16130   6.207   3.728  12.748 -1.4178 -2.0221 -0.7666
  134CHL1  H18B16131   6.052   3.814  12.736 -0.2255 -1.3367  1.4346
  134CHL1  H18C16132   6.111   3.737  12.587  0.6366  0.3366 -0.2684
  134CHL1   C1216133   6.141   4.024  12.567 -0.5500 -0.3609  0.0958
  134CHL1  H12A16134   6.048   4.068  12.608 -0.9965 -0.3686 -0.8947
  134CHL1  H12B16135   6.203   4.116  12.557 -1.2640  0.0580 -0.5431
  134CHL1   C1116136   6.122   3.971  12.424  0.0128 -0.4965 -0.5013
  134CHL1  H11A16137   6.054   3.884  12.433  1.3551 -1.5751 -0.3628
  134CHL1  H11B16138   6.075   4.053  12.365  1.5557 -0.7739 -2.2121
  134CHL1    C916139   6.251   3.923  12.359  0.3207 -0.2738  0.4250
  134CHL1    H916140   6.315   4.012  12.346 -2.1334  1.4840 -0.4189
  134CHL1   C1016141   6.229   3.850  12.220 -0.1667  0.0069  0.4335
  134CHL1   C1916142   6.118   3.740  12.230 -0.6095  0.1459 -0.0325
  134CHL1  H19A16143   6.114   3.677  12.138 -0.0974  0.7524 -0.4774
  134CHL1  H19B16144   6.122   3.680  12.324 -1.4967  1.6097  0.9762
  134CHL1  H19C16145   6.023   3.795  12.245  0.6221  2.3742 -0.0526
  134CHL1    C116146   6.192   3.959  12.116 -0.2365  0.3503  0.0810
  134CHL1   H1A16147   6.099   4.012  12.145 -0.0786  0.9005 -0.3900
  134CHL1   H1B16148   6.274   4.033  12.129  1.5148 -1.6782  1.1520
  134CHL1    C216149   6.187   3.899  11.975 -0.1894  0.4325 -0.6121
  134CHL1   H2A16150   6.159   3.977  11.901  0.6372 -1.1479 -2.6698
  134CHL1   H2B16151   6.109   3.820  11.973  0.3059 -0.0575 -0.6588
  134CHL1   C2016152   6.177   3.985  12.915  0.4081  0.4891 -0.0615
  134CHL1   H2016153   6.136   3.885  12.939 -0.0024  0.6256 -0.1905
  134CHL1   C2116154   6.072   4.087  12.876 -0.4035 -0.5859 -0.4193
  134CHL1  H21A16155   6.010   4.053  12.791 -0.1958 -0.1286 -0.7615
  134CHL1  H21B16156   6.121   4.183  12.849 -0.2276 -0.1807  1.2166
  134CHL1  H21C16157   6.001   4.119  12.955 -0.0994  2.6028 -1.3053
  134CHL1   C2216158   6.259   4.026  13.051  0.9542 -0.4205  0.6599
  134CHL1  H22A16159   6.338   3.948  13.060 -0.0161 -1.4362  0.5411
  134CHL1  H22B16160   6.302   4.128  13.042 -0.1661  0.2885  2.6631
  134CHL1   C2316161   6.164   4.011  13.165 -0.3895 -0.2090 -0.5474
  134CHL1  H23A16162   6.099   4.101  13.176 -0.1305  0.0751 -1.3032
  134CHL1  H23B16163   6.097   3.923  13.152 -1.1591 -0.3160  2.9733
  134CHL1   C2416164   6.241   3.984  13.299 -0.1118 -0.0386  0.0733
  134CHL1  H24A16165   6.302   3.893  13.281  0.5446  0.7612 -2.0629
  134CHL1  H24B16166   6.307   4.067  13.332  0.8648 -0.9563  0.4844
  134CHL1   C2516167   6.153   3.945  13.418  0.1162  0.6701 -1.1726
  134CHL1   H2516168   6.064   3.896  13.374 -0.3377 -0.1634  0.6027
  134CHL1   C2616169   6.209   3.860  13.526  0.1620  0.3090  0.4877
  134CHL1  H26A16170   6.269   3.783  13.474 -0.2778  0.5903 -0.4605
  134CHL1  H26B16171   6.276   3.908  13.600  0.9860  0.7605 -0.5184
  134CHL1  H26C16172   6.135   3.808  13.590  2.1055 -1.1597  1.6158
  134CHL1   C2716173   6.076   4.066  13.486 -0.1674  0.7407  0.5911
  134CHL1  H27A16174   6.035   4.139  13.413  0.0298 -0.3147 -0.6022
  134CHL1  H27B16175   5.988   4.034  13.545 -0.3182  2.1533  1.1676
  134CHL1  H27C16176   6.156   4.115  13.546  1.0291 -0.9468  0.4590
  135CHL1    C316177   0.026   3.047  12.242  0.2499 -0.9837  0.0408
  135CHL1    H316178  -0.011   3.150  12.257 -1.2190 -1.7351  2.0128
  135CHL1    O316179   0.030   3.035  12.100  0.2326  0.0929 -0.0084
  135CHL1   H3'16180   0.034   2.939  12.091  0.4799  0.0138  0.8397
  135CHL1    C416181   0.167   3.016  12.302  0.2153  0.1521  0.0357
  135CHL1   H4A16182   0.197   2.913  12.271 -1.1380 -0.5816  1.0709
  135CHL1   H4B16183   0.250   3.074  12.256 -0.7506  0.7135 -1.0585
  135CHL1    C516184   0.156   3.045  12.448  0.7710 -0.5907 -0.1123
  135CHL1    C616185   0.227   3.146  12.500  0.6402  0.3979  0.1997
  135CHL1    H616186   0.301   3.199  12.437  1.4835 -1.3007 -0.2860
  135CHL1    C716187   0.225   3.181  12.648 -0.4130 -1.0807 -0.5979
  135CHL1   H7A16188   0.332   3.189  12.679 -0.3136  0.4045 -1.2685
  135CHL1   H7B16189   0.181   3.282  12.660  1.2462 -0.6183  3.2643
  135CHL1    C816190   0.151   3.072  12.734 -0.2878 -0.0576 -0.8391
  135CHL1    H816191   0.224   2.990  12.749  1.8657  1.7833 -0.7775
  135CHL1   C1416192   0.117   3.130  12.869 -0.4228 -1.0857  0.0219
  135CHL1   H1416193   0.039   3.207  12.852 -0.1709 -0.2648  2.2536
  135CHL1   C1516194   0.230   3.204  12.952  0.1027 -0.7433  0.5994
  135CHL1  H15A16195   0.310   3.127  12.950 -0.9242 -1.8227 -0.9548
  135CHL1  H15B16196   0.263   3.299  12.905  0.7529 -1.6467 -0.8514
  135CHL1   C1616197   0.161   3.212  13.093  0.5651  0.1547 -0.4272
  135CHL1  H16A16198   0.229   3.171  13.171  0.5742 -1.3582 -1.1909
  135CHL1  H16B16199   0.134   3.315  13.122  1.0543  0.5515 -1.3532
  135CHL1   C1716200   0.029   3.120  13.086 -0.1149  0.3244  0.5908
  135CHL1   H1716201  -0.057   3.188  13.068 -0.7854 -0.6624 -0.0566
  135CHL1   C1316202   0.043   3.033  12.957 -0.1128  0.1373  0.1158
  135CHL1   C1816203   0.142   2.921  12.990 -0.1085  0.1971 -0.7496
  135CHL1  H18A16204   0.187   2.876  12.899  0.4966  1.3942 -1.0637
  135CHL1  H18B16205   0.226   2.952  13.055 -0.3072 -1.3302  0.2835
  135CHL1  H18C16206   0.094   2.838  13.046  2.7393 -1.6714 -0.8892
  135CHL1   C1216207  -0.086   2.976  12.894 -0.4933  0.4611 -0.1022
  135CHL1  H12A16208  -0.132   2.894  12.953 -0.5215  1.0154  0.6757
  135CHL1  H12B16209  -0.141   3.071  12.880 -0.4937  0.5286  0.3222
  135CHL1   C1116210  -0.048   2.913  12.764  0.3132  0.2100  0.6811
  135CHL1  H11A16211   0.007   2.818  12.783 -1.9783 -1.5581 -0.9768
  135CHL1  H11B16212  -0.131   2.891  12.694  2.0221 -0.7209 -1.1890
  135CHL1    C916213   0.024   3.013  12.668  0.0379 -0.4973 -0.4121
  135CHL1    H916214  -0.046   3.099  12.659  0.3211 -0.1532  0.5456
  135CHL1   C1016215   0.052   2.957  12.524  0.3149  1.0564 -0.4184
  135CHL1   C1916216   0.100   2.808  12.530 -0.2595  0.5837 -0.2004
  135CHL1  H19A16217   0.191   2.800  12.593 -2.1670  0.6890  2.7605
  135CHL1  H19B16218   0.019   2.744  12.570 -0.0519  0.3780 -0.1096
  135CHL1  H19C16219   0.112   2.770  12.427  2.0971  0.0718  0.2147
  135CHL1    C116220  -0.088   2.960  12.452  0.1907  0.3142 -0.3872
  135CHL1   H1A16221  -0.159   2.880  12.483  0.9084 -0.8019 -1.4973
  135CHL1   H1B16222  -0.140   3.056  12.471  0.0014  0.0913  0.2443
  135CHL1    C216223  -0.079   2.953  12.297  0.5520  0.9395 -0.1890
  135CHL1   H2A16224  -0.174   2.976  12.244  0.5419 -0.3085 -0.7523
  135CHL1   H2B16225  -0.049   2.849  12.270  4.0450  1.3499  1.5832
  135CHL1   C2016226   0.011   3.046  13.217  0.1184 -0.3005  0.0716
  135CHL1   H2016227   0.092   2.976  13.244  0.7339  0.7059  0.9266
  135CHL1   C2116228  -0.117   2.968  13.214 -0.0161  0.2487 -0.7129
  135CHL1  H21A16229  -0.144   2.913  13.307  1.0718 -2.1560 -1.7570
  135CHL1  H21B16230  -0.111   2.880  13.148 -0.2424 -1.4937  1.4645
  135CHL1  H21C16231  -0.198   3.040  13.187  2.0854  2.3669 -1.7214
  135CHL1   C2216232   0.008   3.144  13.346  1.2352 -0.1952  0.5791
  135CHL1  H22A16233   0.095   3.213  13.336  1.3321 -0.0757  2.0877
  135CHL1  H22B16234  -0.090   3.197  13.350  2.0327  1.8130 -2.7494
  135CHL1   C2316235   0.035   3.060  13.472 -0.7509  0.4470 -0.9388
  135CHL1  H23A16236  -0.044   2.986  13.494  0.3583  0.2686  3.4052
  135CHL1  H23B16237   0.138   3.020  13.461 -0.3106  1.2669 -0.0234
  135CHL1   C2416238   0.038   3.144  13.599 -0.1179 -0.4603 -0.8088
  135CHL1  H24A16239   0.098   3.234  13.575 -1.1556  0.2960 -0.6552
  135CHL1  H24B16240  -0.070   3.163  13.617 -0.2837 -2.1996  0.3673
  135CHL1   C2516241   0.097   3.058  13.716  0.0987  0.2705 -0.0451
  135CHL1   H2516242   0.182   3.002  13.671 -0.6228 -0.3063 -0.7234
  135CHL1   C2616243   0.160   3.140  13.829  0.0794  0.0420  0.2209
  135CHL1  H26A16244   0.090   3.176  13.908 -1.1759  0.7902 -1.1993
  135CHL1  H26B16245   0.238   3.087  13.887  0.7959 -0.1974 -0.9333
  135CHL1  H26C16246   0.214   3.227  13.787  0.1465  0.2201  0.6690
  135CHL1   C2716247   0.000   2.950  13.767 -0.2672  0.1495  0.2644
  135CHL1  H27A16248   0.058   2.874  13.824  1.0832  1.6438  0.9689
  135CHL1  H27B16249  -0.074   2.991  13.838 -0.8781 -1.9774  0.9248
  135CHL1  H27C16250  -0.053   2.895  13.686  0.0622 -3.8708  2.5190
  136CHL1    C316251   5.513   2.209  12.550  0.5273 -0.5836 -0.3609
  136CHL1    H316252   5.404   2.205  12.573  0.8794  0.6651  1.7683
  136CHL1    O316253   5.526   2.196  12.410 -0.1474 -0.4678 -0.4401
  136CHL1   H3'16254   5.622   2.207  12.407 -0.3473  1.8920 -0.0824
  136CHL1    C416255   5.570   2.342  12.594 -0.3615  0.1043 -0.8254
  136CHL1   H4A16256   5.676   2.337  12.560  0.1712  0.4334  0.6881
  136CHL1   H4B16257   5.521   2.421  12.533 -0.1981 -0.3650 -1.5785
  136CHL1    C516258   5.562   2.361  12.745  0.5714 -0.4342 -0.1073
  136CHL1    C616259   5.497   2.465  12.806  0.6551  0.0074 -0.5203
  136CHL1    H616260   5.431   2.529  12.746  0.0251  2.4388  2.5220
  136CHL1    C716261   5.495   2.490  12.950 -0.1741  0.6263  0.5329
  136CHL1   H7A16262   5.511   2.598  12.971  1.5754  0.4327  0.3119
  136CHL1   H7B16263   5.393   2.473  12.992  1.0108 -2.1489  2.6414
  136CHL1    C816264   5.597   2.403  13.024  0.1541 -0.4481 -0.4915
  136CHL1    H816265   5.700   2.436  13.000  0.7989 -1.4677  0.7260
  136CHL1   C1416266   5.579   2.417  13.174 -0.4595 -2.0937 -0.0856
  136CHL1   H1416267   5.472   2.389  13.188 -0.9296 -0.5757 -0.4166
  136CHL1   C1516268   5.586   2.564  13.242  0.0953  0.0198  0.0830
  136CHL1  H15A16269   5.675   2.619  13.204 -0.0971 -0.0373 -0.4665
  136CHL1  H15B16270   5.499   2.627  13.215 -0.6616 -1.7214 -1.8321
  136CHL1   C1616271   5.598   2.530  13.393  0.3174  0.4061 -0.1304
  136CHL1  H16A16272   5.690   2.571  13.439  1.3593 -2.8276  0.9435
  136CHL1  H16B16273   5.517   2.585  13.446  0.7717  0.9709 -0.0137
  136CHL1   C1716274   5.615   2.371  13.399  0.9150 -0.4206 -0.1430
  136CHL1   H1716275   5.513   2.327  13.409 -0.5585  2.9741  1.0667
  136CHL1   C1316276   5.665   2.327  13.258  0.1599  1.0497  0.0669
  136CHL1   C1816277   5.823   2.365  13.261 -0.1495 -0.2919 -0.0872
  136CHL1  H18A16278   5.834   2.467  13.303 -0.5010 -0.3087  0.0537
  136CHL1  H18B16279   5.875   2.295  13.330 -1.1364 -1.3384 -0.3713
  136CHL1  H18C16280   5.870   2.360  13.161 -1.8788 -1.9429 -0.8919
  136CHL1   C1216281   5.641   2.182  13.217  0.5643 -0.1289 -0.1822
  136CHL1  H12A16282   5.697   2.114  13.284 -1.2324 -1.3182  0.1798
  136CHL1  H12B16283   5.536   2.157  13.243  1.0668  0.6376  2.9215
  136CHL1   C1116284   5.671   2.158  13.071  0.0925  0.0995  0.0280
  136CHL1  H11A16285   5.777   2.171  13.042 -0.1839  0.7677 -0.7199
  136CHL1  H11B16286   5.652   2.051  13.045 -0.0863  0.1545 -0.0709
  136CHL1    C916287   5.597   2.260  12.978  0.1366  0.5700 -0.3288
  136CHL1    H916288   5.493   2.224  12.994  0.3480  0.3400  0.6498
  136CHL1   C1016289   5.630   2.245  12.829  0.0034 -0.1917 -0.2064
  136CHL1   C1916290   5.783   2.263  12.804  0.4108 -0.2323  0.1476
  136CHL1  H19A16291   5.810   2.253  12.697  0.8554  0.8681  0.1478
  136CHL1  H19B16292   5.815   2.361  12.844 -1.0747 -0.3629  1.7985
  136CHL1  H19C16293   5.844   2.186  12.856  1.8247  1.3390  0.8846
  136CHL1    C116294   5.573   2.111  12.775  0.3410 -0.7294 -0.2972
  136CHL1   H1A16295   5.618   2.024  12.828 -0.8694 -0.8176  0.6274
  136CHL1   H1B16296   5.466   2.103  12.805  0.0128 -1.2452 -1.5228
  136CHL1    C216297   5.576   2.089  12.626  0.7812  0.0207 -0.4885
  136CHL1   H2A16298   5.516   2.001  12.595 -0.2179 -0.1605  1.7483
  136CHL1   H2B16299   5.675   2.079  12.578  0.9372 -0.0464 -0.1561
  136CHL1   C2016300   5.689   2.334  13.526  0.3858  0.6187  0.4815
  136CHL1   H2016301   5.796   2.360  13.513  0.5519  0.5066  1.5628
  136CHL1   C2116302   5.676   2.185  13.551  0.5057 -0.5081  0.6342
  136CHL1  H21A16303   5.715   2.163  13.653  0.3904 -0.9491  0.5848
  136CHL1  H21B16304   5.727   2.125  13.472 -1.2497  0.8533 -1.6432
  136CHL1  H21C16305   5.567   2.165  13.550  0.6859 -1.5801  0.8693
  136CHL1   C2216306   5.639   2.408  13.655  0.1350 -0.0270 -0.2797
  136CHL1  H22A16307   5.614   2.514  13.638 -1.1416 -0.4926 -1.5135
  136CHL1  H22B16308   5.551   2.356  13.699  0.2323 -0.2570 -0.3559
  136CHL1   C2316309   5.744   2.402  13.764 -0.6042 -0.0307 -0.9169
  136CHL1  H23A16310   5.693   2.397  13.863 -1.2821  0.2076 -1.2495
  136CHL1  H23B16311   5.810   2.313  13.756  1.4170  1.4633 -1.9517
  136CHL1   C2416312   5.832   2.526  13.770 -0.5300 -0.3197  0.1908
  136CHL1  H24A16313   5.855   2.560  13.667  0.1762  0.1937  0.5069
  136CHL1  H24B16314   5.792   2.611  13.830  0.2610  0.4624 -0.3543
  136CHL1   C2516315   5.971   2.502  13.839  0.3344  0.4776  0.0160
  136CHL1   H2516316   6.027   2.424  13.784  2.2455  2.0628 -0.3819
  136CHL1   C2616317   6.051   2.635  13.845  0.5079  0.4227  0.2035
  136CHL1  H26A16318   6.147   2.619  13.897  0.0455 -2.8542  0.2410
  136CHL1  H26B16319   6.074   2.666  13.741 -0.7457 -2.0953 -0.9127
  136CHL1  H26C16320   5.992   2.714  13.897 -0.5413  0.1583 -0.5399
  136CHL1   C2716321   5.952   2.447  13.982 -0.4568 -0.3315 -0.7523
  136CHL1  H27A16322   5.909   2.344  13.975 -1.1711 -0.0399 -0.6866
  136CHL1  H27B16323   6.046   2.439  14.040  0.2084 -1.8355 -1.9473
  136CHL1  H27C16324   5.872   2.500  14.037 -0.0040 -1.4589  1.0597
  137CHL1    C316325   3.101   2.219  12.898 -0.3153  0.1439  0.6706
  137CHL1    H316326   3.168   2.297  12.939 -0.5271  0.8149 -0.2324
  137CHL1    O316327   3.164   2.179  12.772  0.1215 -0.0627  0.0984
  137CHL1   H3'16328   3.103   2.118  12.731 -0.8865  1.1301 -0.2291
  137CHL1    C416329   3.105   2.100  12.986 -0.2471  0.2196  0.4242
  137CHL1   H4A16330   3.063   2.013  12.930 -2.2004  0.6749  1.0901
  137CHL1   H4B16331   3.213   2.087  13.009  0.1575 -0.4414 -1.6324
  137CHL1    C516332   3.030   2.123  13.116  0.4183 -0.0074 -0.3313
  137CHL1    C616333   3.092   2.102  13.235 -0.5144  0.5290  0.3820
  137CHL1    H616334   3.197   2.071  13.245 -0.4192  0.6471 -0.2235
  137CHL1    C716335   3.026   2.123  13.368 -0.7399 -0.5459  0.2394
  137CHL1   H7A16336   3.042   2.035  13.434  0.1544 -1.0986 -0.6910
  137CHL1   H7B16337   3.076   2.210  13.417  1.3280 -0.4438 -1.8742
  137CHL1    C816338   2.870   2.143  13.357 -0.1765  1.4646 -0.7096
  137CHL1    H816339   2.821   2.046  13.333  1.5441  0.5413 -0.7320
  137CHL1   C1416340   2.804   2.196  13.486  0.0089 -0.2082 -0.1952
  137CHL1   H1416341   2.838   2.301  13.495  0.0415 -0.3816  2.2195
  137CHL1   C1516342   2.833   2.117  13.618  0.0722 -0.3042 -0.4637
  137CHL1  H15A16343   2.823   2.006  13.613 -2.8246 -0.0660 -2.0153
  137CHL1  H15B16344   2.935   2.143  13.654  0.0203  1.7267 -1.6135
  137CHL1   C1616345   2.730   2.154  13.717  1.3222 -0.2157 -0.0415
  137CHL1  H16A16346   2.675   2.062  13.745  1.8225 -0.4704  0.1223
  137CHL1  H16B16347   2.763   2.210  13.808 -1.6068  3.1939 -0.8525
  137CHL1   C1716348   2.635   2.250  13.635  0.0847 -0.7732 -0.2434
  137CHL1   H1716349   2.679   2.350  13.656 -0.5095 -0.8300  1.4446
  137CHL1   C1316350   2.655   2.216  13.485  0.5529 -0.3306  0.2269
  137CHL1   C1816351   2.572   2.085  13.461 -0.3116  0.3659 -0.6914
  137CHL1  H18A16352   2.601   2.036  13.365  1.1647  0.6995 -0.4362
  137CHL1  H18B16353   2.596   2.006  13.535 -1.3931  1.1320  0.5349
  137CHL1  H18C16354   2.463   2.102  13.452 -0.7867 -2.8728 -2.1691
  137CHL1   C1216355   2.623   2.319  13.376 -0.0415  0.4878  0.0028
  137CHL1  H12A16356   2.514   2.325  13.354  0.1138 -0.7785 -1.2741
  137CHL1  H12B16357   2.658   2.422  13.400  0.0701  1.0625 -2.4063
  137CHL1   C1116358   2.681   2.275  13.239  0.5303 -0.1631  0.2697
  137CHL1  H11A16359   2.622   2.187  13.208 -0.8935  1.3618 -1.6340
  137CHL1  H11B16360   2.658   2.353  13.162 -0.7763  1.3435  2.0826
  137CHL1    C916361   2.831   2.236  13.240 -0.0483 -0.3329  0.1791
  137CHL1    H916362   2.892   2.326  13.264 -1.1697  0.1739  1.2183
  137CHL1   C1016363   2.886   2.195  13.105 -0.5707  0.1747 -0.4843
  137CHL1   C1916364   2.794   2.086  13.036 -0.9769  0.0388  0.4480
  137CHL1  H19A16365   2.694   2.131  13.021 -0.1807  1.9181  0.5796
  137CHL1  H19B16366   2.833   2.043  12.941 -4.6884 -3.8050  0.3614
  137CHL1  H19C16367   2.782   2.001  13.107  0.8005  0.6749  1.5557
  137CHL1    C116368   2.896   2.318  13.006 -0.1429  0.1948  0.2105
  137CHL1   H1A16369   2.806   2.383  12.998  1.2891  2.0309 -2.3006
  137CHL1   H1B16370   2.966   2.390  13.053 -1.7423  2.2030 -0.3325
  137CHL1    C216371   2.964   2.282  12.866 -0.4904 -0.3311  0.9141
  137CHL1   H2A16372   2.968   2.373  12.802  1.3317 -2.5288 -2.3443
  137CHL1   H2B16373   2.905   2.208  12.808 -1.1034  1.2529 -0.5677
  137CHL1   C2016374   2.494   2.261  13.690  0.2635  0.4786  0.2070
  137CHL1   H2016375   2.436   2.176  13.649  1.1234 -1.2440  2.4087
  137CHL1   C2116376   2.430   2.381  13.630  0.4512 -0.3871  0.2927
  137CHL1  H21A16377   2.494   2.472  13.634 -0.3363  0.1458  1.4322
  137CHL1  H21B16378   2.336   2.401  13.686  0.2477 -0.2997 -0.0737
  137CHL1  H21C16379   2.393   2.364  13.526 -0.2273  2.9275 -0.1281
  137CHL1   C2216380   2.471   2.242  13.847 -0.4225 -0.1923  0.5710
  137CHL1  H22A16381   2.363   2.230  13.871 -0.7892  0.4782 -0.6823
  137CHL1  H22B16382   2.514   2.140  13.860 -1.7398 -1.0718 -1.3464
  137CHL1   C2316383   2.540   2.342  13.938  0.1475 -0.6469  0.1679
  137CHL1  H23A16384   2.648   2.354  13.914 -0.1271 -0.9293 -1.2799
  137CHL1  H23B16385   2.504   2.441  13.902  2.3758 -0.7473 -2.7041
  137CHL1   C2416386   2.515   2.322  14.091  0.4384 -0.4563  0.4128
  137CHL1  H24A16387   2.406   2.320  14.110  0.0777  0.5649 -1.3552
  137CHL1  H24B16388   2.567   2.233  14.133  2.0835  0.1984 -0.1326
  137CHL1   C2516389   2.579   2.438  14.171  0.0562  0.3227  0.3950
  137CHL1   H2516390   2.669   2.470  14.115  0.0863 -0.6176 -0.1084
  137CHL1   C2616391   2.480   2.556  14.185  0.1318 -0.2862 -0.7587
  137CHL1  H26A16392   2.536   2.641  14.229 -1.5321  0.2840  0.3904
  137CHL1  H26B16393   2.450   2.579  14.080 -2.0121 -1.6077 -0.4901
  137CHL1  H26C16394   2.389   2.539  14.247  0.6422 -0.4475 -0.0457
  137CHL1   C2716395   2.625   2.383  14.304  0.2764 -0.1699  0.0689
  137CHL1  H27A16396   2.537   2.353  14.364  0.4053 -0.5861  0.0570
  137CHL1  H27B16397   2.690   2.293  14.301 -0.0954 -0.4506  0.3363
  137CHL1  H27C16398   2.665   2.465  14.366 -1.6836 -0.7812  2.2769
  138CHL1    C316399   0.120   0.693  12.605  0.4276 -0.8038  0.0895
  138CHL1    H316400   0.027   0.693  12.666  0.1302 -0.7976 -0.3583
  138CHL1    O316401   0.093   0.699  12.469 -0.2650  0.2938  0.8110
  138CHL1   H3'16402   0.086   0.791  12.443 -2.0423 -0.4371 -1.6576
  138CHL1    C416403   0.209   0.820  12.646 -0.4565 -0.4196  0.0510
  138CHL1   H4A16404   0.308   0.818  12.594  0.6933 -0.9163  2.1185
  138CHL1   H4B16405   0.150   0.900  12.597  0.2449 -0.5759 -1.0920
  138CHL1    C516406   0.234   0.826  12.793 -0.2820 -0.6224 -0.6812
  138CHL1    C616407   0.196   0.926  12.871  0.2807  0.0576  0.8610
  138CHL1    H616408   0.151   1.015  12.826  0.1721 -0.8554 -0.9310
  138CHL1    C716409   0.222   0.942  13.017  0.1268  0.1959  0.9040
  138CHL1   H7A16410   0.261   1.044  13.040 -0.0816  0.3565  0.5514
  138CHL1   H7B16411   0.129   0.917  13.072  0.0899  0.4542  0.9625
  138CHL1    C816412   0.323   0.842  13.061 -0.4262  0.1234 -0.0363
  138CHL1    H816413   0.425   0.870  13.025 -0.4362  0.9481  0.5604
  138CHL1   C1416414   0.326   0.825  13.216  0.8478  0.0940  1.0879
  138CHL1   H1416415   0.229   0.785  13.252  0.2796  0.2117 -0.2646
  138CHL1   C1516416   0.338   0.952  13.293  0.4850 -0.0168 -0.2719
  138CHL1  H15A16417   0.417   1.013  13.244  1.2797 -0.8940 -0.1155
  138CHL1  H15B16418   0.241   1.005  13.286 -0.7403 -2.2533 -1.2600
  138CHL1   C1616419   0.382   0.918  13.433 -0.4124  0.5138 -0.9263
  138CHL1  H16A16420   0.471   0.974  13.466  0.4233 -1.2625 -0.0183
  138CHL1  H16B16421   0.301   0.918  13.510 -0.8077  0.0476 -1.3316
  138CHL1   C1716422   0.422   0.765  13.429 -0.3388  0.0763  0.0980
  138CHL1   H1716423   0.330   0.715  13.465 -0.6521 -0.5689 -1.4990
  138CHL1   C1316424   0.427   0.741  13.273  0.2231  0.2992 -0.4801
  138CHL1   C1816425   0.564   0.776  13.226  0.1086  0.1352  0.8218
  138CHL1  H18A16426   0.596   0.876  13.261  1.2422 -0.3962  1.3808
  138CHL1  H18B16427   0.638   0.706  13.271 -0.3523 -1.6131 -0.9860
  138CHL1  H18C16428   0.582   0.769  13.117 -0.2980 -0.6373  0.7929
  138CHL1   C1216429   0.394   0.594  13.230 -0.6560  0.5504 -0.0253
  138CHL1  H12A16430   0.472   0.523  13.265 -0.6599  1.4563  1.9708
  138CHL1  H12B16431   0.297   0.567  13.277  0.3386 -1.6022  0.9328
  138CHL1   C1116432   0.391   0.588  13.076  0.3722  0.8139  0.2702
  138CHL1  H11A16433   0.494   0.602  13.036  0.1605 -0.6179 -0.8755
  138CHL1  H11B16434   0.347   0.493  13.040  0.7076  0.6545  0.2776
  138CHL1    C916435   0.300   0.697  13.007 -0.5442 -0.0372  0.0738
  138CHL1    H916436   0.196   0.674  13.039 -0.6892 -0.7279 -0.8497
  138CHL1   C1016437   0.305   0.700  12.848  0.4468 -0.1375  0.1786
  138CHL1   C1916438   0.448   0.700  12.793 -0.1932 -0.1586 -0.0487
  138CHL1  H19A16439   0.509   0.625  12.847 -1.6063 -0.5677  1.0492
  138CHL1  H19B16440   0.458   0.674  12.685  2.1139  0.7437 -0.1188
  138CHL1  H19C16441   0.490   0.802  12.804 -1.3534  0.1990  1.3862
  138CHL1    C116442   0.219   0.576  12.803  0.4277  0.0497  0.1459
  138CHL1   H1A16443   0.274   0.483  12.829  0.4568  0.3610  1.2717
  138CHL1   H1B16444   0.123   0.571  12.858  0.7303 -1.4076  0.5780
  138CHL1    C216445   0.189   0.568  12.646  0.0350  0.2699 -0.1740
  138CHL1   H2A16446   0.135   0.473  12.623 -1.8853  1.4932 -0.9575
  138CHL1   H2B16447   0.281   0.575  12.584  1.1296  0.1148  1.3690
  138CHL1   C2016448   0.538   0.726  13.522  1.0305 -0.0122  0.4212
  138CHL1   H2016449   0.632   0.774  13.485  0.6167  1.5377  1.2927
  138CHL1   C2116450   0.565   0.572  13.519 -0.2126 -0.4628  0.0365
  138CHL1  H21A16451   0.630   0.534  13.600 -0.1637 -0.1242  0.1609
  138CHL1  H21B16452   0.619   0.543  13.426  0.9778 -0.8162  0.8244
  138CHL1  H21C16453   0.472   0.512  13.513  1.0473 -2.4432 -0.7893
  138CHL1   C2216454   0.519   0.787  13.668  0.1484  0.4178 -0.0622
  138CHL1  H22A16455   0.527   0.897  13.665  1.7591  0.3491  0.6926
  138CHL1  H22B16456   0.430   0.749  13.723  0.2902  0.3396  0.1123
  138CHL1   C2316457   0.646   0.753  13.759  0.7392  0.3694 -0.2971
  138CHL1  H23A16458   0.641   0.644  13.779 -0.3716  0.7219  1.5920
  138CHL1  H23B16459   0.740   0.774  13.704  2.3498 -1.0953  1.7341
  138CHL1   C2416460   0.638   0.817  13.894  0.0129 -0.2884 -1.4272
  138CHL1  H24A16461   0.618   0.923  13.866 -0.9304 -0.2813 -0.7793
  138CHL1  H24B16462   0.553   0.772  13.949  0.1992 -0.7564 -1.5157
  138CHL1   C2516463   0.755   0.820  13.997  0.0523  0.0107  0.0396
  138CHL1   H2516464   0.717   0.888  14.077 -2.6028 -3.7582  2.3009
  138CHL1   C2616465   0.782   0.680  14.067 -0.5874 -0.4679 -0.4760
  138CHL1  H26A16466   0.853   0.689  14.151  0.7039  2.6461 -1.7682
  138CHL1  H26B16467   0.689   0.633  14.106  0.7070 -2.0360  0.8906
  138CHL1  H26C16468   0.819   0.607  13.991  0.9812  0.1726 -0.3697
  138CHL1   C2716469   0.884   0.867  13.931 -0.2059 -0.0884 -0.5989
  138CHL1  H27A16470   0.874   0.971  13.893 -0.3285  0.3249  0.5245
  138CHL1  H27B16471   0.976   0.882  13.992  0.2751  3.0485 -1.9145
  138CHL1  H27C16472   0.916   0.803  13.846  2.9633  0.1513  0.2641
  139CHL1    C316473   1.739   1.028  12.281 -0.1332 -0.1391 -0.6874
  139CHL1    H316474   1.782   1.130  12.296  1.8867 -1.1553  0.9303
  139CHL1    O316475   1.712   1.009  12.146  0.2254 -0.1828  0.0093
  139CHL1   H3'16476   1.646   1.076  12.126 -0.1588 -1.1386 -2.1785
  139CHL1    C416477   1.838   0.919  12.328 -0.1500 -0.3332 -0.7232
  139CHL1   H4A16478   1.796   0.819  12.302  0.0333  0.0456 -2.6179
  139CHL1   H4B16479   1.925   0.946  12.266 -1.2635  2.3679 -1.2164
  139CHL1    C516480   1.870   0.915  12.475  0.1296  0.3795 -0.2790
  139CHL1    C616481   1.989   0.923  12.530  0.0246  0.3924  0.1128
  139CHL1    H616482   2.073   0.944  12.462 -0.0936 -0.3124 -0.2703
  139CHL1    C716483   2.017   0.919  12.681  0.1102 -0.7747 -0.0337
  139CHL1   H7A16484   2.099   0.854  12.718  1.5150  0.7522 -0.3142
  139CHL1   H7B16485   2.043   1.025  12.703  0.0058 -0.7182 -0.1777
  139CHL1    C816486   1.886   0.887  12.768 -0.3777 -0.8391 -0.1239
  139CHL1    H816487   1.885   0.776  12.768  2.9525 -0.9962 -1.6485
  139CHL1   C1416488   1.903   0.932  12.906  0.0300  0.1625  0.3688
  139CHL1   H1416489   1.904   1.043  12.896  2.6012  0.0849 -1.0779
  139CHL1   C1516490   2.037   0.909  12.973  0.3621  0.2011 -1.0528
  139CHL1  H15A16491   2.072   0.808  12.943 -0.0405  0.2814 -1.8456
  139CHL1  H15B16492   2.114   0.986  12.951  0.0491  0.9283  0.3018
  139CHL1   C1616493   1.997   0.902  13.126 -0.2442  0.2172 -0.4040
  139CHL1  H16A16494   2.016   0.797  13.156 -1.2193 -0.1496 -1.0212
  139CHL1  H16B16495   2.058   0.973  13.186  1.5842 -1.2781 -0.4188
  139CHL1   C1716496   1.842   0.929  13.138 -1.0043 -0.1429 -0.4821
  139CHL1   H1716497   1.834   1.039  13.151  0.4064 -0.1713  0.8989
  139CHL1   C1316498   1.787   0.888  13.000  0.5945 -0.2779 -0.0076
  139CHL1   C1816499   1.770   0.735  13.004  0.4037 -0.1364 -0.3324
  139CHL1  H18A16500   1.693   0.697  13.076 -2.2479  3.8896 -0.7485
  139CHL1  H18B16501   1.736   0.704  12.903 -2.9679  1.3242  0.2198
  139CHL1  H18C16502   1.867   0.682  13.015 -1.5784 -3.9111  1.2255
  139CHL1   C1216503   1.667   0.964  12.953  0.5050  0.0404  0.7224
  139CHL1  H12A16504   1.581   0.942  13.020  0.0494  1.9886  0.8424
  139CHL1  H12B16505   1.675   1.075  12.951 -2.6732  0.3668 -0.4436
  139CHL1   C1116506   1.635   0.928  12.804  0.2526  0.1901 -0.0089
  139CHL1  H11A16507   1.605   0.821  12.804  0.8634  0.0174 -0.1910
  139CHL1  H11B16508   1.550   0.994  12.774  0.4140 -0.0332 -0.9995
  139CHL1    C916509   1.760   0.941  12.709  0.2035  0.0610 -0.0769
  139CHL1    H916510   1.777   1.051  12.714  0.9157  0.1629 -2.7998
  139CHL1   C1016511   1.732   0.912  12.556 -0.4746 -0.4921 -0.0395
  139CHL1   C1916512   1.672   0.769  12.548  0.1528  0.2614 -0.2920
  139CHL1  H19A16513   1.675   0.714  12.452  1.0125 -1.7052  0.7963
  139CHL1  H19B16514   1.722   0.702  12.622 -0.8368 -0.9801 -0.7071
  139CHL1  H19C16515   1.565   0.781  12.575  0.8309  1.6509  2.1147
  139CHL1    C116516   1.637   1.017  12.504  0.2355 -0.3534 -0.7094
  139CHL1   H1A16517   1.540   1.003  12.555  1.2156  1.1144  1.7506
  139CHL1   H1B16518   1.669   1.120  12.533 -0.4587 -0.7625  1.6634
  139CHL1    C216519   1.611   1.016  12.355 -0.3908 -0.6374  0.3224
  139CHL1   H2A16520   1.557   1.107  12.320  0.3909 -0.4639 -0.4719
  139CHL1   H2B16521   1.550   0.929  12.323 -0.2810 -1.1508  1.4719
  139CHL1   C2016522   1.775   0.875  13.276 -0.5083  1.0573 -0.3892
  139CHL1   H2016523   1.781   0.764  13.283 -0.7713  1.0357 -0.4958
  139CHL1   C2116524   1.631   0.929  13.291 -0.0322  0.1126  0.3039
  139CHL1  H21A16525   1.574   0.905  13.383 -0.3765 -1.7323 -0.3469
  139CHL1  H21B16526   1.571   0.877  13.213  1.1546  3.3302 -3.0345
  139CHL1  H21C16527   1.636   1.037  13.266 -0.0095  0.1407  0.4291
  139CHL1   C2216528   1.860   0.934  13.392 -0.2461 -0.6237  0.1022
  139CHL1  H22A16529   1.968   0.909  13.384  0.4035  2.3568 -3.3697
  139CHL1  H22B16530   1.867   1.045  13.387 -0.1855 -0.6210  0.2700
  139CHL1   C2316531   1.819   0.889  13.537  0.2885  0.5194  0.2997
  139CHL1  H23A16532   1.717   0.928  13.558  1.2728  3.7685 -0.3789
  139CHL1  H23B16533   1.812   0.778  13.541 -1.0238  0.5858  0.5238
  139CHL1   C2416534   1.918   0.950  13.642 -0.4131  0.0220 -0.5090
  139CHL1  H24A16535   2.013   0.892  13.647  1.6014  2.9242 -2.2980
  139CHL1  H24B16536   1.950   1.051  13.611  1.2317  0.3217  1.8841
  139CHL1   C2516537   1.847   0.946  13.781  0.2561  0.4578  0.8886
  139CHL1   H2516538   1.827   0.843  13.818  0.6567  0.2338  0.4982
  139CHL1   C2616539   1.933   1.020  13.890  0.0070 -0.0616  0.2130
  139CHL1  H26A16540   2.036   0.980  13.878 -0.3560 -0.4579 -1.8001
  139CHL1  H26B16541   1.928   1.128  13.863  0.0111  0.5494  2.4495
  139CHL1  H26C16542   1.892   1.001  13.992  0.0526 -1.3110  0.0119
  139CHL1   C2716543   1.715   1.027  13.777  0.8429 -0.0010 -0.5943
  139CHL1  H27A16544   1.685   1.039  13.883  0.2553 -0.2218 -0.7327
  139CHL1  H27B16545   1.732   1.130  13.737 -0.5591  0.5340  0.1111
  139CHL1  H27C16546   1.631   0.974  13.729  1.2906 -0.8515 -0.4466
  140CHL1    C316547   0.602   1.188  12.529  0.0181 -0.1436 -0.7634
  140CHL1    H316548   0.565   1.293  12.532 -1.2385 -0.5881 -0.0182
  140CHL1    O316549   0.597   1.126  12.399 -0.2218  0.4150  0.1684
  140CHL1   H3'16550   0.508   1.093  12.383 -1.1292  2.2132  1.1647
  140CHL1    C416551   0.749   1.179  12.573 -0.0452  0.2839  0.2172
  140CHL1   H4A16552   0.787   1.075  12.562 -1.4942 -0.1656 -0.7325
  140CHL1   H4B16553   0.810   1.241  12.503 -0.0285 -0.1460 -0.1519
  140CHL1    C516554   0.793   1.203  12.718  0.5394  0.3218 -0.1254
  140CHL1    C616555   0.882   1.294  12.754  0.2876 -0.5984  0.4420
  140CHL1    H616556   0.937   1.359  12.684  0.4171 -1.1804 -0.0023
  140CHL1    C716557   0.926   1.327  12.892  0.6700 -0.1285  0.2481
  140CHL1   H7A16558   1.036   1.318  12.905  0.4748 -1.5149  1.2483
  140CHL1   H7B16559   0.897   1.431  12.919  0.8565  0.0036 -0.0588
  140CHL1    C816560   0.864   1.234  12.991 -0.4504  0.1799  0.0897
  140CHL1    H816561   0.927   1.142  12.987 -1.2394 -0.3190 -2.0712
  140CHL1   C1416562   0.874   1.299  13.130 -0.6604 -0.0829 -0.3316
  140CHL1   H1416563   0.805   1.386  13.126 -1.0967 -0.4650 -1.6256
  140CHL1   C1516564   1.004   1.343  13.188  0.2757 -0.4227 -0.0440
  140CHL1  H15A16565   1.096   1.293  13.152 -0.3417  0.0675 -2.4902
  140CHL1  H15B16566   1.027   1.447  13.156  0.7512  0.1235  1.9629
  140CHL1   C1616567   0.993   1.338  13.339 -0.1356  0.1147  0.8417
  140CHL1  H16A16568   1.065   1.270  13.390 -0.2802 -1.5316 -1.0592
  140CHL1  H16B16569   1.002   1.442  13.379  1.3704  0.5998 -0.6372
  140CHL1   C1716570   0.854   1.286  13.363  0.4855  0.1867 -0.2624
  140CHL1   H1716571   0.791   1.375  13.379  0.8511  0.1780  1.4042
  140CHL1   C1316572   0.814   1.212  13.236 -0.0412  0.3638  0.1445
  140CHL1   C1816573   0.888   1.075  13.236  0.5877  0.0516  0.1782
  140CHL1  H18A16574   0.898   1.023  13.139  1.9492  1.6564 -0.5875
  140CHL1  H18B16575   0.997   1.090  13.255  1.3943 -2.6110 -1.7196
  140CHL1  H18C16576   0.846   1.003  13.309  0.0196  0.3298  0.1277
  140CHL1   C1216577   0.665   1.191  13.211 -0.7247 -0.0760  0.2247
  140CHL1  H12A16578   0.606   1.146  13.294  1.6235  1.8877  3.1872
  140CHL1  H12B16579   0.616   1.289  13.191  0.0827 -0.2256 -2.9028
  140CHL1   C1116580   0.648   1.119  13.076  0.4707 -0.1270 -0.6388
  140CHL1  H11A16581   0.685   1.014  13.080 -1.4923 -0.8915 -1.1278
  140CHL1  H11B16582   0.540   1.107  13.052  0.2892  2.1688 -1.1628
  140CHL1    C916583   0.719   1.193  12.955 -0.0095 -0.0194 -0.8683
  140CHL1    H916584   0.658   1.285  12.947 -1.7998 -1.1048 -0.3375
  140CHL1   C1016585   0.703   1.127  12.821  0.2113 -0.1950  0.1194
  140CHL1   C1916586   0.744   0.982  12.827  0.3642  0.0551 -0.4705
  140CHL1  H19A16587   0.767   0.940  12.727 -0.9985 -3.7806  0.6589
  140CHL1  H19B16588   0.835   0.973  12.890  1.4548  0.2036 -1.9665
  140CHL1  H19C16589   0.673   0.901  12.854  1.5706 -1.4630 -1.6238
  140CHL1    C116590   0.551   1.139  12.778  0.8565 -0.5720  0.8302
  140CHL1   H1A16591   0.486   1.066  12.831  0.7772 -1.5475 -0.5309
  140CHL1   H1B16592   0.522   1.244  12.799  3.2317  0.1653  0.7217
  140CHL1    C216593   0.517   1.104  12.634  0.0069 -0.3592  0.0980
  140CHL1   H2A16594   0.408   1.101  12.613  0.1294 -2.8041 -0.5015
  140CHL1   H2B16595   0.536   0.996  12.617  0.1204 -0.3858  0.3920
  140CHL1   C2016596   0.850   1.196  13.493 -0.3631 -0.2128  0.4671
  140CHL1   H2016597   0.919   1.111  13.473  0.2258  0.4954 -0.6339
  140CHL1   C2116598   0.705   1.142  13.521  0.6652 -0.3306  0.8066
  140CHL1  H21A16599   0.633   1.217  13.483 -0.9329 -1.3674  1.6843
  140CHL1  H21B16600   0.699   1.124  13.630  0.7259  1.4481  1.1339
  140CHL1  H21C16601   0.692   1.050  13.459 -1.0548  0.3095  0.1541
  140CHL1   C2216602   0.904   1.280  13.617  0.1549  0.2078 -0.2341
  140CHL1  H22A16603   1.013   1.293  13.600 -0.2249  3.5473 -0.7720
  140CHL1  H22B16604   0.871   1.386  13.621  0.5685  0.4385 -1.9370
  140CHL1   C2316605   0.897   1.213  13.754  0.3157 -0.1824 -0.1881
  140CHL1  H23A16606   0.794   1.208  13.795  0.4342 -0.2506  0.1050
  140CHL1  H23B16607   0.940   1.111  13.748  0.9647  0.1632 -3.3397
  140CHL1   C2416608   0.963   1.308  13.859  0.3984 -0.2927  0.4500
  140CHL1  H24A16609   1.070   1.319  13.831  0.7512 -2.0749  0.9145
  140CHL1  H24B16610   0.916   1.408  13.855  0.3580 -0.2970  0.7797
  140CHL1   C2516611   0.976   1.244  14.003  1.1674 -0.2671 -0.1987
  140CHL1   H2516612   1.036   1.151  14.007 -0.1843 -1.1255  0.6260
  140CHL1   C2616613   0.843   1.213  14.071 -0.2223  0.0699  0.5393
  140CHL1  H26A16614   0.785   1.307  14.083 -1.8055 -0.6450 -1.0501
  140CHL1  H26B16615   0.774   1.150  14.012 -0.6884 -0.0011  1.1502
  140CHL1  H26C16616   0.851   1.162  14.169  3.3117 -2.8097 -1.0327
  140CHL1   C2716617   1.057   1.350  14.091  0.8508 -0.7972 -0.2885
  140CHL1  H27A16618   1.055   1.322  14.198  0.0094  0.5833  0.0744
  140CHL1  H27B16619   1.161   1.345  14.051  0.9917 -0.6729  0.0627
  140CHL1  H27C16620   1.013   1.452  14.084 -1.0877 -1.3343  2.6767
  141DOPC     N16621   4.140   2.689  16.779  0.5625 -0.3058  0.0522
  141DOPC   C1216622   4.072   2.613  16.659 -0.1499 -0.6926 -0.1082
  141DOPC  H12A16623   4.114   2.514  16.655  3.3611  0.6838 -1.7874
  141DOPC  H12B16624   4.111   2.668  16.575  1.6864  1.2131  1.8439
  141DOPC   C1316625   4.128   2.604  16.906  0.6722 -0.8163 -0.2123
  141DOPC  H13A16626   4.028   2.565  16.897  0.0893  0.6686 -0.5495
  141DOPC  H13B16627   4.200   2.524  16.907  1.9624  0.2683  2.4852
  141DOPC  H13C16628   4.125   2.657  16.999 -2.1713  0.8188 -1.1003
  141DOPC   C1416629   4.084   2.819  16.811 -0.4245  0.4723  0.3667
  141DOPC  H14A16630   4.133   2.853  16.901 -2.2579 -0.5170  1.8104
  141DOPC  H14B16631   4.106   2.891  16.734  1.4669 -1.7642 -1.3388
  141DOPC  H14C16632   3.977   2.817  16.821 -0.5452  2.4845 -0.2304
  141DOPC   C1516633   4.289   2.697  16.744  0.6005  0.1726 -0.4588
  141DOPC  H15A16634   4.327   2.601  16.715  0.7900 -0.3843  1.4799
  141DOPC  H15B16635   4.348   2.743  16.823 -2.4478  0.0249  2.1042
  141DOPC  H15C16636   4.293   2.764  16.659 -0.1328 -2.0460 -2.3323
  141DOPC   C1116637   3.919   2.604  16.651  0.2728 -0.2072  0.1570
  141DOPC  H11A16638   3.890   2.709  16.630 -0.1807 -0.2583  0.5039
  141DOPC  H11B16639   3.881   2.532  16.574 -1.0287 -1.3881  1.8130
  141DOPC     P16640   3.725   2.657  16.839  0.0072 -0.2792  0.3178
  141DOPC   O1316641   3.759   2.801  16.818  0.2754  0.2489 -0.3439
  141DOPC   O1416642   3.721   2.612  16.980  0.2329  0.0212 -0.5248
  141DOPC   O1216643   3.856   2.572  16.777 -0.2548  0.1718 -0.5666
  141DOPC   O1116644   3.600   2.607  16.763  0.2780 -0.7219  0.2685
  141DOPC    C116645   3.603   2.483  16.696 -0.3198  0.7336 -0.1827
  141DOPC    HA16646   3.605   2.395  16.763  1.6604  0.5366 -0.4370
  141DOPC    HB16647   3.698   2.472  16.640  0.2091  0.6794  0.7140
  141DOPC    C216648   3.484   2.467  16.599 -0.3123  1.2925 -0.0497
  141DOPC    HS16649   3.499   2.376  16.538  1.5575  0.7730  1.1078
  141DOPC   O2116650   3.469   2.582  16.517  0.2741  0.0944 -0.4789
  141DOPC   C2116651   3.550   2.579  16.415 -0.8325  0.1609 -0.5839
  141DOPC   O2216652   3.628   2.488  16.388  0.3192 -0.6617  0.2555
  141DOPC   C2216653   3.546   2.706  16.336  0.2241  0.0224 -0.1203
  141DOPC   H2R16654   3.622   2.770  16.385 -0.9854  0.6487  1.0218
  141DOPC   H2S16655   3.448   2.758  16.344  0.0320  0.0315 -1.9525
  141DOPC    C316656   3.348   2.444  16.663 -0.1442  0.0310 -0.0482
  141DOPC    HX16657   3.335   2.521  16.742 -1.8890  0.0012 -0.2656
  141DOPC    HY16658   3.350   2.350  16.722  1.5726 -1.3946 -2.2182
  141DOPC   O3116659   3.246   2.443  16.561  0.1630  0.4403 -0.1942
  141DOPC   C3116660   3.125   2.464  16.610  0.3411 -0.7415  0.0052
  141DOPC   O3216661   3.097   2.474  16.730  0.1396  0.2349 -0.1778
  141DOPC   C3216662   3.031   2.490  16.493  0.8229 -0.5231  0.7141
  141DOPC   H2X16663   3.033   2.402  16.426 -2.7943  0.7424 -1.3221
  141DOPC   H2Y16664   2.930   2.501  16.539 -0.3758  0.3607 -1.9545
  141DOPC   C2316665   3.585   2.706  16.184  0.4976  1.3320  0.3378
  141DOPC   H3R16666   3.680   2.652  16.170  0.3550  1.2716 -0.4648
  141DOPC   H3S16667   3.616   2.807  16.149  0.6921  0.8334 -0.9830
  141DOPC   C2416668   3.475   2.642  16.091 -0.2914  0.0762 -0.0964
  141DOPC   H4R16669   3.376   2.669  16.132  0.2738  3.8878 -0.8566
  141DOPC   H4S16670   3.470   2.531  16.093 -0.7379  0.0992  0.1842
  141DOPC   C2516671   3.485   2.680  15.939 -0.4238  0.7941  0.5516
  141DOPC   H5R16672   3.508   2.787  15.956 -0.6657  0.9650 -0.1639
  141DOPC   H5S16673   3.383   2.686  15.894 -0.7084 -0.1513  1.0308
  141DOPC   C2616674   3.596   2.616  15.849  0.0338 -0.2655 -0.2732
  141DOPC   H6R16675   3.565   2.519  15.804 -2.1340  1.3265 -2.4585
  141DOPC   H6S16676   3.695   2.601  15.898  0.4939 -0.8060 -1.3353
  141DOPC   C2716677   3.630   2.723  15.732 -0.5821 -0.0692 -0.9697
  141DOPC   H7R16678   3.672   2.814  15.781  0.9222 -0.1387 -2.0539
  141DOPC   H7S16679   3.532   2.764  15.699 -0.5310  0.8168 -0.0908
  141DOPC   C2816680   3.714   2.668  15.607  0.1470 -0.7296  0.4123
  141DOPC   H8R16681   3.646   2.594  15.559 -0.1296 -0.4795  0.4226
  141DOPC   H8S16682   3.810   2.618  15.635  1.5267  0.9246 -1.1197
  141DOPC   C2916683   3.743   2.775  15.504 -0.7690 -0.0001  0.2899
  141DOPC   H9R16684   3.773   2.875  15.538  0.9942 -0.2084 -0.5336
  141DOPC  C21016685   3.740   2.754  15.369 -0.4040 -1.1861 -0.0667
  141DOPC  H10R16686   3.730   2.838  15.299  1.5449 -0.0956  0.8888
  141DOPC  C21116687   3.714   2.627  15.300  0.0813  0.7156 -0.3565
  141DOPC  H11R16688   3.736   2.543  15.369 -1.5045  0.1965 -0.4291
  141DOPC  H11S16689   3.772   2.622  15.205 -0.7302  0.3567 -0.8502
  141DOPC  C21216690   3.563   2.616  15.266  0.0971 -0.0697 -0.4554
  141DOPC  H12R16691   3.508   2.649  15.357  0.6692  0.6750 -0.3738
  141DOPC  H12S16692   3.523   2.512  15.261 -0.8072  0.2775 -0.7573
  141DOPC  C21316693   3.520   2.682  15.133 -0.6655 -0.1892  0.2841
  141DOPC  H13R16694   3.592   2.764  15.113  0.6316 -1.5770 -1.0525
  141DOPC  H13S16695   3.415   2.719  15.133 -0.9061 -0.8548  0.4558
  141DOPC  C21416696   3.545   2.598  15.004 -0.5781 -0.7141 -0.8292
  141DOPC  H14R16697   3.481   2.507  15.014 -0.7026 -0.4104  1.6485
  141DOPC  H14S16698   3.646   2.553  14.992 -0.9067 -1.4867 -0.7692
  141DOPC  C21516699   3.516   2.684  14.884 -0.9086 -0.5573 -0.6770
  141DOPC  H15R16700   3.575   2.778  14.891 -1.2631 -0.1950 -2.2094
  141DOPC  H15S16701   3.409   2.712  14.872 -0.9035 -0.5090 -0.6113
  141DOPC  C21616702   3.555   2.621  14.750 -0.1811 -0.3395  0.9023
  141DOPC  H16R16703   3.489   2.534  14.731  0.2121 -0.4185 -0.1336
  141DOPC  H16S16704   3.661   2.589  14.741 -0.0320  0.7989 -2.8059
  141DOPC  C21716705   3.539   2.721  14.631  0.4950  0.3085 -0.5847
  141DOPC  H17R16706   3.614   2.801  14.649  0.1353  0.3739  0.6633
  141DOPC  H17S16707   3.437   2.763  14.646  1.7685  3.0255  1.5084
  141DOPC  C21816708   3.563   2.643  14.500 -0.6396 -0.2392 -0.5783
  141DOPC  H18R16709   3.474   2.584  14.471 -2.0834  1.1085  0.9138
  141DOPC  H18S16710   3.649   2.575  14.519  0.9730  1.4075 -1.6688
  141DOPC  H18T16711   3.589   2.718  14.422  0.7774 -0.5943 -0.4742
  141DOPC   C3316712   3.055   2.629  16.426 -1.2682  0.2709  0.4977
  141DOPC   H3X16713   3.107   2.704  16.490 -0.6218 -0.1497  0.4674
  141DOPC   H3Y16714   2.958   2.677  16.399 -0.1251  1.2251 -2.3009
  141DOPC   C3416715   3.139   2.607  16.292 -0.1531  0.1858 -0.0218
  141DOPC   H4X16716   3.240   2.562  16.307  0.9029  2.5189  0.3145
  141DOPC   H4Y16717   3.160   2.712  16.261  2.0171  0.3765  1.8235
  141DOPC   C3516718   3.062   2.538  16.175 -0.8768  0.0597 -0.5326
  141DOPC   H5X16719   2.971   2.597  16.152 -2.6827 -2.7186 -0.9194
  141DOPC   H5Y16720   3.026   2.439  16.210 -2.8620  0.5458 -1.1040
  141DOPC   C3616721   3.138   2.532  16.043 -0.3010  0.1911  0.4450
  141DOPC   H6X16722   3.175   2.633  16.014 -0.7609  0.3706  0.4819
  141DOPC   H6Y16723   3.231   2.473  16.059 -0.5915 -0.0209  1.4351
  141DOPC   C3716724   3.060   2.482  15.922 -0.0631  0.3644 -0.1461
  141DOPC   H7X16725   3.037   2.374  15.923  0.9803  0.0950 -1.9145
  141DOPC   H7Y16726   2.960   2.532  15.918  0.2359  1.1772  1.5517
  141DOPC   C3816727   3.117   2.521  15.778 -0.1770 -0.0459 -0.4196
  141DOPC   H8X16728   3.140   2.629  15.776  2.3672 -0.5037 -0.1856
  141DOPC   H8Y16729   3.033   2.498  15.709 -0.4818 -2.3036  0.6018
  141DOPC   C3916730   3.233   2.441  15.728  0.4762 -0.3437  0.4526
  141DOPC   H9X16731   3.317   2.414  15.794  0.5732 -0.1390  0.4150
  141DOPC  C31016732   3.253   2.394  15.606 -0.4287  0.4159  0.0231
  141DOPC  H10X16733   3.341   2.333  15.584  0.5931  1.1146  1.9852
  141DOPC  C31116734   3.165   2.425  15.483 -0.5692  0.4478  0.9065
  141DOPC  H11X16735   3.123   2.527  15.490 -2.2120 -0.0781 -0.5637
  141DOPC  H11Y16736   3.078   2.356  15.475  1.8577 -2.6710 -1.8610
  141DOPC  C31216737   3.239   2.421  15.345 -0.1917  0.0556  0.3603
  141DOPC  H12X16738   3.298   2.328  15.326 -2.5628 -1.4295 -0.1435
  141DOPC  H12Y16739   3.303   2.511  15.339  0.2409 -0.3322 -1.4296
  141DOPC  C31316740   3.144   2.408  15.227  0.4162 -0.0772  0.1404
  141DOPC  H13X16741   3.107   2.303  15.220  0.1448 -0.2159  2.5552
  141DOPC  H13Y16742   3.058   2.476  15.245  0.3787  0.6770 -2.4737
  141DOPC  C31416743   3.218   2.458  15.103 -0.3936  0.2777  1.0657
  141DOPC  H14X16744   3.262   2.560  15.112  2.4889 -0.7264 -0.4416
  141DOPC  H14Y16745   3.298   2.386  15.074 -3.0106 -1.3580 -3.0004
  141DOPC  C31516746   3.118   2.452  14.983 -0.4066  0.2642  0.1964
  141DOPC  H15X16747   3.027   2.511  15.005 -1.7524 -1.0273 -1.5904
  141DOPC  H15Y16748   3.080   2.352  14.952 -1.0481 -0.0019  1.7468
  141DOPC  C31616749   3.179   2.508  14.851 -0.3679 -0.2994  0.1765
  141DOPC  H16X16750   3.214   2.612  14.869 -0.3112 -0.1358 -0.8202
  141DOPC  H16Y16751   3.275   2.457  14.826 -0.2222 -0.3502  0.8189
  141DOPC  C31716752   3.098   2.506  14.719 -0.5113 -0.2793 -0.2987
  141DOPC  H17X16753   3.163   2.543  14.637 -1.4560 -0.0334 -0.9491
  141DOPC  H17Y16754   3.061   2.403  14.703  0.0510 -0.6984  0.9301
  141DOPC  C31816755   2.976   2.595  14.732  0.5143  0.0311 -0.2285
  141DOPC  H18X16756   2.987   2.683  14.799  0.7321 -0.5966  0.5770
  141DOPC  H18Y16757   2.945   2.626  14.630  1.8352  2.5805  0.0694
  141DOPC  H18Z16758   2.894   2.535  14.778  2.1018 -2.4250 -0.3842
  142DOPC     N16759   5.006   3.065  16.979 -0.8824 -0.1222 -0.1763
  142DOPC   C1216760   5.051   2.980  16.858 -0.0103  0.4262  0.1186
  142DOPC  H12A16761   5.131   2.914  16.886  0.6774  1.7883  1.4720
  142DOPC  H12B16762   5.103   3.045  16.789  1.0235 -1.8567 -1.3606
  142DOPC   C1316763   5.123   3.124  17.047 -0.1938  0.5247  0.1460
  142DOPC  H13A16764   5.092   3.192  17.124 -0.7833 -1.3755  1.6488
  142DOPC  H13B16765   5.195   3.054  17.087  0.0226  0.0173 -1.0820
  142DOPC  H13C16766   5.176   3.179  16.970  1.9955  2.1862  2.6430
  142DOPC   C1416767   4.942   2.977  17.087 -0.6911  0.2852  0.2103
  142DOPC  H14A16768   4.873   3.023  17.156 -1.0373 -0.4818  0.3864
  142DOPC  H14B16769   4.882   2.913  17.024  0.1300  0.6911 -1.0275
  142DOPC  H14C16770   5.009   2.916  17.145 -1.1128 -0.7557 -0.3821
  142DOPC   C1516771   4.912   3.171  16.941 -0.0603 -0.0487 -0.1180
  142DOPC  H15A16772   4.890   3.233  17.027 -2.2762 -1.2765  0.2835
  142DOPC  H15B16773   4.815   3.138  16.907  0.4241 -1.4700 -0.1745
  142DOPC  H15C16774   4.944   3.220  16.850  1.2743 -0.3954  0.1439
  142DOPC   C1116775   4.935   2.897  16.782 -0.3880  0.2915 -0.1627
  142DOPC  H11A16776   4.891   2.962  16.703 -2.1332 -1.6478 -0.8542
  142DOPC  H11B16777   4.971   2.811  16.722 -2.9337 -0.7496 -0.3398
  142DOPC     P16778   4.672   2.880  16.828  0.0876 -0.0120 -0.0921
  142DOPC   O1316779   4.645   3.018  16.876 -0.0012 -0.2247  0.1345
  142DOPC   O1416780   4.594   2.767  16.885 -0.5332 -0.0899  0.1595
  142DOPC   O1216781   4.831   2.849  16.866  0.6592  0.2757 -0.0772
  142DOPC   O1116782   4.659   2.882  16.667  0.2100  0.4598 -0.5084
  142DOPC    C116783   4.691   2.758  16.598  0.7147  0.0759 -0.0014
  142DOPC    HA16784   4.604   2.690  16.602  0.0566  0.9035  0.1239
  142DOPC    HB16785   4.778   2.707  16.643  0.2455 -1.9568 -1.2744
  142DOPC    C216786   4.716   2.788  16.447 -0.0708 -0.2011  0.2060
  142DOPC    HS16787   4.808   2.850  16.435  0.2070 -0.0562  2.5665
  142DOPC   O2116788   4.602   2.848  16.389  0.1534 -0.2804  0.0464
  142DOPC   C2116789   4.623   2.940  16.291 -0.2778 -0.3260 -0.3327
  142DOPC   O2216790   4.728   2.987  16.256  0.3017 -0.2341  0.2161
  142DOPC   C2216791   4.482   2.964  16.252 -0.4510 -0.3610 -0.0832
  142DOPC   H2R16792   4.426   3.018  16.332 -3.5569 -2.8552 -0.3639
  142DOPC   H2S16793   4.429   2.867  16.240 -0.4524 -0.1870 -1.6613
  142DOPC    C316794   4.734   2.660  16.364 -0.4996  0.9580  0.3622
  142DOPC    HX16795   4.644   2.595  16.364  1.0960 -1.4124  1.3205
  142DOPC    HY16796   4.806   2.590  16.411 -1.0710  0.5308  0.6108
  142DOPC   O3116797   4.766   2.687  16.230 -0.5180  0.3490  0.5967
  142DOPC   C3116798   4.896   2.693  16.211 -0.0957 -0.3841  0.8742
  142DOPC   O3216799   4.983   2.672  16.290 -0.3877  0.8008  0.6190
  142DOPC   C3216800   4.932   2.723  16.062  0.6148  0.2273 -1.0611
  142DOPC   H2X16801   5.011   2.801  16.063 -0.5913  1.4934  0.6574
  142DOPC   H2Y16802   4.972   2.627  16.023  0.9835 -0.3951  0.7694
  142DOPC   C2316803   4.472   3.042  16.119  0.0054  0.1963 -0.1793
  142DOPC   H3R16804   4.538   2.993  16.045  0.2180 -0.5401  0.4803
  142DOPC   H3S16805   4.516   3.144  16.125  2.2878 -0.6199 -1.9518
  142DOPC   C2416806   4.328   3.054  16.069 -0.2811 -0.1433 -0.2850
  142DOPC   H4R16807   4.254   3.119  16.121  0.2790  0.1970  0.0992
  142DOPC   H4S16808   4.286   2.954  16.048  1.4403 -0.7250 -1.1492
  142DOPC   C2516809   4.340   3.122  15.930  0.0738 -0.2542  0.4166
  142DOPC   H5R16810   4.397   3.070  15.850 -1.1732  0.1677 -0.7867
  142DOPC   H5S16811   4.373   3.228  15.940 -0.9477  0.0552  0.5882
  142DOPC   C2616812   4.204   3.125  15.865  0.1715  0.7286 -0.2862
  142DOPC   H6R16813   4.123   3.168  15.927 -1.1812 -2.3203  0.1892
  142DOPC   H6S16814   4.172   3.021  15.842 -0.3451  0.6229  0.8784
  142DOPC   C2716815   4.201   3.195  15.726  0.0271  0.2368 -0.2311
  142DOPC   H7R16816   4.296   3.177  15.672 -1.2006 -2.6830 -1.6234
  142DOPC   H7S16817   4.191   3.306  15.728  1.1222  0.3531 -0.8000
  142DOPC   C2816818   4.091   3.132  15.640 -0.6348 -0.3035  0.1006
  142DOPC   H8R16819   4.087   3.218  15.569  4.0088  0.8747  0.9310
  142DOPC   H8S16820   4.003   3.118  15.707 -0.2326  0.6247  0.8455
  142DOPC   C2916821   4.131   2.999  15.590 -0.0907  0.7145  0.3308
  142DOPC   H9R16822   4.125   2.916  15.662  0.0989 -0.3323 -0.8456
  142DOPC  C21016823   4.160   2.966  15.460  0.5457 -0.0553  0.5060
  142DOPC  H10R16824   4.179   2.860  15.439 -0.7506 -0.1864 -0.1561
  142DOPC  C21116825   4.143   3.052  15.335 -0.2152 -0.1047 -0.0209
  142DOPC  H11R16826   4.245   3.074  15.295  0.4952 -3.2543 -0.2239
  142DOPC  H11S16827   4.090   3.149  15.342 -1.6051 -0.9568  2.8262
  142DOPC  C21216828   4.080   2.974  15.219 -0.1545 -0.5376 -0.2659
  142DOPC  H12R16829   3.985   2.920  15.236 -0.6492  0.3030 -0.2802
  142DOPC  H12S16830   4.137   2.883  15.192 -1.9014 -1.8903  0.4152
  142DOPC  C21316831   4.065   3.063  15.095 -0.1402  0.3372 -0.7516
  142DOPC  H13R16832   4.036   3.163  15.133  1.3772  1.2450 -1.8522
  142DOPC  H13S16833   3.984   3.021  15.032 -0.7291  0.4003 -0.0383
  142DOPC  C21416834   4.194   3.069  15.010 -0.3833 -0.0927  0.4333
  142DOPC  H14R16835   4.242   2.969  15.016  0.9570  0.5943  1.6538
  142DOPC  H14S16836   4.270   3.142  15.044  0.6943 -1.6472  1.4650
  142DOPC  C21516837   4.149   3.103  14.864  0.3454 -0.0588  0.0167
  142DOPC  H15R16838   4.236   3.148  14.810  0.3306  1.7841  1.4272
  142DOPC  H15S16839   4.072   3.183  14.868  0.2096 -0.2321  1.2169
  142DOPC  C21616840   4.092   2.993  14.781  0.0146 -0.3122 -0.5678
  142DOPC  H16R16841   4.021   2.928  14.837 -0.0105  1.4526  1.5551
  142DOPC  H16S16842   4.169   2.921  14.745 -1.8879 -2.1376 -1.2282
  142DOPC  C21716843   4.015   3.042  14.663  0.2863  0.0849  0.1982
  142DOPC  H17R16844   3.956   3.131  14.694  0.1998  0.3764 -0.7939
  142DOPC  H17S16845   3.941   2.973  14.617  0.8288 -0.5702  0.2957
  142DOPC  C21816846   4.104   3.087  14.550 -0.3398 -0.3026 -0.3181
  142DOPC  H18R16847   4.058   3.115  14.452  1.4207 -1.3157 -1.5002
  142DOPC  H18S16848   4.179   3.015  14.509  0.0033 -0.6691  0.9299
  142DOPC  H18T16849   4.170   3.172  14.580 -2.8888  1.1899  1.3664
  142DOPC   C3316850   4.811   2.769  15.987 -0.4362  0.3642  0.5123
  142DOPC   H3X16851   4.764   2.863  16.022 -0.6691  0.6767 -0.5867
  142DOPC   H3Y16852   4.745   2.680  15.995 -0.6636  0.3821 -0.9381
  142DOPC   C3416853   4.839   2.776  15.835  0.7469 -0.5746  0.2228
  142DOPC   H4X16854   4.835   2.670  15.802  1.0240 -0.7456  0.7203
  142DOPC   H4Y16855   4.944   2.790  15.801  0.6728 -1.5234 -0.4354
  142DOPC   C3516856   4.723   2.843  15.766 -0.0536  0.2888 -0.3543
  142DOPC   H5X16857   4.717   2.951  15.791  2.5745  0.4012  0.0978
  142DOPC   H5Y16858   4.630   2.792  15.798 -0.2710  0.2698 -1.0067
  142DOPC   C3616859   4.740   2.828  15.612  0.4183  0.7256  0.1525
  142DOPC   H6X16860   4.838   2.867  15.577  0.5348  0.9463  0.7187
  142DOPC   H6Y16861   4.745   2.719  15.594 -0.2001  0.7593 -0.2594
  142DOPC   C3716862   4.617   2.887  15.536 -0.1280  0.1967  0.0744
  142DOPC   H7X16863   4.629   2.847  15.433 -0.0278  2.4207 -0.8288
  142DOPC   H7Y16864   4.524   2.850  15.584 -2.3439 -0.1411 -3.9903
  142DOPC   C3816865   4.625   3.036  15.529 -0.3608  0.7983 -0.7360
  142DOPC   H8X16866   4.730   3.053  15.497  0.9018 -1.8974  1.5369
  142DOPC   H8Y16867   4.612   3.083  15.629  3.3765  1.9197 -0.6349
  142DOPC   C3916868   4.527   3.104  15.440  0.6930 -0.0963  0.5886
  142DOPC   H9X16869   4.428   3.119  15.486  0.7232  2.5395 -0.0545
  142DOPC  C31016870   4.540   3.133  15.305  0.0610 -0.1305 -0.0672
  142DOPC  H10X16871   4.457   3.182  15.251  0.8046  1.0374 -0.1931
  142DOPC  C31116872   4.658   3.103  15.218 -0.1925  0.1580  0.1345
  142DOPC  H11X16873   4.683   2.996  15.204  1.6133  0.5837 -0.1094
  142DOPC  H11Y16874   4.747   3.160  15.253 -1.0044  2.3298 -1.1474
  142DOPC  C31216875   4.627   3.146  15.067 -0.1877  0.4485 -0.4269
  142DOPC  H12X16876   4.725   3.161  15.016 -0.3075  1.3982 -0.3857
  142DOPC  H12Y16877   4.560   3.233  15.057  0.6514  0.8906 -3.0838
  142DOPC  C31316878   4.579   3.020  14.994  0.7900  0.1866  0.1253
  142DOPC  H13X16879   4.647   2.932  14.999 -2.3067 -2.8284 -3.7983
  142DOPC  H13Y16880   4.489   2.989  15.050  0.2974  1.2022 -0.0785
  142DOPC  C31416881   4.536   3.042  14.854 -0.4339 -0.6433  0.3354
  142DOPC  H14X16882   4.442   3.100  14.845 -0.9047 -0.4979  4.2514
  142DOPC  H14Y16883   4.615   3.108  14.813  0.8512 -1.4283  1.4630
  142DOPC  C31516884   4.522   2.913  14.774  0.1321 -0.3364  0.3877
  142DOPC  H15X16885   4.461   2.841  14.833  1.5520 -2.4807 -0.6525
  142DOPC  H15Y16886   4.624   2.872  14.758  0.5150  0.9542 -0.6292
  142DOPC  C31616887   4.456   2.943  14.636 -0.5928  0.1886 -0.5122
  142DOPC  H16X16888   4.348   2.964  14.655  0.0903  2.9610  0.9128
  142DOPC  H16Y16889   4.496   3.036  14.589  2.3965 -1.9709 -2.5808
  142DOPC  C31716890   4.463   2.820  14.543 -0.2326 -0.1857  0.1210
  142DOPC  H17X16891   4.571   2.800  14.531 -0.0132  2.0104 -2.5105
  142DOPC  H17Y16892   4.414   2.735  14.596  1.0993  0.4337  2.4969
  142DOPC  C31816893   4.412   2.837  14.400 -0.1837 -0.0905 -0.1514
  142DOPC  H18X16894   4.306   2.866  14.384 -0.2497 -0.2034  0.0748
  142DOPC  H18Y16895   4.476   2.904  14.339  0.1397 -2.4789 -2.6029
  142DOPC  H18Z16896   4.418   2.738  14.350 -2.1725  0.4161 -1.5221
  143DOPC     N16897   2.218   4.579  16.478 -0.1376 -0.2882  0.0422
  143DOPC   C1216898   2.282   4.602  16.608  0.3334  0.8335 -0.0655
  143DOPC  H12A16899   2.222   4.667  16.669  0.9774  0.8018  0.6195
  143DOPC  H12B16900   2.370   4.664  16.597  0.9367  0.1964  0.9217
  143DOPC   C1316901   2.074   4.548  16.496  0.8517 -0.0208 -0.4323
  143DOPC  H13A16902   2.059   4.490  16.586  1.1030  0.6404  0.0414
  143DOPC  H13B16903   2.019   4.639  16.510  1.0301 -0.0832  0.7883
  143DOPC  H13C16904   2.019   4.502  16.415 -2.8139  2.3481  0.4805
  143DOPC   C1416905   2.282   4.461  16.411  0.2624 -0.8832 -0.3682
  143DOPC  H14A16906   2.258   4.372  16.467 -0.7119  1.1373  2.6770
  143DOPC  H14B16907   2.239   4.438  16.315  2.3541 -0.4926 -1.4812
  143DOPC  H14C16908   2.385   4.485  16.386  0.3507 -0.0590  0.6812
  143DOPC   C1516909   2.227   4.693  16.383  0.0701  0.9477 -0.5161
  143DOPC  H15A16910   2.197   4.657  16.286 -0.1865 -4.3715  1.2468
  143DOPC  H15B16911   2.326   4.737  16.387 -0.0014  1.0129  1.4640
  143DOPC  H15C16912   2.158   4.770  16.414 -0.3672  0.1200  0.6377
  143DOPC   C1116913   2.302   4.469  16.690 -0.1697 -0.0008 -0.2058
  143DOPC  H11A16914   2.375   4.394  16.653 -0.5630 -0.3150 -0.3648
  143DOPC  H11B16915   2.344   4.498  16.788 -0.3954 -3.9188  1.2291
  143DOPC     P16916   2.170   4.249  16.728  0.1830 -0.1190 -0.0918
  143DOPC   O1316917   2.027   4.218  16.719 -0.4032 -0.0117 -0.0817
  143DOPC   O1416918   2.245   4.193  16.843  0.5235 -0.0735 -0.0469
  143DOPC   O1216919   2.185   4.401  16.722 -0.1041  0.1186  0.0036
  143DOPC   O1116920   2.244   4.200  16.593  0.0608  0.2107 -0.0625
  143DOPC    C116921   2.262   4.058  16.559 -0.1082 -0.2035 -0.3928
  143DOPC    HA16922   2.229   4.002  16.649 -1.7826  0.6281 -0.4696
  143DOPC    HB16923   2.370   4.031  16.562  0.0401  0.4345  0.6442
  143DOPC    C216924   2.206   4.015  16.421  0.6023 -0.4728  0.6200
  143DOPC    HS16925   2.242   3.912  16.403  0.4265 -0.5756  0.8568
  143DOPC   O2116926   2.255   4.095  16.309  0.4017  0.1007  0.2431
  143DOPC   C2116927   2.384   4.088  16.280  0.5224  0.2467  0.1771
  143DOPC   O2216928   2.471   4.032  16.338 -1.1572 -0.4262  0.5716
  143DOPC   C2216929   2.404   4.158  16.145  1.0707 -0.2924 -0.1632
  143DOPC   H2R16930   2.475   4.242  16.163 -3.2616  3.6871  0.1855
  143DOPC   H2S16931   2.310   4.214  16.124 -1.1220 -3.1871  1.2923
  143DOPC    C316932   2.056   4.021  16.421 -0.2746  0.2593  0.6331
  143DOPC    HX16933   2.027   4.128  16.420 -2.8149 -0.3599  0.5550
  143DOPC    HY16934   2.011   3.989  16.517  0.0587 -1.8013  0.1606
  143DOPC   O3116935   2.001   3.952  16.305 -0.2181  0.0833  0.1200
  143DOPC   C3116936   1.907   4.027  16.239 -0.0183 -0.0414 -0.2798
  143DOPC   O3216937   1.875   4.140  16.255 -0.1171 -0.1725 -0.3445
  143DOPC   C3216938   1.854   3.926  16.141 -0.2766 -0.4237 -0.2841
  143DOPC   H2X16939   1.818   3.835  16.193 -0.5988 -0.0719  0.1146
  143DOPC   H2Y16940   1.771   3.978  16.088 -1.0976 -1.3467  0.0607
  143DOPC   C2316941   2.436   4.074  16.023  0.2388  0.3235  0.1791
  143DOPC   H3R16942   2.362   3.992  16.006  1.0805 -0.1117 -1.5872
  143DOPC   H3S16943   2.530   4.019  16.044 -0.4328 -0.6731  0.6802
  143DOPC   C2416944   2.438   4.148  15.892 -0.1413  0.2826 -0.1779
  143DOPC   H4R16945   2.513   4.231  15.900 -0.5394  0.9090 -2.3681
  143DOPC   H4S16946   2.337   4.187  15.869 -0.7314  0.5728  2.4979
  143DOPC   C2516947   2.481   4.058  15.771 -0.0536  0.1833  0.8340
  143DOPC   H5R16948   2.417   3.967  15.766 -0.2068  0.3739 -1.9628
  143DOPC   H5S16949   2.577   4.011  15.802 -1.6501 -3.5494  0.6233
  143DOPC   C2616950   2.501   4.134  15.640  0.5271 -0.0520 -0.5982
  143DOPC   H6R16951   2.574   4.216  15.657  0.0106  0.5742 -1.3194
  143DOPC   H6S16952   2.407   4.180  15.603 -0.0212 -0.4053  0.3224
  143DOPC   C2716953   2.543   4.041  15.529 -0.1842  0.0379  0.3548
  143DOPC   H7R16954   2.464   3.964  15.509  0.0758 -0.0757 -0.2622
  143DOPC   H7S16955   2.629   3.980  15.564  0.7272  0.2315 -1.4341
  143DOPC   C2816956   2.569   4.105  15.393 -0.2578  0.4255  1.0484
  143DOPC   H8R16957   2.623   4.201  15.409  1.1685 -0.3533  1.0710
  143DOPC   H8S16958   2.465   4.125  15.357 -0.4042 -1.4392  0.3511
  143DOPC   C2916959   2.648   4.007  15.312 -0.0727 -0.5381 -0.0866
  143DOPC   H9R16960   2.755   4.025  15.331  0.7396 -2.1469 -2.6680
  143DOPC  C21016961   2.605   3.918  15.223 -0.1411 -0.2523 -0.1804
  143DOPC  H10R16962   2.672   3.868  15.151 -1.1278 -1.8960 -0.0324
  143DOPC  C21116963   2.470   3.892  15.175  0.1864  0.2350 -0.0247
  143DOPC  H11R16964   2.405   3.982  15.179  0.6020  0.5271  0.2740
  143DOPC  H11S16965   2.425   3.824  15.251  1.0312  1.1084  1.3033
  143DOPC  C21216966   2.478   3.814  15.040  0.5185  0.3565  0.1147
  143DOPC  H12R16967   2.372   3.788  15.020  0.5652 -1.1431  1.5507
  143DOPC  H12S16968   2.532   3.724  15.078 -1.3973 -0.8462  0.1122
  143DOPC  C21316969   2.535   3.882  14.914 -0.1531  0.3171 -1.0507
  143DOPC  H13R16970   2.642   3.913  14.921  0.2308 -0.9536 -0.8718
  143DOPC  H13S16971   2.478   3.977  14.920  0.1199  0.4190  0.3124
  143DOPC  C21416972   2.508   3.820  14.784 -0.4232  0.2311 -0.2336
  143DOPC  H14R16973   2.409   3.770  14.785 -0.2657 -0.1036 -0.7227
  143DOPC  H14S16974   2.582   3.739  14.764 -0.7736  0.3593 -2.2591
  143DOPC  C21516975   2.516   3.918  14.674 -0.1236  0.0273  0.1998
  143DOPC  H15R16976   2.605   3.981  14.693 -0.3318  1.2163 -2.4034
  143DOPC  H15S16977   2.435   3.992  14.691  1.6360  2.1200 -0.0772
  143DOPC  C21616978   2.513   3.850  14.533 -0.5851 -0.4300 -0.1849
  143DOPC  H16R16979   2.441   3.766  14.537 -0.6094 -0.3975  0.0647
  143DOPC  H16S16980   2.615   3.814  14.506 -0.9983 -1.1293 -0.8359
  143DOPC  C21716981   2.479   3.945  14.417 -0.0581  0.3038 -0.2245
  143DOPC  H17R16982   2.464   3.869  14.338 -0.3152 -1.4718  1.4523
  143DOPC  H17S16983   2.566   4.014  14.413 -0.2245  0.7950  2.3667
  143DOPC  C21816984   2.349   4.026  14.430 -0.2069  0.5859 -0.4930
  143DOPC  H18R16985   2.308   4.068  14.336  0.0460  0.1163 -0.8129
  143DOPC  H18S16986   2.368   4.107  14.504 -1.8543 -0.4623  1.1623
  143DOPC  H18T16987   2.270   3.965  14.479 -0.5163  0.6745 -0.8784
  143DOPC   C3316988   1.961   3.895  16.034 -0.8032  0.2478 -0.3974
  143DOPC   H3X16989   1.908   3.813  15.982 -1.1540  0.8561 -1.0079
  143DOPC   H3Y16990   2.057   3.862  16.081 -1.2912  0.2987  0.6749
  143DOPC   C3416991   1.994   4.011  15.946  0.7031  0.2002  0.6406
  143DOPC   H4X16992   2.058   4.086  15.996  1.9296 -1.2669  1.3304
  143DOPC   H4Y16993   1.900   4.057  15.908  1.8614  2.4955  0.3856
  143DOPC   C3516994   2.071   3.967  15.815 -0.4369 -0.4894 -0.5039
  143DOPC   H5X16995   2.029   3.875  15.768 -0.6124 -0.0025 -1.3175
  143DOPC   H5Y16996   2.173   3.931  15.843  0.1303  1.7069  0.4473
  143DOPC   C3616997   2.070   4.079  15.715  0.1474  0.2089 -0.3777
  143DOPC   H6X16998   1.973   4.131  15.699  0.2615 -0.1183 -2.4404
  143DOPC   H6Y16999   2.139   4.158  15.750  1.8963 -1.5690  0.4216
  143DOPC   C3717000   2.113   4.024  15.570  0.3839 -0.0461  0.3229
  143DOPC   H7X17001   2.189   3.944  15.578  2.8523  2.2576  1.5209
  143DOPC   H7Y17002   2.021   3.972  15.537 -1.2029  2.4879  0.4143
  143DOPC   C3817003   2.153   4.137  15.477 -0.5875 -0.2295 -0.2710
  143DOPC   H8X17004   2.216   4.103  15.392  1.4649 -0.2501  1.2080
  143DOPC   H8Y17005   2.208   4.216  15.532  0.3409 -0.7080 -0.4941
  143DOPC   C3917006   2.025   4.200  15.436  0.0854 -0.9168  0.1836
  143DOPC   H9X17007   1.983   4.275  15.505  3.2656  2.1082 -0.8441
  143DOPC  C31017008   1.961   4.172  15.324  0.3931  0.7088  0.5739
  143DOPC  H10X17009   1.868   4.227  15.304 -0.2677 -1.1337 -1.9081
  143DOPC  C31117010   2.007   4.075  15.217 -0.1154 -0.5803 -0.9535
  143DOPC  H11X17011   1.922   4.013  15.180 -0.8413  0.5380 -1.2153
  143DOPC  H11Y17012   2.081   4.004  15.260  3.5992  1.7270 -2.9689
  143DOPC  C31217013   2.051   4.149  15.092  0.0064  0.4300  0.3438
  143DOPC  H12X17014   2.117   4.233  15.122 -0.6365  1.1175 -0.1098
  143DOPC  H12Y17015   1.955   4.190  15.053  0.6926  1.6002 -0.1679
  143DOPC  C31317016   2.121   4.054  14.992  0.0184 -0.4309  0.1683
  143DOPC  H13X17017   2.171   4.121  14.918  0.5051 -1.0170 -0.0483
  143DOPC  H13Y17018   2.191   3.990  15.049  0.0973  0.0349  0.6030
  143DOPC  C31417019   2.014   3.965  14.909  0.0136 -0.5493 -0.0554
  143DOPC  H14X17020   1.941   3.909  14.973 -1.5206 -0.0994 -1.3442
  143DOPC  H14Y17021   1.952   4.043  14.859  1.5825  1.4245  0.9395
  143DOPC  C31517022   2.085   3.869  14.815 -0.7215 -0.2985  0.0513
  143DOPC  H15X17023   2.150   3.796  14.868 -1.2911 -0.2773  0.7928
  143DOPC  H15Y17024   2.159   3.937  14.768 -2.8971  1.9887 -0.2548
  143DOPC  C31617025   2.009   3.792  14.712 -0.2335 -0.4352  0.6841
  143DOPC  H16X17026   1.920   3.741  14.753 -0.9122  1.7211  2.0837
  143DOPC  H16Y17027   1.981   3.866  14.633  0.1893 -0.5221  0.4467
  143DOPC  C31717028   2.100   3.691  14.642  0.1489 -0.0387 -0.4059
  143DOPC  H17X17029   2.178   3.747  14.586  0.6188 -1.2661 -0.9938
  143DOPC  H17Y17030   2.155   3.641  14.723  3.2928  0.7108 -1.9379
  143DOPC  C31817031   2.031   3.590  14.548  0.8810 -0.0285 -0.2046
  143DOPC  H18X17032   2.093   3.561  14.461 -0.3480 -2.0292 -0.4960
  143DOPC  H18Y17033   2.014   3.495  14.602  0.7654  0.2725  0.2915
  143DOPC  H18Z17034   1.934   3.632  14.512  0.1200 -1.0432  0.6094
  144DOPC     N17035   2.378   3.815  17.020 -0.2346  0.2124  0.2706
  144DOPC   C1217036   2.310   3.690  17.070  0.0274  0.0333 -0.8442
  144DOPC  H12A17037   2.261   3.698  17.166  2.1440  0.6292  0.2273
  144DOPC  H12B17038   2.386   3.620  17.100  0.0329  1.3338  2.5297
  144DOPC   C1317039   2.277   3.908  16.962  0.1185 -0.4581 -0.8199
  144DOPC  H13A17040   2.196   3.927  17.032 -0.3621  1.2631 -1.7863
  144DOPC  H13B17041   2.323   4.001  16.932  0.5740 -0.6561 -0.7350
  144DOPC  H13C17042   2.227   3.869  16.875 -0.1205 -0.1963 -0.8028
  144DOPC   C1417043   2.483   3.787  16.915  0.9560  1.0439  0.1993
  144DOPC  H14A17044   2.433   3.729  16.838  2.3019 -0.4779  0.4092
  144DOPC  H14B17045   2.523   3.878  16.874 -0.1240  1.0495 -0.8880
  144DOPC  H14C17046   2.564   3.727  16.954 -0.1070 -0.1133  0.6985
  144DOPC   C1517047   2.458   3.872  17.133  0.2371 -0.4694  0.5287
  144DOPC  H15A17048   2.522   3.943  17.084 -0.7233 -0.1658 -0.3277
  144DOPC  H15B17049   2.517   3.797  17.183  1.3544 -1.1833 -1.7589
  144DOPC  H15C17050   2.395   3.920  17.207  0.0786  1.8326 -1.0140
  144DOPC   C1117051   2.212   3.616  16.973 -0.9641  1.0440 -0.0575
  144DOPC  H11A17052   2.154   3.531  17.015 -0.5058  0.3689 -0.7725
  144DOPC  H11B17053   2.127   3.686  16.961 -1.9146 -0.4268 -2.8630
  144DOPC     P17054   2.360   3.458  16.833 -0.2084 -0.2719 -0.1125
  144DOPC   O1317055   2.263   3.351  16.858 -0.3799  0.5571 -0.4997
  144DOPC   O1417056   2.476   3.463  16.925 -0.6160 -0.0661  0.1023
  144DOPC   O1217057   2.278   3.589  16.850 -0.1855  0.1411 -0.2629
  144DOPC   O1117058   2.409   3.452  16.680 -0.2628 -0.4231  0.0052
  144DOPC    C117059   2.326   3.504  16.572  0.2072 -0.4304 -0.2457
  144DOPC    HA17060   2.282   3.596  16.616  0.3432 -0.9834  1.0920
  144DOPC    HB17061   2.244   3.438  16.539 -0.8077  0.1960  0.9355
  144DOPC    C217062   2.407   3.534  16.440 -0.2632 -0.0905  0.0595
  144DOPC    HS17063   2.333   3.535  16.357  0.4134 -0.1614 -0.5512
  144DOPC   O2117064   2.497   3.433  16.407  0.4398 -0.0959  0.4547
  144DOPC   C2117065   2.456   3.318  16.366  0.0150 -0.2744  0.7577
  144DOPC   O2217066   2.345   3.275  16.355 -0.2806 -0.7182 -0.4605
  144DOPC   C2217067   2.573   3.245  16.325 -0.7763 -0.3642 -0.1379
  144DOPC   H2R17068   2.560   3.137  16.305  0.9880 -1.3286  3.0646
  144DOPC   H2S17069   2.639   3.248  16.415 -0.6195 -1.4181 -0.2069
  144DOPC    C317070   2.480   3.671  16.442 -0.3220  0.5007  0.0685
  144DOPC    HX17071   2.540   3.661  16.535  1.5014 -1.3313 -1.2159
  144DOPC    HY17072   2.405   3.751  16.459 -0.8832 -0.3359  1.7531
  144DOPC   O3117073   2.571   3.688  16.331 -0.3378 -0.7140  0.0272
  144DOPC   C3117074   2.521   3.730  16.220 -0.0548  0.3667 -0.2093
  144DOPC   O3217075   2.405   3.746  16.187  0.8433 -0.2031 -0.6804
  144DOPC   C3217076   2.633   3.760  16.117 -0.1959  0.2699 -0.7825
  144DOPC   H2X17077   2.663   3.865  16.136  0.4195  0.1964 -1.3260
  144DOPC   H2Y17078   2.715   3.692  16.147 -0.4179  0.2741 -0.1415
  144DOPC   C2317079   2.661   3.301  16.202 -0.5698  0.1863  0.1489
  144DOPC   H3R17080   2.765   3.266  16.217 -0.2465  1.2651  0.5924
  144DOPC   H3S17081   2.668   3.412  16.201 -3.8706  0.4655  0.0759
  144DOPC   C2417082   2.598   3.262  16.071 -0.2722  0.2197 -0.3110
  144DOPC   H4R17083   2.503   3.316  16.052  0.0810  0.6323 -0.9415
  144DOPC   H4S17084   2.576   3.153  16.072  0.9089 -0.0614 -1.5810
  144DOPC   C2517085   2.690   3.300  15.961 -0.2735  0.5279 -0.3080
  144DOPC   H5R17086   2.788   3.249  15.978  0.2910  1.6503 -0.1174
  144DOPC   H5S17087   2.720   3.407  15.957 -0.0124  0.7046  3.2154
  144DOPC   C2617088   2.644   3.261  15.821 -0.3580 -0.3954  0.2316
  144DOPC   H6R17089   2.562   3.332  15.795 -2.7856 -3.3245 -0.6548
  144DOPC   H6S17090   2.604   3.158  15.812  0.3054 -0.6244 -0.1949
  144DOPC   C2717091   2.759   3.276  15.720  0.0626  0.2097 -0.0726
  144DOPC   H7R17092   2.862   3.243  15.745  1.3042  2.4121 -1.8500
  144DOPC   H7S17093   2.782   3.384  15.709  4.2299 -0.4998 -0.1392
  144DOPC   C2817094   2.717   3.219  15.579 -0.6590 -0.0454 -0.0352
  144DOPC   H8R17095   2.636   3.289  15.550  0.3840  0.9183 -0.7078
  144DOPC   H8S17096   2.699   3.110  15.585 -0.0752 -0.3092 -2.2417
  144DOPC   C2917097   2.826   3.226  15.477  0.8812 -0.4536 -0.1366
  144DOPC   H9R17098   2.880   3.321  15.490 -0.7222  0.2650  1.8394
  144DOPC  C21017099   2.848   3.151  15.367 -0.7714  0.4828 -0.7717
  144DOPC  H10R17100   2.939   3.165  15.306 -0.7164  0.7073 -0.6379
  144DOPC  C21117101   2.749   3.041  15.327 -0.6585  0.3276 -0.3297
  144DOPC  H11R17102   2.671   3.017  15.402 -1.0880  2.1815 -0.1391
  144DOPC  H11S17103   2.804   2.944  15.319  0.2651  0.6930  1.1117
  144DOPC  C21217104   2.673   3.044  15.189 -0.5716 -0.4613  0.2294
  144DOPC  H12R17105   2.627   3.144  15.180  0.0480 -0.1975 -0.0536
  144DOPC  H12S17106   2.591   2.969  15.185  0.5183 -1.7993 -4.5443
  144DOPC  C21317107   2.761   3.006  15.057 -0.6589  0.5565  0.5542
  144DOPC  H13R17108   2.799   2.902  15.058 -0.8309  0.4965  0.9392
  144DOPC  H13S17109   2.849   3.074  15.053 -1.3020  1.3397 -1.2290
  144DOPC  C21417110   2.688   3.007  14.916 -1.0725  0.5224  0.0724
  144DOPC  H14R17111   2.642   3.106  14.895 -0.3750  0.8515  0.0665
  144DOPC  H14S17112   2.600   2.940  14.907 -0.3839 -0.4661  0.5333
  144DOPC  C21517113   2.793   2.997  14.806  0.2340  0.2735 -0.2628
  144DOPC  H15R17114   2.843   2.899  14.820  0.0023 -0.2272 -2.5706
  144DOPC  H15S17115   2.872   3.074  14.818  0.6463 -0.0937 -0.5817
  144DOPC  C21617116   2.739   3.002  14.664 -0.2830 -0.6313  0.1154
  144DOPC  H16R17117   2.700   3.100  14.632  0.9883 -0.4723 -1.0321
  144DOPC  H16S17118   2.653   2.932  14.661 -0.3566 -0.5662  0.6433
  144DOPC  C21717119   2.860   2.952  14.576  0.3243 -0.8453 -0.1664
  144DOPC  H17R17120   2.897   2.851  14.605 -1.2605 -1.5602 -0.5002
  144DOPC  H17S17121   2.936   3.031  14.591 -1.0157 -0.0016  3.1926
  144DOPC  C21817122   2.828   2.950  14.428  0.6739  0.6087  0.2480
  144DOPC  H18R17123   2.845   3.051  14.384 -0.6321  0.4890 -0.5952
  144DOPC  H18S17124   2.723   2.917  14.417  1.3482 -1.4501 -0.4793
  144DOPC  H18T17125   2.892   2.876  14.376 -0.5847 -0.7103  0.5419
  144DOPC   C3317126   2.587   3.734  15.972  0.5140  0.1079  0.5120
  144DOPC   H3X17127   2.508   3.807  15.946  0.7599 -0.3990 -1.9250
  144DOPC   H3Y17128   2.566   3.627  15.950  0.1211 -0.1229  1.9023
  144DOPC   C3417129   2.699   3.763  15.869  0.0082  0.5798 -0.6574
  144DOPC   H4X17130   2.782   3.698  15.905 -1.1197 -1.7576 -2.0168
  144DOPC   H4Y17131   2.718   3.872  15.870 -1.0433  0.7969 -2.0479
  144DOPC   C3517132   2.674   3.722  15.725  0.4209  0.3209 -0.1312
  144DOPC   H5X17133   2.589   3.779  15.680  0.8457  0.3954 -0.8561
  144DOPC   H5Y17134   2.652   3.615  15.704  0.1505  0.3441  0.0251
  144DOPC   C3617135   2.802   3.756  15.632 -0.2357 -0.4201  0.3036
  144DOPC   H6X17136   2.834   3.861  15.649  1.5011 -0.4209 -2.3853
  144DOPC   H6Y17137   2.883   3.682  15.652 -0.9016 -0.7915  1.7163
  144DOPC   C3717138   2.769   3.739  15.480 -0.1188  0.5651  0.7070
  144DOPC   H7X17139   2.667   3.778  15.458 -2.1202 -3.2670  2.0756
  144DOPC   H7Y17140   2.851   3.794  15.431 -0.6421  0.5026 -0.2596
  144DOPC   C3817141   2.776   3.586  15.443  0.0274  0.5603  0.5997
  144DOPC   H8X17142   2.707   3.524  15.503  0.9954 -0.4411  0.6948
  144DOPC   H8Y17143   2.880   3.555  15.465  0.4877  2.1792  0.8978
  144DOPC   C3917144   2.738   3.570  15.295  0.2607 -0.2641 -0.3525
  144DOPC   H9X17145   2.629   3.568  15.279 -0.0371  0.0698  1.3882
  144DOPC  C31017146   2.837   3.580  15.196  0.5286  0.2147 -0.6795
  144DOPC  H10X17147   2.795   3.570  15.095 -1.2257  0.0344  0.0345
  144DOPC  C31117148   2.990   3.589  15.206  0.5650 -0.0322 -0.4067
  144DOPC  H11X17149   3.024   3.506  15.141 -2.2440 -2.0003  0.4154
  144DOPC  H11Y17150   3.026   3.577  15.310  2.6003 -1.0382 -1.1733
  144DOPC  C31217151   3.044   3.722  15.141 -0.2909 -0.0164 -0.4100
  144DOPC  H12X17152   3.153   3.734  15.159 -0.1104 -0.2304 -1.3029
  144DOPC  H12Y17153   2.986   3.804  15.188 -1.8394 -1.5708  0.5172
  144DOPC  C31317154   3.023   3.725  14.983 -0.8300 -0.4117  0.3283
  144DOPC  H13X17155   3.044   3.619  14.955 -0.8337 -0.3285  0.0074
  144DOPC  H13Y17156   2.919   3.751  14.954 -0.1537  0.1892 -1.7296
  144DOPC  C31417157   3.119   3.823  14.909  0.4936 -0.2785  0.4200
  144DOPC  H14X17158   3.119   3.927  14.947  0.9741 -0.5668  1.2231
  144DOPC  H14Y17159   3.224   3.790  14.920  0.8854  0.1349 -1.6827
  144DOPC  C31517160   3.093   3.837  14.760 -0.2296 -0.5055  0.1327
  144DOPC  H15X17161   3.078   3.736  14.715  0.0685  0.2669 -1.7773
  144DOPC  H15Y17162   3.187   3.878  14.718 -0.1262 -1.4679 -0.6185
  144DOPC  C31617163   2.983   3.935  14.714 -0.2159  0.4239 -0.2444
  144DOPC  H16X17164   2.889   3.883  14.744 -0.3178  1.8876  2.2818
  144DOPC  H16Y17165   2.987   4.027  14.777  0.4301 -0.0569  0.4271
  144DOPC  C31717166   2.996   3.951  14.560  0.1068  0.4687 -0.2986
  144DOPC  H17X17167   3.097   3.996  14.546  0.9544 -0.8611  1.2859
  144DOPC  H17Y17168   2.986   3.860  14.498 -0.6453  0.5835 -0.3533
  144DOPC  C31817169   2.900   4.042  14.498  0.2638 -0.6524  0.1125
  144DOPC  H18X17170   2.892   4.126  14.571  4.4784 -0.9130  1.1025
  144DOPC  H18Y17171   2.940   4.079  14.401 -0.6955 -2.5222 -1.0476
  144DOPC  H18Z17172   2.793   4.015  14.483 -0.1884  2.2914 -3.7954
  145DOPC     N17173   3.011   5.613  17.068  0.0578 -0.3622  0.4504
  145DOPC   C1217174   3.140   5.629  16.983 -0.7386  0.0629 -0.3632
  145DOPC  H12A17175   3.209   5.554  17.017 -0.8242 -0.0251 -0.3818
  145DOPC  H12B17176   3.187   5.725  16.995 -3.3210  1.5829 -1.5112
  145DOPC   C1317177   2.912   5.712  17.019 -0.0309  0.2666  0.3140
  145DOPC  H13A17178   2.810   5.696  17.050 -0.6207  1.2470 -1.0271
  145DOPC  H13B17179   2.939   5.811  17.053 -1.5136  1.2501 -1.1593
  145DOPC  H13C17180   2.907   5.713  16.911 -1.1085  1.7026  0.3398
  145DOPC   C1417181   3.028   5.630  17.213 -0.1828 -0.7403  0.0810
  145DOPC  H14A17182   3.084   5.549  17.256  0.0389 -0.8631 -0.4415
  145DOPC  H14B17183   3.095   5.714  17.225 -1.4802  0.3227  0.1601
  145DOPC  H14C17184   2.934   5.653  17.263 -0.9863 -0.6439 -1.4347
  145DOPC   C1517185   2.949   5.476  17.044  0.3154  0.0591  0.0296
  145DOPC  H15A17186   2.905   5.462  16.946 -1.4390  3.2085  0.2092
  145DOPC  H15B17187   2.864   5.464  17.110  1.1919 -1.2676  0.9396
  145DOPC  H15C17188   3.007   5.394  17.081 -2.2593 -1.9147  0.0010
  145DOPC   C1117189   3.153   5.601  16.836  0.1074  0.3623 -0.3423
  145DOPC  H11A17190   3.079   5.529  16.793  0.2504 -0.5926  0.9371
  145DOPC  H11B17191   3.128   5.697  16.788 -2.6864 -0.5829 -0.9653
  145DOPC     P17192   3.335   5.418  16.775  0.0037  0.0685 -0.0249
  145DOPC   O1317193   3.264   5.315  16.852 -0.1421  0.2386 -0.2228
  145DOPC   O1417194   3.479   5.402  16.769 -0.0119  0.4427 -0.0613
  145DOPC   O1217195   3.294   5.565  16.814  0.1994 -0.5714 -0.1452
  145DOPC   O1117196   3.287   5.407  16.632  0.0155 -0.3160 -0.0753
  145DOPC    C117197   3.344   5.506  16.542  0.5708 -0.5699  0.3800
  145DOPC    HA17198   3.450   5.532  16.561  0.5189  0.0597 -0.1850
  145DOPC    HB17199   3.293   5.604  16.548  2.4513  0.4488  0.4752
  145DOPC    C217200   3.338   5.456  16.394  0.4583  0.6714  0.1022
  145DOPC    HS17201   3.427   5.496  16.341  0.5038  3.2507  1.8947
  145DOPC   O2117202   3.219   5.517  16.335 -0.3384  0.2294  0.5416
  145DOPC   C2117203   3.227   5.643  16.315 -0.4077 -1.1340 -0.3597
  145DOPC   O2217204   3.322   5.718  16.324 -0.2112  0.3646  0.4507
  145DOPC   C2217205   3.085   5.707  16.308  0.3167  0.3901 -0.0716
  145DOPC   H2R17206   3.085   5.793  16.379  3.6935 -1.2081  2.0834
  145DOPC   H2S17207   3.019   5.621  16.333  1.4481 -0.9016 -1.4170
  145DOPC    C317208   3.330   5.298  16.381 -0.3424  0.2913 -0.0667
  145DOPC    HX17209   3.235   5.258  16.424  0.3987  1.0863  2.4903
  145DOPC    HY17210   3.410   5.255  16.445 -0.1438 -0.0661 -0.5537
  145DOPC   O3117211   3.333   5.254  16.242 -0.1225 -0.1721 -0.2634
  145DOPC   C3117212   3.450   5.266  16.186  0.1500  0.2855 -0.2821
  145DOPC   O3217213   3.551   5.315  16.239  0.0223 -0.2111  0.5214
  145DOPC   C3217214   3.440   5.234  16.038  0.4448 -0.4725  0.4852
  145DOPC   H2X17215   3.537   5.199  15.996  0.1712 -0.2443 -0.3518
  145DOPC   H2Y17216   3.374   5.145  16.043  1.1364 -0.9546  1.6239
  145DOPC   C2317217   3.049   5.768  16.166 -0.8419  0.4085  0.7507
  145DOPC   H3R17218   3.131   5.831  16.126 -0.4985 -1.9846 -2.7976
  145DOPC   H3S17219   2.954   5.824  16.183 -2.1915 -1.3718 -0.4314
  145DOPC   C2417220   3.022   5.655  16.069 -0.4085  0.4262  0.5296
  145DOPC   H4R17221   2.940   5.595  16.114  0.8088 -0.8744  1.0668
  145DOPC   H4S17222   3.111   5.589  16.063 -1.6846 -1.3189 -0.0500
  145DOPC   C2517223   2.976   5.701  15.930 -0.0150  0.0042  0.2062
  145DOPC   H5R17224   3.045   5.775  15.884 -1.0560  0.0098 -1.4123
  145DOPC   H5S17225   2.877   5.750  15.935 -0.8543 -1.2276 -2.4669
  145DOPC   C2617226   2.956   5.590  15.826 -0.6181  0.1148  0.4728
  145DOPC   H6R17227   2.897   5.502  15.859 -0.6096 -0.7300 -1.6073
  145DOPC   H6S17228   3.061   5.562  15.807 -0.2988  0.8174  1.1386
  145DOPC   C2717229   2.891   5.641  15.698 -0.4712 -0.4491 -0.6824
  145DOPC   H7R17230   2.954   5.720  15.653 -2.0578  0.7589 -0.8635
  145DOPC   H7S17231   2.803   5.705  15.719 -0.8701 -1.0561 -0.4833
  145DOPC   C2817232   2.845   5.534  15.598  0.0936  0.2319 -0.2828
  145DOPC   H8R17233   2.759   5.480  15.644 -0.0409 -1.3256 -2.2465
  145DOPC   H8S17234   2.931   5.468  15.576 -0.3313 -0.7053  0.7575
  145DOPC   C2917235   2.786   5.591  15.475 -0.0412  0.0200  0.1946
  145DOPC   H9R17236   2.704   5.664  15.491 -2.6618 -2.2089 -2.0717
  145DOPC  C21017237   2.841   5.593  15.354 -0.2632  0.0803  0.8265
  145DOPC  H10R17238   2.792   5.651  15.275 -2.2179  1.3033  2.8151
  145DOPC  C21117239   2.969   5.531  15.294  0.0583  1.0957 -0.2737
  145DOPC  H11R17240   2.948   5.465  15.207  0.7254 -0.8361  0.9618
  145DOPC  H11S17241   3.014   5.469  15.375 -3.2675 -0.0314  0.9003
  145DOPC  C21217242   3.076   5.630  15.245  0.8635 -0.5370 -0.3374
  145DOPC  H12R17243   3.165   5.581  15.198  1.6866  0.9156 -0.3345
  145DOPC  H12S17244   3.107   5.694  15.329 -0.5351  0.2176 -0.3862
  145DOPC  C21317245   3.016   5.718  15.135 -0.4123  0.0611  0.4734
  145DOPC  H13R17246   3.087   5.800  15.112  0.3423 -0.4544  0.9218
  145DOPC  H13S17247   2.928   5.780  15.163  1.2076  3.3855 -1.2471
  145DOPC  C21417248   2.982   5.645  15.004  0.2125  0.0461 -0.2201
  145DOPC  H14R17249   2.921   5.557  15.033  1.3022 -0.0806  1.9286
  145DOPC  H14S17250   3.072   5.596  14.961  0.1940  1.2458 -1.6972
  145DOPC  C21517251   2.921   5.745  14.916 -0.6380 -0.3010  0.6082
  145DOPC  H15R17252   2.838   5.806  14.958 -1.2964  1.2495 -2.6183
  145DOPC  H15S17253   2.879   5.695  14.825 -0.0318  1.5086 -0.7316
  145DOPC  C21617254   3.025   5.848  14.860 -0.5437 -0.1371  0.2844
  145DOPC  H16R17255   3.116   5.793  14.827  1.1542  2.1930  0.8653
  145DOPC  H16S17256   3.065   5.914  14.939  0.2995  1.7675 -1.6251
  145DOPC  C21717257   2.973   5.931  14.752 -0.1785 -1.0693 -0.5104
  145DOPC  H17R17258   2.891   5.991  14.796 -2.4629 -2.4229 -2.6505
  145DOPC  H17S17259   2.944   5.858  14.674 -1.3697  0.9256 -2.0148
  145DOPC  C21817260   3.080   6.031  14.711  0.2132  0.4571 -0.2051
  145DOPC  H18R17261   3.092   6.114  14.783  0.1582  0.5810 -0.3370
  145DOPC  H18S17262   3.063   6.076  14.611  0.7998 -1.3143 -1.1489
  145DOPC  H18T17263   3.180   5.982  14.703  1.2463  2.2952  0.8957
  145DOPC   C3317264   3.352   5.349  15.966 -0.1174  0.3845  0.3646
  145DOPC   H3X17265   3.414   5.414  15.900 -1.3905  0.4682 -0.7997
  145DOPC   H3Y17266   3.304   5.408  16.047 -1.2281  0.4341 -0.3029
  145DOPC   C3417267   3.267   5.288  15.859 -0.3057  0.4547  0.2522
  145DOPC   H4X17268   3.194   5.366  15.827  0.2031  0.9580  0.2919
  145DOPC   H4Y17269   3.214   5.202  15.905  1.7910 -1.1171 -0.1281
  145DOPC   C3517270   3.321   5.252  15.721  0.9746  0.0830 -0.6811
  145DOPC   H5X17271   3.376   5.156  15.725  0.0178 -0.4151  1.7865
  145DOPC   H5Y17272   3.400   5.327  15.695  0.5793  0.3005 -1.2965
  145DOPC   C3617273   3.207   5.246  15.620  0.0966  0.5918  0.6544
  145DOPC   H6X17274   3.134   5.166  15.642  0.7752 -0.3797 -0.4873
  145DOPC   H6Y17275   3.147   5.339  15.622  0.4795  0.9594 -1.7869
  145DOPC   C3717276   3.262   5.209  15.482  0.2148  0.3840  0.8423
  145DOPC   H7X17277   3.324   5.296  15.451  0.1109  0.0728 -0.2737
  145DOPC   H7Y17278   3.323   5.116  15.488  1.6868  1.0856 -1.8148
  145DOPC   C3817279   3.148   5.202  15.380  0.3637  0.6397 -0.6391
  145DOPC   H8X17280   3.125   5.308  15.355 -2.6468  0.5876  1.3712
  145DOPC   H8Y17281   3.056   5.156  15.421 -0.2806  2.4322  0.0289
  145DOPC   C3917282   3.191   5.118  15.259  0.4432 -0.1391 -0.3846
  145DOPC   H9X17283   3.193   5.010  15.278  2.3320 -0.1017 -0.1628
  145DOPC  C31017284   3.238   5.177  15.145  0.8156 -0.1936 -0.3975
  145DOPC  H10X17285   3.268   5.099  15.073  0.9241 -3.9614  3.3372
  145DOPC  C31117286   3.256   5.322  15.118  0.6134 -0.0190  0.4952
  145DOPC  H11X17287   3.305   5.358  15.211 -0.6378 -1.1993  1.6471
  145DOPC  H11Y17288   3.161   5.379  15.113  1.2910  1.0544 -0.8842
  145DOPC  C31217289   3.331   5.358  14.991 -0.2941 -0.4643 -0.2579
  145DOPC  H12X17290   3.409   5.284  14.966 -0.3509 -0.5318 -0.2334
  145DOPC  H12Y17291   3.387   5.453  15.002  0.7323 -1.1294  0.3421
  145DOPC  C31317292   3.245   5.362  14.861 -0.4466  0.0937 -0.8329
  145DOPC  H13X17293   3.227   5.255  14.839 -4.1534  0.5141 -0.4909
  145DOPC  H13Y17294   3.148   5.416  14.871  0.6966  1.8457  2.4835
  145DOPC  C31417295   3.341   5.411  14.743  0.7161 -0.2728  0.4892
  145DOPC  H14X17296   3.372   5.515  14.763 -1.1919  0.4920 -0.2480
  145DOPC  H14Y17297   3.428   5.343  14.752  3.1087  2.1839 -2.0252
  145DOPC  C31517298   3.277   5.391  14.609 -0.5651  0.7229 -0.1204
  145DOPC  H15X17299   3.241   5.288  14.586 -0.9892  1.2133 -1.8243
  145DOPC  H15Y17300   3.347   5.416  14.526  1.6169 -3.1740  0.3263
  145DOPC  C31617301   3.170   5.495  14.602  0.0537  0.3163  0.4028
  145DOPC  H16X17302   3.085   5.479  14.671  0.3729 -0.9649  0.5174
  145DOPC  H16Y17303   3.226   5.586  14.634  0.6366  1.4776 -3.4277
  145DOPC  C31717304   3.124   5.532  14.459  0.1705 -0.0171  0.2056
  145DOPC  H17X17305   3.208   5.549  14.389 -1.1093  1.7106 -1.0050
  145DOPC  H17Y17306   3.067   5.442  14.428  0.5696  0.1129 -0.9413
  145DOPC  C31817307   3.031   5.656  14.450  0.3458 -0.1260 -0.2888
  145DOPC  H18X17308   2.932   5.628  14.492  0.0557  0.4191 -0.6060
  145DOPC  H18Y17309   3.087   5.738  14.500  2.6482 -1.1076 -1.1038
  145DOPC  H18Z17310   3.009   5.699  14.350  2.2047  0.5268 -0.4511
  146DOPC     N17311   4.321   1.962  17.296 -0.1761 -0.5160  0.0222
  146DOPC   C1217312   4.281   2.104  17.324  0.4646 -0.2429  0.4757
  146DOPC  H12A17313   4.248   2.114  17.426 -0.3063 -0.7695  0.2863
  146DOPC  H12B17314   4.205   2.138  17.256 -1.2169 -0.5976  2.1286
  146DOPC   C1317315   4.205   1.873  17.334  0.3108  0.0828  0.5158
  146DOPC  H13A17316   4.173   1.877  17.437 -0.0832  1.5643  0.3571
  146DOPC  H13B17317   4.117   1.888  17.273 -1.6266 -1.8598  2.6224
  146DOPC  H13C17318   4.235   1.770  17.323 -1.4811 -0.4753  0.5011
  146DOPC   C1417319   4.431   1.909  17.377  0.0486 -0.4345  0.1218
  146DOPC  H14A17320   4.427   1.801  17.377 -1.0137 -0.4116 -0.2448
  146DOPC  H14B17321   4.523   1.942  17.331 -0.4511  1.5415  0.4642
  146DOPC  H14C17322   4.436   1.964  17.470  2.7399  2.1838 -1.3958
  146DOPC   C1517323   4.354   1.938  17.151 -0.5403 -0.9320 -0.2555
  146DOPC  H15A17324   4.434   2.005  17.124  0.1624 -2.0475 -1.0397
  146DOPC  H15B17325   4.272   1.957  17.084 -1.2821  0.0296  0.8802
  146DOPC  H15C17326   4.385   1.835  17.138  0.5995 -0.7246  0.6192
  146DOPC   C1117327   4.397   2.208  17.310  0.4234  0.2125 -0.0503
  146DOPC  H11A17328   4.377   2.299  17.371 -0.5295  1.2470 -1.8273
  146DOPC  H11B17329   4.489   2.163  17.352 -0.7681 -1.3154  1.0547
  146DOPC     P17330   4.316   2.310  17.077  0.1822 -0.3142  0.7335
  146DOPC   O1317331   4.373   2.405  16.974  0.6913 -0.2952 -0.5589
  146DOPC   O1417332   4.204   2.357  17.162  0.0944 -0.2166 -0.2301
  146DOPC   O1217333   4.422   2.248  17.179  0.5702  0.5426  0.5712
  146DOPC   O1117334   4.266   2.175  17.006  0.6290 -0.3311 -1.0636
  146DOPC    C117335   4.327   2.130  16.889 -0.4362 -0.4446 -0.0775
  146DOPC    HA17336   4.307   2.020  16.879 -2.0113 -0.3246  1.2888
  146DOPC    HB17337   4.437   2.135  16.897 -0.3104 -3.1301  0.9905
  146DOPC    C217338   4.278   2.198  16.756 -0.3768  0.1906 -0.1007
  146DOPC    HS17339   4.267   2.307  16.770 -0.4906  0.5234 -2.4959
  146DOPC   O2117340   4.161   2.128  16.722  0.3211  0.6237 -0.4319
  146DOPC   C2117341   4.069   2.207  16.676 -0.7972 -0.7128  0.2209
  146DOPC   O2217342   4.082   2.328  16.654  0.5568  0.0738 -0.0034
  146DOPC   C2217343   3.945   2.125  16.641 -0.2312  0.2116  0.2123
  146DOPC   H2R17344   3.925   2.062  16.730 -0.4695  1.3269  0.9590
  146DOPC   H2S17345   3.971   2.064  16.552  3.1815 -0.6078  1.5798
  146DOPC    C317346   4.376   2.192  16.637  0.2219 -0.2670  0.1236
  146DOPC    HX17347   4.395   2.083  16.622  0.9164  0.0416 -1.4885
  146DOPC    HY17348   4.473   2.237  16.667  0.7238 -1.4998  0.4317
  146DOPC   O3117349   4.323   2.240  16.514  0.6206  0.1093  0.1197
  146DOPC   C3117350   4.318   2.368  16.488  0.2795 -0.0757  0.7552
  146DOPC   O3217351   4.387   2.454  16.545  0.2532  0.0726 -0.1955
  146DOPC   C3217352   4.229   2.410  16.368 -0.5086 -0.0828 -0.4231
  146DOPC   H2X17353   4.173   2.322  16.330 -1.6851  0.2844  0.4118
  146DOPC   H2Y17354   4.155   2.483  16.408  0.6520  1.8238 -1.5560
  146DOPC   C2317355   3.817   2.214  16.629 -0.2345  0.5622  0.2051
  146DOPC   H3R17356   3.829   2.281  16.542 -0.7903 -1.6726 -1.6851
  146DOPC   H3S17357   3.788   2.270  16.721 -0.8646  1.4843 -0.5432
  146DOPC   C2417358   3.695   2.128  16.608  0.2531 -0.0095  0.3195
  146DOPC   H4R17359   3.599   2.182  16.591  0.5950  0.1707 -1.2087
  146DOPC   H4S17360   3.673   2.067  16.698 -0.1383  0.3366  0.4643
  146DOPC   C2517361   3.711   2.027  16.490  0.1916 -0.0910 -0.2946
  146DOPC   H5R17362   3.609   1.983  16.482 -0.1688  0.2700  1.6801
  146DOPC   H5S17363   3.790   1.949  16.501  1.3001  0.7531 -1.9227
  146DOPC   C2617364   3.745   2.088  16.357 -0.3975  0.4138 -0.0385
  146DOPC   H6R17365   3.855   2.091  16.343 -0.3061 -2.4906 -0.5321
  146DOPC   H6S17366   3.708   2.192  16.361 -0.6272  0.3129  0.7284
  146DOPC   C2717367   3.694   2.008  16.239  0.6825 -0.4183  0.2739
  146DOPC   H7R17368   3.583   2.007  16.245  0.6066  0.4211 -0.6938
  146DOPC   H7S17369   3.722   1.901  16.249 -1.6410 -1.0011  1.1792
  146DOPC   C2817370   3.743   2.060  16.104 -0.2342  0.7766 -0.0212
  146DOPC   H8R17371   3.685   2.006  16.026 -0.4241  1.1761 -0.1550
  146DOPC   H8S17372   3.850   2.035  16.092 -0.6508 -0.4853 -1.3863
  146DOPC   C2917373   3.725   2.204  16.085  0.1883  0.7492 -0.6093
  146DOPC   H9R17374   3.660   2.248  16.162 -1.2551  1.9604 -2.4246
  146DOPC  C21017375   3.779   2.284  15.992 -0.1416 -0.0798  0.3445
  146DOPC  H10R17376   3.758   2.391  16.003 -2.2523 -0.5934  1.9594
  146DOPC  C21117377   3.869   2.236  15.878  0.1164 -0.0214  0.6847
  146DOPC  H11R17378   3.871   2.125  15.877  0.3147 -0.0454  1.7380
  146DOPC  H11S17379   3.975   2.269  15.885 -0.1242  1.2307 -0.9650
  146DOPC  C21217380   3.799   2.291  15.748  0.1595  0.6349  1.2015
  146DOPC  H12R17381   3.802   2.400  15.726  2.1584  0.3468 -0.1956
  146DOPC  H12S17382   3.692   2.262  15.759  0.6709 -1.0874  1.9428
  146DOPC  C21317383   3.862   2.220  15.624 -0.7135  0.2931  0.2098
  146DOPC  H13R17384   3.901   2.121  15.657 -0.1666  0.1914 -0.7359
  146DOPC  H13S17385   3.944   2.285  15.588 -0.3847  0.1073  0.6176
  146DOPC  C21417386   3.753   2.196  15.521 -0.1380  0.1425  0.2338
  146DOPC  H14R17387   3.677   2.276  15.533 -0.7046 -0.3455 -0.0374
  146DOPC  H14S17388   3.707   2.096  15.538 -0.5147  0.4153  0.8189
  146DOPC  C21517389   3.792   2.197  15.372 -0.6696  0.0741  0.5902
  146DOPC  H15R17390   3.854   2.107  15.351  0.2229  1.0842 -1.2938
  146DOPC  H15S17391   3.846   2.293  15.362 -0.9562  0.1844  0.0899
  146DOPC  C21617392   3.671   2.196  15.284 -0.6629 -0.2965 -0.4187
  146DOPC  H16R17393   3.616   2.281  15.332  2.8886  1.5380  0.7384
  146DOPC  H16S17394   3.621   2.099  15.306  0.1894 -0.6729 -0.1285
  146DOPC  C21717395   3.702   2.235  15.144 -0.3758  0.1193  0.1940
  146DOPC  H17R17396   3.776   2.170  15.093  1.0620  1.0562  1.0166
  146DOPC  H17S17397   3.765   2.327  15.151 -1.1302  0.7079 -0.5091
  146DOPC  C21817398   3.598   2.252  15.038  0.1171  0.5571 -1.2127
  146DOPC  H18R17399   3.523   2.324  15.075  0.7631 -0.1134  1.6888
  146DOPC  H18S17400   3.550   2.159  15.000 -1.7401  1.8877 -2.2377
  146DOPC  H18T17401   3.649   2.315  14.962  0.7087  2.2656  0.5155
  146DOPC   C3317402   4.309   2.485  16.257  0.1696 -0.4539  0.3066
  146DOPC   H3X17403   4.367   2.560  16.315 -0.3518 -0.9260  1.4829
  146DOPC   H3Y17404   4.239   2.539  16.190  1.0379  0.8213  0.3902
  146DOPC   C3417405   4.403   2.397  16.176  0.4665  0.3467  0.0459
  146DOPC   H4X17406   4.331   2.326  16.129 -0.0903  1.5927 -1.0568
  146DOPC   H4Y17407   4.472   2.361  16.256 -3.9091 -0.4090  3.9294
  146DOPC   C3517408   4.469   2.478  16.070  0.1614 -0.5631 -0.1061
  146DOPC   H5X17409   4.533   2.559  16.112  2.2794 -0.7378 -2.7370
  146DOPC   H5Y17410   4.384   2.521  16.014 -0.5048  1.4535  2.2493
  146DOPC   C3617411   4.559   2.395  15.986 -0.2276  0.2872  0.2244
  146DOPC   H6X17412   4.659   2.385  16.035  0.3330  2.8096 -0.2687
  146DOPC   H6Y17413   4.518   2.293  15.973  0.3831  0.1162 -0.3827
  146DOPC   C3717414   4.597   2.462  15.850 -0.7898 -0.0790  0.1362
  146DOPC   H7X17415   4.619   2.566  15.881 -1.2423  0.5061 -1.3758
  146DOPC   H7Y17416   4.690   2.410  15.820 -1.1411 -0.0050 -1.1578
  146DOPC   C3817417   4.491   2.434  15.739 -0.6182  0.1667 -0.4230
  146DOPC   H8X17418   4.402   2.489  15.777  1.4125  1.2355  3.3207
  146DOPC   H8Y17419   4.479   2.324  15.754  1.1778  0.2684  2.6009
  146DOPC   C3917420   4.536   2.489  15.608 -0.6507  0.7816 -0.2381
  146DOPC   H9X17421   4.528   2.598  15.605 -0.5741  0.7898 -0.1331
  146DOPC  C31017422   4.596   2.423  15.504  0.1406 -0.1803  0.9023
  146DOPC  H10X17423   4.627   2.484  15.418  1.0282  0.7260  1.8318
  146DOPC  C31117424   4.628   2.278  15.482 -0.0662 -0.8351 -0.7079
  146DOPC  H11X17425   4.557   2.217  15.541 -1.2520  1.4779  0.4098
  146DOPC  H11Y17426   4.732   2.267  15.519  0.7197 -0.2959 -2.6308
  146DOPC  C31217427   4.631   2.222  15.342 -0.5150 -0.1089  0.4404
  146DOPC  H12X17428   4.687   2.288  15.272  1.7517 -1.9706  0.3630
  146DOPC  H12Y17429   4.532   2.223  15.291 -1.2009 -0.2676  1.7453
  146DOPC  C31317430   4.695   2.086  15.323 -0.2814  0.0574 -0.1105
  146DOPC  H13X17431   4.793   2.079  15.376 -0.9873 -1.3559  1.0780
  146DOPC  H13Y17432   4.642   2.009  15.383 -2.4223  0.9196 -0.8222
  146DOPC  C31417433   4.713   2.029  15.189 -0.7215 -0.5231  0.8841
  146DOPC  H14X17434   4.770   1.934  15.198 -0.1550 -0.2609  0.1828
  146DOPC  H14Y17435   4.615   2.010  15.139  1.4028 -1.3685 -3.4646
  146DOPC  C31517436   4.813   2.112  15.098 -0.1341  0.4382  0.3322
  146DOPC  H15X17437   4.890   2.150  15.169 -0.9390 -2.2688  2.8872
  146DOPC  H15Y17438   4.756   2.185  15.037 -0.2661 -1.6321 -2.1759
  146DOPC  C31617439   4.878   2.030  14.989  0.4588 -0.3880  0.0027
  146DOPC  H16X17440   4.906   1.932  15.032 -0.8547 -1.1378 -0.7679
  146DOPC  H16Y17441   4.804   2.005  14.910 -1.6883  2.3869  0.9373
  146DOPC  C31717442   4.986   2.099  14.907 -0.5022  0.5215  0.6213
  146DOPC  H17X17443   5.067   2.126  14.979 -0.2373  0.1360  0.4688
  146DOPC  H17Y17444   5.022   2.028  14.829 -2.1755 -0.7893  0.9963
  146DOPC  C31817445   4.941   2.215  14.834  0.1395  0.1978  0.0003
  146DOPC  H18X17446   4.925   2.296  14.909  0.1054 -0.8455  1.1535
  146DOPC  H18Y17447   5.017   2.240  14.757  1.4857  1.5411  1.6765
  146DOPC  H18Z17448   4.848   2.200  14.775  0.1445  2.0653 -0.5530
  147DOPC     N17449   1.156   3.477  17.090  0.1920 -0.5155  0.3592
  147DOPC   C1217450   1.219   3.360  17.019 -0.5343 -0.4547  0.2329
  147DOPC  H12A17451   1.154   3.275  17.011 -1.4352  0.2205  0.2477
  147DOPC  H12B17452   1.307   3.330  17.075 -0.6030 -0.1722  0.4947
  147DOPC   C1317453   1.086   3.431  17.213  0.3263 -0.1109 -0.3249
  147DOPC  H13A17454   1.038   3.338  17.187 -0.2051  0.5343 -1.8060
  147DOPC  H13B17455   1.157   3.399  17.288 -0.9864 -1.0041  0.5736
  147DOPC  H13C17456   1.013   3.504  17.245 -1.7492 -1.8953 -0.8110
  147DOPC   C1417457   1.055   3.541  16.995 -0.0005  0.1323 -0.0998
  147DOPC  H14A17458   0.988   3.462  16.963  0.3586 -0.7704  1.3222
  147DOPC  H14B17459   0.995   3.623  17.032 -1.8902 -0.4385 -1.7032
  147DOPC  H14C17460   1.104   3.584  16.909 -3.1846 -0.6034 -2.4745
  147DOPC   C1517461   1.255   3.581  17.135  0.7372  0.2003  0.0640
  147DOPC  H15A17462   1.195   3.668  17.161 -1.0543  0.2866 -3.7059
  147DOPC  H15B17463   1.317   3.608  17.051 -1.2011 -1.6229 -2.1128
  147DOPC  H15C17464   1.316   3.546  17.217  0.4699 -0.7273 -0.1299
  147DOPC   C1117465   1.289   3.393  16.882  0.2916 -0.2176  0.8888
  147DOPC  H11A17466   1.319   3.297  16.834 -1.9349  0.5163 -2.2120
  147DOPC  H11B17467   1.211   3.421  16.808 -0.0876 -1.5581  0.7617
  147DOPC     P17468   1.529   3.445  16.956 -0.5907 -0.0947  0.0991
  147DOPC   O1317469   1.506   3.338  17.056 -0.2871  0.2501 -0.1283
  147DOPC   O1417470   1.590   3.570  17.005 -0.1249  0.0438  0.1267
  147DOPC   O1217471   1.395   3.484  16.884 -0.1054 -0.0230 -0.8514
  147DOPC   O1117472   1.615   3.392  16.828 -0.1346 -0.6961 -0.3811
  147DOPC    C117473   1.681   3.487  16.746  1.0080 -0.1949  0.8694
  147DOPC    HA17474   1.750   3.440  16.673  1.0194  2.2746 -0.8439
  147DOPC    HB17475   1.747   3.553  16.806 -0.1083  1.5689  0.2321
  147DOPC    C217476   1.582   3.565  16.652  0.1695 -0.2979  0.1028
  147DOPC    HS17477   1.506   3.618  16.714  0.2828 -1.4089  1.2243
  147DOPC   O2117478   1.516   3.457  16.578  0.2934 -0.4405  0.5793
  147DOPC   C2117479   1.410   3.498  16.505 -0.2040 -0.0386  0.0511
  147DOPC   O2217480   1.349   3.606  16.527  0.0561 -0.2900  0.5951
  147DOPC   C2217481   1.404   3.410  16.381 -0.2272 -0.3928  0.1002
  147DOPC   H2R17482   1.300   3.411  16.341 -0.2816 -0.3652  0.2365
  147DOPC   H2S17483   1.425   3.309  16.421  0.9381 -0.3291 -0.3436
  147DOPC    C317484   1.657   3.663  16.557  0.5480 -0.2600 -0.3971
  147DOPC    HX17485   1.708   3.750  16.603 -0.0999  0.6104 -1.2739
  147DOPC    HY17486   1.577   3.705  16.491 -0.3286  1.3714  1.5756
  147DOPC   O3117487   1.737   3.599  16.459  0.0191 -0.2777 -0.0062
  147DOPC   C3117488   1.867   3.581  16.479  0.5963 -0.2378  0.2503
  147DOPC   O3217489   1.927   3.623  16.573 -0.3440  0.4989 -0.1283
  147DOPC   C3217490   1.924   3.495  16.366  0.5067  0.3055  0.4765
  147DOPC   H2X17491   1.986   3.421  16.421  1.6871  0.1807 -0.9657
  147DOPC   H2Y17492   1.847   3.443  16.306 -1.2544  3.2337  0.0037
  147DOPC   C2317493   1.502   3.450  16.270  0.5380 -0.3432 -0.3303
  147DOPC   H3R17494   1.604   3.424  16.306 -0.0451 -1.9266  0.2992
  147DOPC   H3S17495   1.493   3.558  16.247 -0.6972 -0.0722  1.2337
  147DOPC   C2417496   1.483   3.367  16.139  0.5643  0.4744 -0.8348
  147DOPC   H4R17497   1.385   3.402  16.100  1.1176 -0.2596 -3.0421
  147DOPC   H4S17498   1.473   3.259  16.162 -2.2581  0.7587 -0.3206
  147DOPC   C2517499   1.597   3.377  16.042 -0.0398 -0.3082 -0.9939
  147DOPC   H5R17500   1.695   3.362  16.092 -0.8291  1.3599  1.1874
  147DOPC   H5S17501   1.600   3.474  15.987 -0.4093 -0.6261 -1.5813
  147DOPC   C2617502   1.578   3.285  15.922 -0.1301  0.0645  0.5549
  147DOPC   H6R17503   1.492   3.312  15.857  0.1674 -0.8542 -0.2512
  147DOPC   H6S17504   1.554   3.180  15.950  0.8482 -0.2580  0.2298
  147DOPC   C2717505   1.705   3.274  15.834  0.1138 -0.2596 -0.2537
  147DOPC   H7R17506   1.667   3.201  15.760 -1.8656  0.6489 -0.1970
  147DOPC   H7S17507   1.781   3.229  15.901  0.9123  0.2329 -0.7948
  147DOPC   C2817508   1.757   3.412  15.771 -0.1849 -0.3895  0.1943
  147DOPC   H8R17509   1.808   3.469  15.852  1.9423 -0.2596 -1.1634
  147DOPC   H8S17510   1.666   3.469  15.742  0.1839 -1.1730 -2.8388
  147DOPC   C2917511   1.844   3.393  15.647 -0.4451 -0.0577 -0.2380
  147DOPC   H9R17512   1.953   3.387  15.663 -0.4451  1.0703  0.2479
  147DOPC  C21017513   1.793   3.399  15.523  0.7559 -0.2100 -0.9470
  147DOPC  H10R17514   1.862   3.384  15.439  1.8942 -0.5739  0.0386
  147DOPC  C21117515   1.643   3.417  15.493  0.1834  0.2227  0.2825
  147DOPC  H11R17516   1.608   3.518  15.522 -1.9378 -1.3705  4.0191
  147DOPC  H11S17517   1.594   3.340  15.557  0.6995  1.3521  2.0920
  147DOPC  C21217518   1.618   3.386  15.343  0.0502  0.0893  0.0158
  147DOPC  H12R17519   1.659   3.285  15.322  2.2605  0.4924  1.9315
  147DOPC  H12S17520   1.655   3.471  15.282  1.7796 -1.5249 -1.3270
  147DOPC  C21317521   1.472   3.366  15.318 -0.1300  0.4394  0.2933
  147DOPC  H13R17522   1.410   3.457  15.327 -0.9594 -0.1866  1.0380
  147DOPC  H13S17523   1.434   3.298  15.396 -0.4124 -0.9707 -1.0183
  147DOPC  C21417524   1.435   3.291  15.192  0.0288 -0.1678 -0.5373
  147DOPC  H14R17525   1.324   3.286  15.187 -0.0269  1.6413 -2.2240
  147DOPC  H14S17526   1.466   3.184  15.195 -2.9891 -1.1243  1.3098
  147DOPC  C21517527   1.482   3.346  15.061  0.1555  0.1456 -0.1585
  147DOPC  H15R17528   1.585   3.385  15.071  0.2044 -0.0762  0.2511
  147DOPC  H15S17529   1.413   3.430  15.036  1.2022  1.2298  0.5014
  147DOPC  C21617530   1.469   3.240  14.944  0.5215  0.4848 -1.0048
  147DOPC  H16R17531   1.363   3.204  14.944  0.4985  0.2802  2.3788
  147DOPC  H16S17532   1.534   3.159  14.982  1.4678  1.8073  0.2630
  147DOPC  C21717533   1.507   3.294  14.808 -0.0429 -0.3814 -0.0286
  147DOPC  H17R17534   1.604   3.345  14.824 -0.7297  1.0200 -0.1499
  147DOPC  H17S17535   1.431   3.371  14.782  0.8318  1.5737  2.7203
  147DOPC  C21817536   1.509   3.187  14.703 -0.4123  1.1127  0.2294
  147DOPC  H18R17537   1.525   3.240  14.607 -0.8744  1.5195  0.3715
  147DOPC  H18S17538   1.418   3.124  14.693  0.1611  0.3023  0.0216
  147DOPC  H18T17539   1.601   3.126  14.715  0.0028  1.9532  1.4731
  147DOPC   C3317540   2.021   3.575  16.276  0.0133 -0.1514  0.0186
  147DOPC   H3X17541   2.122   3.562  16.318  0.2917 -0.4693 -0.7310
  147DOPC   H3Y17542   2.012   3.685  16.279  0.5940 -0.0492 -1.4747
  147DOPC   C3417543   2.023   3.518  16.135  0.0117 -0.0967  0.0629
  147DOPC   H4X17544   1.930   3.539  16.078 -0.3862 -0.0249  0.7245
  147DOPC   H4Y17545   2.037   3.408  16.125  0.5045 -0.2402  1.8751
  147DOPC   C3517546   2.145   3.582  16.065  0.4505 -0.4436 -0.3857
  147DOPC   H5X17547   2.226   3.531  16.122 -0.0746  2.9393  3.9094
  147DOPC   H5Y17548   2.146   3.690  16.092 -0.1494 -0.7254  0.8589
  147DOPC   C3617549   2.154   3.564  15.915 -0.3967 -0.3725  0.2271
  147DOPC   H6X17550   2.144   3.459  15.881 -1.3965 -0.7727  1.6753
  147DOPC   H6Y17551   2.083   3.631  15.862 -0.6987 -1.9060 -1.4005
  147DOPC   C3717552   2.298   3.603  15.870 -0.3010  0.3610 -0.2542
  147DOPC   H7X17553   2.330   3.698  15.918 -0.7894  1.0900 -1.3318
  147DOPC   H7Y17554   2.379   3.532  15.896 -0.3417 -0.0358 -1.1788
  147DOPC   C3817555   2.312   3.621  15.713 -0.5989 -0.4974 -0.5372
  147DOPC   H8X17556   2.416   3.654  15.691 -1.1905  2.2029  0.3372
  147DOPC   H8Y17557   2.237   3.701  15.693  0.2515 -0.0378 -2.0407
  147DOPC   C3917558   2.289   3.490  15.641 -0.2181 -0.1022 -0.3972
  147DOPC   H9X17559   2.360   3.413  15.674  2.3947  2.7178  1.0854
  147DOPC  C31017560   2.226   3.474  15.525  0.4706 -0.0992 -0.8901
  147DOPC  H10X17561   2.213   3.372  15.485 -0.0233 -0.7834  0.9185
  147DOPC  C31117562   2.161   3.582  15.447  0.3722  0.6636  0.5438
  147DOPC  H11X17563   2.190   3.685  15.479  2.0194  0.2998  0.2826
  147DOPC  H11Y17564   2.052   3.558  15.450  0.6756 -0.7724  0.8385
  147DOPC  C31217565   2.200   3.590  15.302 -0.3961 -0.1912  0.3493
  147DOPC  H12X17566   2.176   3.494  15.251 -0.1316 -0.0154 -0.1151
  147DOPC  H12Y17567   2.309   3.607  15.284 -0.1960 -1.7877 -0.1451
  147DOPC  C31317568   2.136   3.702  15.223 -0.1052  0.1902 -0.1197
  147DOPC  H13X17569   2.155   3.795  15.280 -0.9238 -1.2123  2.5744
  147DOPC  H13Y17570   2.175   3.711  15.119 -1.7285  0.9996 -0.6878
  147DOPC  C31417571   1.978   3.684  15.211 -0.6566 -0.2895  0.0332
  147DOPC  H14X17572   1.940   3.710  15.312  1.1323 -0.1948  0.7245
  147DOPC  H14Y17573   1.936   3.758  15.139 -2.1016  0.4493  1.5563
  147DOPC  C31517574   1.938   3.547  15.167 -0.2761 -0.5452  0.1758
  147DOPC  H15X17575   1.828   3.537  15.177 -0.2796 -1.1001 -0.3925
  147DOPC  H15Y17576   1.974   3.466  15.233 -0.7014 -2.6707 -2.0652
  147DOPC  C31617577   1.976   3.503  15.023 -0.0514 -0.2467  0.0946
  147DOPC  H16X17578   1.943   3.579  14.948  0.4310 -0.6501 -0.5421
  147DOPC  H16Y17579   2.083   3.486  14.999 -0.2138  0.9048 -1.6341
  147DOPC  C31717580   1.900   3.373  14.973  0.1536 -0.3922 -0.4644
  147DOPC  H17X17581   1.943   3.285  15.025  2.4743 -0.5341 -2.4737
  147DOPC  H17Y17582   1.794   3.381  15.008 -0.1933 -1.4189 -1.2390
  147DOPC  C31817583   1.901   3.350  14.827  0.0018 -0.2820  0.3750
  147DOPC  H18X17584   2.004   3.341  14.784 -0.2178 -1.4177  0.0392
  147DOPC  H18Y17585   1.855   3.253  14.797 -0.9430  0.3089 -0.1167
  147DOPC  H18Z17586   1.843   3.433  14.781 -0.8909 -0.8540  0.4478
  148DOPC     N17587   2.461   5.265  16.861  0.4055  0.2736  0.5059
  148DOPC   C1217588   2.579   5.258  16.775 -0.0747  0.8373 -0.1802
  148DOPC  H12A17589   2.602   5.158  16.741 -1.3717 -0.3645  2.1469
  148DOPC  H12B17590   2.657   5.285  16.844 -0.8085 -0.3828  1.1983
  148DOPC   C1317591   2.468   5.156  16.966 -0.3232  0.1684  0.7533
  148DOPC  H13A17592   2.491   5.061  16.921 -0.0544  1.4390 -1.9929
  148DOPC  H13B17593   2.546   5.180  17.037  0.1511  1.2516 -0.1024
  148DOPC  H13C17594   2.380   5.141  17.027  0.4577  1.3988  2.2579
  148DOPC   C1417595   2.335   5.223  16.782 -0.3769 -0.1125  0.7384
  148DOPC  H14A17596   2.315   5.300  16.709 -0.3738 -2.4315 -1.8486
  148DOPC  H14B17597   2.347   5.130  16.730  1.4213 -0.1622  1.1608
  148DOPC  H14C17598   2.252   5.209  16.849 -1.7147  1.7297 -0.4564
  148DOPC   C1517599   2.440   5.398  16.931  0.1566  0.5217 -0.6816
  148DOPC  H15A17600   2.345   5.402  16.982 -0.3082  0.1306 -1.4876
  148DOPC  H15B17601   2.440   5.476  16.857  0.8575  0.9782 -0.2122
  148DOPC  H15C17602   2.526   5.414  16.994  1.5918  0.3588 -2.5191
  148DOPC   C1117603   2.573   5.349  16.654  0.0941 -0.5750  0.0196
  148DOPC  H11A17604   2.663   5.312  16.600  0.7014 -2.0161  1.9312
  148DOPC  H11B17605   2.486   5.326  16.589  0.4734 -1.1326 -0.2958
  148DOPC     P17606   2.726   5.545  16.723  0.2780 -0.1305  0.4882
  148DOPC   O1317607   2.785   5.439  16.810  0.0936  0.3244 -0.5756
  148DOPC   O1417608   2.727   5.684  16.775  0.1095  0.2847  0.4062
  148DOPC   O1217609   2.579   5.498  16.676  0.1313  0.1409 -0.6314
  148DOPC   O1117610   2.800   5.545  16.587  0.7036 -0.3236 -0.1252
  148DOPC    C117611   2.753   5.611  16.471 -0.0794  0.2089  0.1482
  148DOPC    HA17612   2.836   5.678  16.439  0.0250  0.9307  1.8250
  148DOPC    HB17613   2.670   5.681  16.492 -0.3566 -0.1957  0.4102
  148DOPC    C217614   2.716   5.512  16.350 -0.3727 -0.4368 -0.0232
  148DOPC    HS17615   2.647   5.431  16.382 -1.3018  0.0901 -0.6207
  148DOPC   O2117616   2.837   5.463  16.292  0.5677 -0.0093 -0.3220
  148DOPC   C2117617   2.850   5.333  16.287 -0.9686 -0.8894 -0.6034
  148DOPC   O2217618   2.777   5.253  16.344 -0.4041  0.0484  0.1119
  148DOPC   C2217619   2.982   5.296  16.213 -0.2437  0.0731  0.4145
  148DOPC   H2R17620   3.049   5.247  16.286  1.3147 -0.3626 -1.2205
  148DOPC   H2S17621   3.033   5.388  16.178  1.7229 -1.1987 -0.2132
  148DOPC    C317622   2.640   5.585  16.235  0.3120  0.7617  0.7566
  148DOPC    HX17623   2.704   5.669  16.201  0.5070 -0.1057 -1.2050
  148DOPC    HY17624   2.550   5.627  16.283  0.5846 -0.1648  2.1434
  148DOPC   O3117625   2.609   5.489  16.130  0.2932  0.5333 -0.1863
  148DOPC   C3117626   2.477   5.461  16.106 -0.1429  0.5568  0.4498
  148DOPC   O3217627   2.385   5.505  16.168  0.4171 -0.0730  0.3780
  148DOPC   C3217628   2.468   5.368  15.980  0.1031 -0.2630 -0.0621
  148DOPC   H2X17629   2.563   5.388  15.926  0.3204  1.0568  0.7706
  148DOPC   H2Y17630   2.480   5.265  16.021 -0.6416 -0.0310  0.7647
  148DOPC   C2317631   2.968   5.188  16.100 -0.6969 -0.1209 -0.5043
  148DOPC   H3R17632   2.938   5.093  16.150 -0.2545  0.2080  0.4096
  148DOPC   H3S17633   3.066   5.184  16.049  0.4374  2.1495  1.3177
  148DOPC   C2417634   2.851   5.234  16.008  0.4013  0.4579 -0.1257
  148DOPC   H4R17635   2.886   5.327  15.958  1.3265  0.5922  0.7354
  148DOPC   H4S17636   2.754   5.248  16.059 -0.9341 -1.7195 -1.8952
  148DOPC   C2517637   2.824   5.142  15.892 -0.0878 -0.5012 -0.1203
  148DOPC   H5R17638   2.780   5.049  15.934  1.3046 -0.0577  2.4924
  148DOPC   H5S17639   2.923   5.116  15.848  0.8836  0.6970  1.2923
  148DOPC   C2617640   2.748   5.205  15.770  0.3891  0.0187 -0.9954
  148DOPC   H6R17641   2.791   5.301  15.734  0.0149 -0.0101 -1.5247
  148DOPC   H6S17642   2.647   5.235  15.806  0.3739 -1.9254  0.7410
  148DOPC   C2717643   2.727   5.092  15.664 -0.0350  0.3898  0.2775
  148DOPC   H7R17644   2.730   4.989  15.705 -1.3187  0.2810  0.1447
  148DOPC   H7S17645   2.829   5.088  15.620 -0.0761 -0.6402  0.2521
  148DOPC   C2817646   2.615   5.122  15.571  0.0199  0.0921  0.4086
  148DOPC   H8R17647   2.620   5.228  15.539  1.0873 -0.1785 -0.4011
  148DOPC   H8S17648   2.509   5.111  15.604 -0.6526  1.9512 -0.9827
  148DOPC   C2917649   2.621   5.034  15.454 -0.1712  0.1938  0.2383
  148DOPC   H9R17650   2.648   4.931  15.482 -0.5681 -0.4597 -1.6427
  148DOPC  C21017651   2.626   5.056  15.326 -0.0735 -0.7651 -0.5340
  148DOPC  H10R17652   2.645   4.969  15.262 -0.3219 -1.6899  0.6078
  148DOPC  C21117653   2.631   5.198  15.271  0.0021 -1.0520  0.2218
  148DOPC  H11R17654   2.593   5.271  15.345  0.5720  0.5791 -1.0286
  148DOPC  H11S17655   2.570   5.190  15.179  0.7947 -1.5303 -0.2737
  148DOPC  C21217656   2.776   5.250  15.249  0.3116  0.2370  0.7288
  148DOPC  H12R17657   2.837   5.235  15.341 -0.6740 -1.0804  1.2007
  148DOPC  H12S17658   2.760   5.357  15.223  2.2534  0.0149 -1.8681
  148DOPC  C21317659   2.857   5.189  15.129  0.2839  0.5470 -0.3798
  148DOPC  H13R17660   2.883   5.085  15.158  1.9447  1.5283  1.9865
  148DOPC  H13S17661   2.959   5.234  15.130  1.8087 -2.3491  3.4921
  148DOPC  C21417662   2.778   5.191  14.994 -0.8599  0.1572 -0.1416
  148DOPC  H14R17663   2.720   5.283  14.969 -2.1719 -0.0510  1.8476
  148DOPC  H14S17664   2.700   5.112  14.990 -1.7077  0.9817 -0.1111
  148DOPC  C21517665   2.872   5.164  14.878  0.1799  0.5668 -0.2789
  148DOPC  H15R17666   2.935   5.076  14.906  1.7764  1.3285 -1.3471
  148DOPC  H15S17667   2.939   5.252  14.871  0.1476  0.5200 -1.3644
  148DOPC  C21617668   2.796   5.149  14.750  0.4007  0.4340  0.2079
  148DOPC  H16R17669   2.725   5.235  14.753  1.8008  1.6009  1.8744
  148DOPC  H16S17670   2.747   5.049  14.752  1.2257  0.0093 -0.3590
  148DOPC  C21717671   2.868   5.164  14.618 -0.6058 -0.1267 -0.9216
  148DOPC  H17R17672   2.960   5.103  14.627 -1.0069 -0.4115  2.7398
  148DOPC  H17S17673   2.893   5.273  14.616 -3.1475  0.5195 -1.7713
  148DOPC  C21817674   2.786   5.133  14.491 -0.0429 -0.0057  0.5967
  148DOPC  H18R17675   2.693   5.193  14.497 -1.1754 -1.8152  2.1124
  148DOPC  H18S17676   2.769   5.023  14.483  2.3893 -0.4222  0.3136
  148DOPC  H18T17677   2.837   5.172  14.400 -0.5393 -1.8870 -0.5345
  148DOPC   C3317678   2.347   5.406  15.898  0.6891 -0.3713  0.6565
  148DOPC   H3X17679   2.338   5.517  15.889 -0.8703 -0.6170 -2.2537
  148DOPC   H3Y17680   2.249   5.377  15.941  0.0537 -0.6937 -0.9292
  148DOPC   C3417681   2.370   5.349  15.752 -0.0554  0.6271 -0.0102
  148DOPC   H4X17682   2.368   5.238  15.750  3.2603  0.4675  0.2605
  148DOPC   H4Y17683   2.469   5.383  15.713 -0.9407  0.1835 -2.8672
  148DOPC   C3517684   2.268   5.395  15.648  0.6810 -0.3949 -0.0967
  148DOPC   H5X17685   2.278   5.504  15.629 -2.3863 -0.1723 -0.9917
  148DOPC   H5Y17686   2.164   5.378  15.683  0.3194  0.1418 -0.8912
  148DOPC   C3617687   2.299   5.324  15.520  0.5374  0.4782  0.7467
  148DOPC   H6X17688   2.409   5.322  15.505  0.3818 -2.5217 -0.7620
  148DOPC   H6Y17689   2.273   5.217  15.538  2.2379  0.2695  2.2354
  148DOPC   C3717690   2.229   5.373  15.387  0.3954 -0.4962 -0.3891
  148DOPC   H7X17691   2.262   5.295  15.315  1.2143 -0.1051 -0.4486
  148DOPC   H7Y17692   2.119   5.389  15.397  0.6353  1.7374 -0.7896
  148DOPC   C3817693   2.297   5.501  15.341 -0.8039  0.2613 -1.1947
  148DOPC   H8X17694   2.408   5.493  15.335 -0.6584 -1.1166  1.5660
  148DOPC   H8Y17695   2.285   5.574  15.424 -0.7289 -1.1617  0.1116
  148DOPC   C3917696   2.236   5.555  15.222 -0.4926 -0.8161  0.3575
  148DOPC   H9X17697   2.141   5.608  15.239 -0.5358 -0.1981 -1.5782
  148DOPC  C31017698   2.291   5.553  15.098  0.1134  0.7199  0.4023
  148DOPC  H10X17699   2.256   5.613  15.012  0.7351  0.0447 -0.3466
  148DOPC  C31117700   2.422   5.487  15.060 -0.8113  0.3232  0.2617
  148DOPC  H11X17701   2.405   5.392  15.005 -1.8502 -0.7707  2.3382
  148DOPC  H11Y17702   2.483   5.457  15.149  0.9178 -0.7017 -1.2060
  148DOPC  C31217703   2.522   5.565  14.980  0.7073 -0.1428  0.7590
  148DOPC  H12X17704   2.608   5.503  14.947  1.7757  1.7981 -0.2598
  148DOPC  H12Y17705   2.570   5.647  15.039  0.5351  0.5023  0.0193
  148DOPC  C31317706   2.458   5.623  14.850 -0.1905  0.4091  0.1070
  148DOPC  H13X17707   2.396   5.537  14.815 -0.9381  1.3390 -0.9485
  148DOPC  H13Y17708   2.384   5.706  14.857  0.5672  0.9933  1.3623
  148DOPC  C31417709   2.563   5.659  14.746 -0.1363 -0.4990 -0.2107
  148DOPC  H14X17710   2.615   5.754  14.774 -0.3944  0.2328 -2.0782
  148DOPC  H14Y17711   2.627   5.569  14.742  1.6084  0.6910 -0.0902
  148DOPC  C31517712   2.502   5.666  14.603 -0.0992  0.0076  0.6701
  148DOPC  H15X17713   2.406   5.721  14.611 -0.2084 -0.3354  1.8942
  148DOPC  H15Y17714   2.471   5.561  14.580 -1.0990  0.2599  0.8094
  148DOPC  C31617715   2.603   5.720  14.499  0.1040  0.4595 -1.2762
  148DOPC  H16X17716   2.698   5.662  14.495  0.5954  0.8900  1.8993
  148DOPC  H16Y17717   2.551   5.703  14.402 -0.3379 -1.7573 -0.7116
  148DOPC  C31717718   2.642   5.862  14.542 -0.2569  0.0785  0.1995
  148DOPC  H17X17719   2.544   5.913  14.559 -1.5931 -2.3468  0.1571
  148DOPC  H17Y17720   2.705   5.863  14.633  1.2106  1.7137 -0.7732
  148DOPC  C31817721   2.722   5.943  14.431  0.1774 -0.1043 -0.4097
  148DOPC  H18X17722   2.670   5.944  14.333 -1.5648 -1.5321  0.4284
  148DOPC  H18Y17723   2.741   6.047  14.465  0.8374  0.7335 -3.0542
  148DOPC  H18Z17724   2.823   5.898  14.423 -0.2919 -1.0088 -1.5561
  149DOPC     N17725   0.549   3.647  16.525 -0.1546  0.2126  0.4723
  149DOPC   C1217726   0.486   3.781  16.478 -0.4201  0.2384 -0.1357
  149DOPC  H12A17727   0.397   3.801  16.537 -3.5082 -1.1943 -3.8288
  149DOPC  H12B17728   0.434   3.775  16.384 -1.5805 -2.2113  0.5835
  149DOPC   C1317729   0.621   3.576  16.416 -0.3672  0.0485  0.6986
  149DOPC  H13A17730   0.559   3.575  16.328  0.9231  0.1374 -0.2360
  149DOPC  H13B17731   0.718   3.617  16.391 -0.0275 -0.3836  1.2633
  149DOPC  H13C17732   0.643   3.474  16.447 -0.6661  0.0967  1.0770
  149DOPC   C1417733   0.439   3.565  16.575 -0.0864 -0.4087  0.2484
  149DOPC  H14A17734   0.468   3.472  16.622 -1.9307 -0.1715  1.9826
  149DOPC  H14B17735   0.383   3.617  16.651 -0.4397  0.2699 -0.4593
  149DOPC  H14C17736   0.374   3.542  16.492 -1.2019  1.2161  0.6183
  149DOPC   C1517737   0.637   3.668  16.641 -0.2467 -1.0640 -0.1382
  149DOPC  H15A17738   0.722   3.729  16.615 -2.1964  2.2309  0.6771
  149DOPC  H15B17739   0.655   3.576  16.695  2.1948  0.2518  1.4345
  149DOPC  H15C17740   0.588   3.725  16.718 -1.4700 -1.8094 -0.3329
  149DOPC   C1117741   0.579   3.906  16.491  0.8222 -0.0546 -0.0082
  149DOPC  H11A17742   0.667   3.886  16.426  0.8732  0.4076 -0.0866
  149DOPC  H11B17743   0.525   3.989  16.441 -0.1293 -0.5260  0.2230
  149DOPC     P17744   0.736   4.011  16.678 -0.5080  0.1093 -0.4716
  149DOPC   O1317745   0.828   3.913  16.744 -0.0923  0.1584  0.2412
  149DOPC   O1417746   0.700   4.129  16.764  0.3155 -0.2420 -0.1757
  149DOPC   O1217747   0.605   3.944  16.627  0.1224  0.1258  0.4348
  149DOPC   O1117748   0.799   4.054  16.540  0.5531  0.2505 -0.3614
  149DOPC    C117749   0.786   4.194  16.504  0.1008  0.3113  0.2792
  149DOPC    HA17750   0.850   4.255  16.572 -0.6417 -1.4388  2.6951
  149DOPC    HB17751   0.683   4.233  16.492  0.2466  0.1284 -1.9102
  149DOPC    C217752   0.838   4.219  16.358 -0.7666  0.3366 -0.9945
  149DOPC    HS17753   0.818   4.132  16.291  2.7442 -0.4585 -1.1781
  149DOPC   O2117754   0.981   4.244  16.359 -0.5404  0.1512 -0.2332
  149DOPC   C2117755   1.050   4.136  16.358 -0.4270  0.3676  0.1213
  149DOPC   O2217756   1.014   4.020  16.365  0.0170 -0.3217 -0.6183
  149DOPC   C2217757   1.193   4.167  16.325  0.2317 -0.2604  0.2532
  149DOPC   H2R17758   1.229   4.253  16.384  0.6641  1.3366 -2.1824
  149DOPC   H2S17759   1.204   4.200  16.219  1.8478  0.3951  0.5951
  149DOPC    C317760   0.766   4.339  16.287 -0.1740  0.1121 -0.7764
  149DOPC    HX17761   0.811   4.433  16.326 -0.6378  0.4619 -1.0714
  149DOPC    HY17762   0.657   4.343  16.309  0.0830  1.1307  0.4282
  149DOPC   O3117763   0.783   4.326  16.144 -0.0367 -0.6361  0.1993
  149DOPC   C3117764   0.703   4.249  16.079 -0.2468  0.1147 -0.6630
  149DOPC   O3217765   0.630   4.169  16.127 -0.2585  0.4639  0.0806
  149DOPC   C3217766   0.700   4.302  15.930  0.9916  0.2133 -0.3989
  149DOPC   H2X17767   0.639   4.394  15.925 -1.3759 -1.2994 -1.4667
  149DOPC   H2Y17768   0.803   4.330  15.898  1.4170 -1.1706 -0.3315
  149DOPC   C2317769   1.294   4.050  16.347  0.0172  0.0903  0.3706
  149DOPC   H3R17770   1.259   3.962  16.288 -2.2645  1.2191 -0.0864
  149DOPC   H3S17771   1.282   4.015  16.451  0.7784 -2.7675 -0.3980
  149DOPC   C2417772   1.440   4.079  16.317  0.8619 -0.3254 -0.3364
  149DOPC   H4R17773   1.477   4.133  16.406  1.4550  1.4863 -1.6079
  149DOPC   H4S17774   1.444   4.146  16.228  1.5639  0.7453  0.4742
  149DOPC   C2517775   1.529   3.951  16.295  0.0945 -0.2685  0.5750
  149DOPC   H5R17776   1.542   3.903  16.394 -0.5793 -0.6480  0.4790
  149DOPC   H5S17777   1.632   3.991  16.283 -0.0812  1.2674  3.2672
  149DOPC   C2617778   1.488   3.864  16.180  0.5232 -0.2899 -0.2486
  149DOPC   H6R17779   1.398   3.807  16.209  0.0966  0.3827 -0.2304
  149DOPC   H6S17780   1.567   3.788  16.161 -0.3854 -1.5020  0.7399
  149DOPC   C2717781   1.451   3.940  16.047 -0.5595 -0.2015 -0.2745
  149DOPC   H7R17782   1.533   4.009  16.019  0.3739  0.3490  3.2738
  149DOPC   H7S17783   1.365   4.006  16.067 -0.9841 -1.1358  1.1331
  149DOPC   C2817784   1.427   3.843  15.927  0.1851 -0.7701  0.1369
  149DOPC   H8R17785   1.408   3.911  15.841  2.0615 -1.6949 -1.0738
  149DOPC   H8S17786   1.337   3.780  15.942 -1.5092  1.3407 -0.6429
  149DOPC   C2917787   1.544   3.753  15.909 -0.7907  0.2111  0.3461
  149DOPC   H9R17788   1.535   3.668  15.979 -0.0292 -0.1492  0.0183
  149DOPC  C21017789   1.642   3.764  15.819  0.1751  0.1292  0.2057
  149DOPC  H10R17790   1.707   3.675  15.819  0.1145  0.0789  0.7955
  149DOPC  C21117791   1.664   3.867  15.715 -0.2078  0.1940  0.1134
  149DOPC  H11R17792   1.773   3.875  15.700  0.0532 -0.0119  1.7194
  149DOPC  H11S17793   1.625   3.968  15.744  1.3011  0.8513 -0.0876
  149DOPC  C21217794   1.601   3.837  15.581  0.5717  0.1275  0.6995
  149DOPC  H12R17795   1.492   3.849  15.594  0.3336 -0.2284 -0.7537
  149DOPC  H12S17796   1.619   3.737  15.535  4.2820  1.8367 -2.1150
  149DOPC  C21317797   1.640   3.938  15.474 -0.1632 -0.0078  0.1054
  149DOPC  H13R17798   1.744   3.925  15.439  0.3274  2.0916  0.6595
  149DOPC  H13S17799   1.634   4.041  15.514  0.5693  0.3848 -0.7845
  149DOPC  C21417800   1.550   3.940  15.350  0.0288 -0.5917  0.2355
  149DOPC  H14R17801   1.571   4.031  15.290 -0.4669 -0.3145  0.4791
  149DOPC  H14S17802   1.441   3.950  15.370  0.0934 -0.7135  0.6579
  149DOPC  C21517803   1.576   3.817  15.253 -0.1965  0.2568  0.2455
  149DOPC  H15R17804   1.560   3.729  15.320  3.7814 -0.8714 -0.0169
  149DOPC  H15S17805   1.685   3.820  15.232  0.0222 -0.7156  1.1368
  149DOPC  C21617806   1.490   3.806  15.130 -0.6558 -0.5073 -0.0134
  149DOPC  H16R17807   1.523   3.900  15.082 -1.0274  0.7082  2.0368
  149DOPC  H16S17808   1.380   3.804  15.150 -1.0928 -2.5257 -2.1415
  149DOPC  C21717809   1.523   3.683  15.032  0.8253  0.0965  0.2324
  149DOPC  H17R17810   1.443   3.641  14.968  1.9806 -0.8949 -0.6129
  149DOPC  H17S17811   1.540   3.598  15.102  1.5677  0.2095  0.2057
  149DOPC  C21817812   1.642   3.696  14.940 -0.1467 -0.0346  0.0585
  149DOPC  H18R17813   1.632   3.783  14.871  0.6326  1.7254  2.0228
  149DOPC  H18S17814   1.653   3.598  14.891 -0.6524 -0.0311 -0.0672
  149DOPC  H18T17815   1.731   3.712  15.004 -1.0983  1.6724  1.0356
  149DOPC   C3317816   0.652   4.194  15.824  1.1893  0.4527  0.8715
  149DOPC   H3X17817   0.541   4.182  15.829  1.3088 -0.0678  3.0008
  149DOPC   H3Y17818   0.704   4.099  15.849 -0.4928 -0.9401 -0.5419
  149DOPC   C3417819   0.695   4.244  15.681  0.6850  0.1997 -0.3519
  149DOPC   H4X17820   0.806   4.252  15.672  0.5757  1.5357 -0.6918
  149DOPC   H4Y17821   0.652   4.344  15.656  1.1192 -0.0951 -2.4390
  149DOPC   C3517822   0.666   4.138  15.576 -0.6482 -0.2702  0.4706
  149DOPC   H5X17823   0.557   4.132  15.556 -0.5778  2.7429 -1.4149
  149DOPC   H5Y17824   0.709   4.040  15.606  1.5379  0.2566 -0.7645
  149DOPC   C3617825   0.740   4.177  15.449  0.5167 -0.2750  0.4592
  149DOPC   H6X17826   0.696   4.277  15.429 -4.0764 -2.2834 -0.7244
  149DOPC   H6Y17827   0.849   4.186  15.468  0.3650  3.9265  0.3647
  149DOPC   C3717828   0.711   4.084  15.335  1.2611 -0.2217  0.3872
  149DOPC   H7X17829   0.764   3.991  15.367 -0.2523 -1.1637  0.2607
  149DOPC   H7Y17830   0.601   4.077  15.330  1.2859  0.1592 -1.1015
  149DOPC   C3817831   0.763   4.143  15.202  0.0255  0.2830 -0.2909
  149DOPC   H8X17832   0.864   4.184  15.220 -0.9809  1.6572  2.8838
  149DOPC   H8Y17833   0.702   4.231  15.170 -0.7743 -0.2983 -0.4070
  149DOPC   C3917834   0.758   4.032  15.102  0.1439  0.0941 -0.3558
  149DOPC   H9X17835   0.665   3.974  15.100 -1.1083  1.8951  1.2962
  149DOPC  C31017836   0.854   4.006  15.010  0.1179  0.4983 -0.4891
  149DOPC  H10X17837   0.846   3.924  14.937 -0.1599  0.6461 -0.6240
  149DOPC  C31117838   0.984   4.091  14.990  0.6049  0.5714 -0.4711
  149DOPC  H11X17839   1.012   4.131  15.089 -0.8349  2.5837 -0.8030
  149DOPC  H11Y17840   0.967   4.190  14.941 -1.4569  1.3463  1.6174
  149DOPC  C31217841   1.098   4.012  14.932  0.1203 -0.2090  0.3890
  149DOPC  H12X17842   1.064   3.967  14.836  0.6528  1.5246 -0.6596
  149DOPC  H12Y17843   1.129   3.922  14.989  2.3365 -0.5440 -1.1962
  149DOPC  C31317844   1.216   4.092  14.898 -0.4032 -0.1146  0.8899
  149DOPC  H13X17845   1.188   4.172  14.825  2.3205  0.5681  0.4679
  149DOPC  H13Y17846   1.252   4.141  14.991 -5.4082  0.9156  2.5935
  149DOPC  C31417847   1.323   4.008  14.827 -0.6656  0.1216 -0.3650
  149DOPC  H14X17848   1.401   3.973  14.898 -0.1525 -0.2252 -1.0896
  149DOPC  H14Y17849   1.274   3.921  14.779 -0.0579  0.8722 -2.4579
  149DOPC  C31517850   1.398   4.098  14.719  0.4811  0.2631 -0.4461
  149DOPC  H15X17851   1.428   4.193  14.768  0.6417  0.8812 -1.7149
  149DOPC  H15Y17852   1.331   4.127  14.635 -1.7074 -1.5309  0.5831
  149DOPC  C31617853   1.526   4.018  14.664  0.6566 -0.4813  0.4765
  149DOPC  H16X17854   1.566   4.083  14.583 -1.7514  0.4837 -0.0272
  149DOPC  H16Y17855   1.605   4.004  14.741  0.2622  0.4286  1.0672
  149DOPC  C31717856   1.475   3.881  14.605 -0.2998  0.2824 -0.2316
  149DOPC  H17X17857   1.449   3.807  14.683  1.1623  1.1269  1.1157
  149DOPC  H17Y17858   1.379   3.900  14.553  0.5271  0.5878 -1.7174
  149DOPC  C31817859   1.578   3.815  14.512 -0.7414 -0.4148 -0.1270
  149DOPC  H18X17860   1.668   3.793  14.574 -2.5323 -0.5925  2.5684
  149DOPC  H18Y17861   1.551   3.722  14.458  2.5996 -1.0495 -0.9498
  149DOPC  H18Z17862   1.605   3.884  14.429 -1.1101 -1.3533 -1.0538
  150DOPC     N17863   3.496   4.540  17.454  0.8612 -0.0462  0.4046
  150DOPC   C1217864   3.537   4.435  17.353 -1.2036 -0.4920  0.0292
  150DOPC  H12A17865   3.483   4.436  17.259  1.6162  0.2244 -1.7015
  150DOPC  H12B17866   3.515   4.336  17.391  0.8079 -0.7297  0.6476
  150DOPC   C1317867   3.597   4.551  17.560 -0.3219  0.7869 -0.0181
  150DOPC  H13A17868   3.578   4.626  17.636 -1.8191  0.2496  0.1769
  150DOPC  H13B17869   3.599   4.459  17.616  1.7050  0.3167 -0.7571
  150DOPC  H13C17870   3.694   4.565  17.515 -0.7826  1.7338 -0.7662
  150DOPC   C1417871   3.359   4.520  17.520  0.1430 -0.1895  0.5384
  150DOPC  H14A17872   3.330   4.603  17.583  1.3088  0.3285  0.4179
  150DOPC  H14B17873   3.274   4.507  17.455 -0.6466 -1.8481  1.8341
  150DOPC  H14C17874   3.371   4.431  17.580 -1.6886 -0.8571 -0.0385
  150DOPC   C1517875   3.489   4.673  17.386 -0.3511 -0.4681  0.2366
  150DOPC  H15A17876   3.413   4.671  17.309  0.3934 -1.0833 -0.5051
  150DOPC  H15B17877   3.580   4.700  17.334 -0.4552  0.6794  0.6223
  150DOPC  H15C17878   3.460   4.760  17.443  0.0355  1.0237 -1.7289
  150DOPC   C1117879   3.684   4.439  17.311  0.6166 -0.2471 -0.8874
  150DOPC  H11A17880   3.738   4.401  17.400 -2.8388 -0.5164  1.2568
  150DOPC  H11B17881   3.698   4.366  17.228 -1.0024 -1.3421 -0.2559
  150DOPC     P17882   3.878   4.616  17.307  0.3049 -0.1980  0.2571
  150DOPC   O1317883   3.894   4.594  17.454  0.7135 -0.0151  0.5762
  150DOPC   O1417884   3.911   4.747  17.250  0.4356  0.4399 -0.0858
  150DOPC   O1217885   3.732   4.572  17.265  0.1038  0.2262 -0.2600
  150DOPC   O1117886   3.978   4.517  17.237  0.4214  0.1054  0.3430
  150DOPC    C117887   3.950   4.475  17.106  0.1547 -0.0764 -0.6666
  150DOPC    HA17888   3.841   4.464  17.085 -0.3911  1.6843  0.8521
  150DOPC    HB17889   3.986   4.371  17.091 -0.9288 -0.4632 -0.6707
  150DOPC    C217890   4.007   4.564  16.991 -0.2053  0.5172 -0.6427
  150DOPC    HS17891   4.099   4.607  17.034  0.3901 -0.6632 -0.6912
  150DOPC   O2117892   3.897   4.656  16.941  0.0858  0.0483 -0.3202
  150DOPC   C2117893   3.942   4.777  16.926  0.6278 -0.2978  0.1333
  150DOPC   O2217894   4.048   4.820  16.964  0.0044 -0.4466 -0.1484
  150DOPC   C2217895   3.832   4.845  16.836  0.2761 -0.2907 -0.0448
  150DOPC   H2R17896   3.750   4.868  16.907  0.9918  1.5549  0.2450
  150DOPC   H2S17897   3.797   4.777  16.756 -0.3680  2.4755 -2.3074
  150DOPC    C317898   4.043   4.463  16.877 -0.6440  0.0069  0.1431
  150DOPC    HX17899   3.958   4.392  16.864 -1.1633  0.6927 -0.3008
  150DOPC    HY17900   4.131   4.407  16.915 -0.7824 -0.3978 -0.1261
  150DOPC   O3117901   4.074   4.539  16.753 -0.8205  0.5023 -0.3894
  150DOPC   C3117902   3.980   4.545  16.663  0.6399 -0.3568 -0.0063
  150DOPC   O3217903   3.861   4.528  16.682 -0.1425  0.8209 -0.0933
  150DOPC   C3217904   4.032   4.570  16.524 -0.5323 -0.6000 -0.5023
  150DOPC   H2X17905   4.106   4.652  16.540 -0.3077 -0.5926 -1.5183
  150DOPC   H2Y17906   4.095   4.487  16.487  0.7420  0.2347 -0.2807
  150DOPC   C2317907   3.880   4.977  16.764 -0.8104 -0.0015  0.2019
  150DOPC   H3R17908   3.945   5.039  16.830 -0.5723  1.4720 -1.3465
  150DOPC   H3S17909   3.786   5.034  16.747 -0.6745  0.3829  0.7135
  150DOPC   C2417910   3.934   4.963  16.619 -0.4789  0.5940  0.3552
  150DOPC   H4R17911   3.860   4.913  16.553  0.7317  1.7446 -1.9977
  150DOPC   H4S17912   4.019   4.891  16.615  0.4628  1.7387 -2.1361
  150DOPC   C2517913   3.973   5.098  16.559 -0.2204 -0.2849  0.1120
  150DOPC   H5R17914   4.053   5.141  16.623  2.1756 -0.7031 -2.4394
  150DOPC   H5S17915   3.888   5.168  16.555  0.2338  0.1940 -2.5278
  150DOPC   C2617916   4.040   5.092  16.423  0.3615 -0.9428 -0.0943
  150DOPC   H6R17917   4.128   5.024  16.425  0.1468 -1.2272 -0.3468
  150DOPC   H6S17918   4.081   5.195  16.408 -1.3010 -0.1557  0.4530
  150DOPC   C2717919   3.943   5.059  16.310 -0.1450  0.0618 -0.3064
  150DOPC   H7R17920   3.863   5.135  16.313 -0.1908  0.1095 -2.0580
  150DOPC   H7S17921   3.911   4.953  16.321  2.6474 -0.7843  0.4765
  150DOPC   C2817922   4.011   5.069  16.171  0.2680  0.2430 -0.2821
  150DOPC   H8R17923   4.089   4.990  16.162 -1.3064 -1.2190 -1.7850
  150DOPC   H8S17924   4.061   5.168  16.168 -0.2828  0.6621  2.3177
  150DOPC   C2917925   3.913   5.062  16.059  0.2591 -0.1221 -0.3853
  150DOPC   H9R17926   3.807   5.037  16.078 -0.2234  0.8485 -1.6849
  150DOPC  C21017927   3.952   5.076  15.933 -0.6170 -0.6169 -0.2724
  150DOPC  H10R17928   3.880   5.048  15.855 -2.5296 -1.6067  1.7479
  150DOPC  C21117929   4.085   5.127  15.896  0.1285  0.1769 -0.3942
  150DOPC  H11R17930   4.168   5.066  15.936 -0.2865  0.7081  1.3868
  150DOPC  H11S17931   4.095   5.229  15.941 -0.1977 -0.4791  1.2403
  150DOPC  C21217932   4.111   5.124  15.745 -0.0185 -0.2194  0.1551
  150DOPC  H12R17933   4.023   5.172  15.696  0.5249  2.4399  1.5914
  150DOPC  H12S17934   4.131   5.021  15.708  0.6712  0.3045 -1.0169
  150DOPC  C21317935   4.225   5.196  15.672 -0.1671 -0.0338 -0.4971
  150DOPC  H13R17936   4.316   5.142  15.706 -1.6360  0.0659  4.3420
  150DOPC  H13S17937   4.233   5.302  15.704 -0.8646  0.0498 -0.5799
  150DOPC  C21417938   4.210   5.182  15.526 -0.3601 -0.6155 -0.3753
  150DOPC  H14R17939   4.109   5.212  15.490  1.0609  3.1972 -1.8106
  150DOPC  H14S17940   4.221   5.077  15.494  1.7860 -0.9416  1.2084
  150DOPC  C21517941   4.299   5.279  15.447 -0.4638  0.6747  0.3186
  150DOPC  H15R17942   4.396   5.274  15.501 -2.4650  2.4128  4.5544
  150DOPC  H15S17943   4.265   5.384  15.453 -1.2187  0.4218  0.6362
  150DOPC  C21617944   4.305   5.255  15.295  0.4118  0.3718  0.4882
  150DOPC  H16R17945   4.305   5.148  15.265 -3.0152  0.8854 -2.0264
  150DOPC  H16S17946   4.397   5.306  15.261  0.3332 -0.1864 -0.6148
  150DOPC  C21717947   4.185   5.314  15.217 -0.7072  0.8645 -0.2270
  150DOPC  H17R17948   4.175   5.424  15.235 -2.7520  0.5200  1.0438
  150DOPC  H17S17949   4.091   5.271  15.257 -0.3532 -1.1222 -1.4052
  150DOPC  C21817950   4.190   5.292  15.072 -0.0833  0.4546 -0.0529
  150DOPC  H18R17951   4.293   5.304  15.031  0.0329  2.2352  0.6972
  150DOPC  H18S17952   4.127   5.368  15.021  0.3604 -0.1862 -1.6464
  150DOPC  H18T17953   4.147   5.197  15.032 -1.2540 -0.4855  3.1854
  150DOPC   C3317954   3.921   4.609  16.420 -0.6336  0.3733  0.0310
  150DOPC   H3X17955   3.888   4.710  16.453  0.7570  1.4535 -1.6642
  150DOPC   H3Y17956   3.833   4.543  16.434  0.9001 -1.7438  0.2962
  150DOPC   C3417957   3.971   4.621  16.280 -0.3044  1.1494 -0.4125
  150DOPC   H4X17958   4.023   4.528  16.249  0.8435  1.5788  0.1700
  150DOPC   H4Y17959   4.047   4.700  16.259 -0.8105  1.0518 -2.9740
  150DOPC   C3517960   3.854   4.643  16.189  0.4836 -0.5706  0.1254
  150DOPC   H5X17961   3.839   4.753  16.181 -0.4288 -0.7642 -1.0826
  150DOPC   H5Y17962   3.760   4.601  16.230 -0.0255  0.8152  0.4214
  150DOPC   C3617963   3.876   4.594  16.044 -0.0500 -0.0575  0.1289
  150DOPC   H6X17964   3.921   4.493  16.051  0.6742  0.3177  1.0963
  150DOPC   H6Y17965   3.779   4.602  15.991 -1.1097  0.4499  2.0257
  150DOPC   C3717966   3.972   4.686  15.964  0.7067  0.4926 -0.0448
  150DOPC   H7X17967   3.945   4.790  15.992 -0.3440 -0.3577  2.5249
  150DOPC   H7Y17968   4.072   4.678  16.012 -0.7504 -0.9101  3.0672
  150DOPC   C3817969   3.972   4.649  15.813 -0.3348  0.3379 -0.6835
  150DOPC   H8X17970   3.866   4.666  15.784 -0.5587  3.6355  1.5645
  150DOPC   H8Y17971   3.993   4.540  15.807  0.3114  0.3027  1.4064
  150DOPC   C3917972   4.067   4.724  15.726 -0.0525 -0.1666 -0.4647
  150DOPC   H9X17973   4.169   4.713  15.767  0.6235  0.5316 -1.8924
  150DOPC  C31017974   4.055   4.792  15.617 -0.4045 -0.6039  0.7270
  150DOPC  H10X17975   4.143   4.843  15.576  0.0637 -2.1809 -0.3266
  150DOPC  C31117976   3.938   4.811  15.526 -0.1391  0.9051  0.2016
  150DOPC  H11X17977   3.888   4.905  15.557 -0.1616  0.4504  1.5923
  150DOPC  H11Y17978   3.865   4.729  15.540  1.2748 -0.2615  0.9917
  150DOPC  C31217979   3.969   4.816  15.373 -0.2978 -0.5130  0.0622
  150DOPC  H12X17980   3.878   4.832  15.311  0.2967  3.2159 -0.1238
  150DOPC  H12Y17981   4.028   4.730  15.336  0.7360 -0.3707  1.2990
  150DOPC  C31317982   4.052   4.939  15.315 -0.2693 -0.8745  0.7811
  150DOPC  H13X17983   4.018   5.020  15.384 -0.9113 -0.1785 -0.3294
  150DOPC  H13Y17984   4.158   4.915  15.338  0.3150 -1.1860 -1.9309
  150DOPC  C31417985   4.034   4.964  15.166  0.0400 -0.6636  0.4011
  150DOPC  H14X17986   3.930   4.988  15.136  1.1954  3.4694 -1.0598
  150DOPC  H14Y17987   4.079   5.063  15.143 -0.0995 -0.9456 -1.2374
  150DOPC  C31517988   4.090   4.849  15.079  0.3044 -0.1996 -0.0185
  150DOPC  H15X17989   4.019   4.768  15.101 -1.5076  1.5752  1.0037
  150DOPC  H15Y17990   4.192   4.836  15.122  2.1158  3.0099 -2.8172
  150DOPC  C31617991   4.100   4.873  14.929 -1.0166 -0.3273  0.0429
  150DOPC  H16X17992   4.174   4.951  14.902 -0.8032 -0.6301 -0.2627
  150DOPC  H16Y17993   4.135   4.777  14.886 -2.8102 -1.1515  0.3336
  150DOPC  C31717994   3.965   4.910  14.856 -0.2336 -0.6221  0.2324
  150DOPC  H17X17995   3.891   4.830  14.878 -1.3557 -0.2728 -1.9779
  150DOPC  H17Y17996   3.919   5.003  14.896 -0.8791 -1.1354  0.6947
  150DOPC  C31817997   3.972   4.920  14.701 -0.3775  0.0702 -0.3266
  150DOPC  H18X17998   4.037   4.838  14.661  0.2586 -0.1021  1.0107
  150DOPC  H18Y17999   3.874   4.898  14.653 -0.4741  0.4754 -0.3115
  150DOPC  H18Z18000   4.003   5.020  14.665  2.1182  0.0485  1.4635
  151DOPC     N18001   1.976   4.525  17.014 -0.0270  0.0295  0.4429
  151DOPC   C1218002   1.949   4.508  16.863 -0.8525  0.1424 -0.6322
  151DOPC  H12A18003   1.971   4.407  16.833  0.4978 -0.4815  2.1706
  151DOPC  H12B18004   2.025   4.560  16.806 -0.0931  0.5680  0.7409
  151DOPC   C1318005   1.943   4.666  17.058 -0.7317  0.6504  0.1654
  151DOPC  H13A18006   1.971   4.688  17.160  1.8378  2.0799 -0.7641
  151DOPC  H13B18007   2.011   4.737  17.012  0.4055  0.2778  1.2135
  151DOPC  H13C18008   1.840   4.690  17.035 -1.1016 -1.1080 -0.1638
  151DOPC   C1418009   2.115   4.494  17.051 -0.4723 -0.2447  0.4609
  151DOPC  H14A18010   2.183   4.552  16.989  0.5022 -1.0650  0.7479
  151DOPC  H14B18011   2.135   4.497  17.157 -1.6725 -0.9624  0.7269
  151DOPC  H14C18012   2.135   4.396  17.011 -0.1235  0.7513 -2.0092
  151DOPC   C1518013   1.880   4.437  17.087 -0.1639 -0.1565  0.8659
  151DOPC  H15A18014   1.892   4.333  17.059  0.7779 -0.3646  1.9680
  151DOPC  H15B18015   1.779   4.458  17.058  0.4839  1.3727 -0.4592
  151DOPC  H15C18016   1.894   4.461  17.191  1.4433  3.6541 -0.0474
  151DOPC   C1118017   1.807   4.550  16.807 -0.7998  0.1162  1.1377
  151DOPC  H11A18018   1.795   4.515  16.702  0.3891 -1.0047  1.3440
  151DOPC  H11B18019   1.730   4.492  16.863 -1.2242 -1.8681 -1.3250
  151DOPC     P18020   1.878   4.786  16.721  0.3053  0.5753 -0.0856
  151DOPC   O1318021   2.022   4.751  16.738 -0.0404  0.7482 -0.2006
  151DOPC   O1418022   1.840   4.921  16.771  0.5036 -0.7662 -0.1592
  151DOPC   O1218023   1.783   4.689  16.802 -0.0074  1.0401  0.0330
  151DOPC   O1118024   1.835   4.777  16.568 -0.1479 -0.2614 -0.1038
  151DOPC    C118025   1.703   4.745  16.530  0.1267 -0.1620  0.6844
  151DOPC    HA18026   1.640   4.836  16.521 -0.0873 -0.4723 -1.4639
  151DOPC    HB18027   1.646   4.685  16.605 -0.9560  1.6518  1.3825
  151DOPC    C218028   1.693   4.675  16.391  0.0817 -0.4252  0.2815
  151DOPC    HS18029   1.758   4.584  16.388  1.0855  0.2921 -1.5931
  151DOPC   O2118030   1.720   4.772  16.291  0.3072  0.7563 -0.0306
  151DOPC   C2118031   1.776   4.742  16.177 -1.0349  0.0211 -0.6271
  151DOPC   O2218032   1.821   4.627  16.155 -0.3117  0.0032  0.3803
  151DOPC   C2218033   1.768   4.861  16.079  0.0555  0.1232 -0.9706
  151DOPC   H2R18034   1.857   4.862  16.013 -0.3425 -0.1316 -1.5211
  151DOPC   H2S18035   1.759   4.957  16.133 -0.0541 -0.4851  0.1231
  151DOPC    C318036   1.550   4.618  16.374 -0.1453 -0.7603 -0.0434
  151DOPC    HX18037   1.482   4.703  16.395 -0.9701  0.1987 -5.2763
  151DOPC    HY18038   1.530   4.544  16.455 -2.4719 -0.5924 -0.4067
  151DOPC   O3118039   1.533   4.567  16.239 -0.0772 -0.0278  0.2623
  151DOPC   C3118040   1.573   4.444  16.208 -0.2241 -0.8368  0.4115
  151DOPC   O3218041   1.630   4.364  16.278 -0.0006 -0.3631 -0.2757
  151DOPC   C3218042   1.540   4.422  16.060 -0.2777 -0.4046 -0.5053
  151DOPC   H2X18043   1.432   4.395  16.055 -0.5942  0.5756  0.5584
  151DOPC   H2Y18044   1.565   4.520  16.015  0.5310  1.2516  3.1756
  151DOPC   C2318045   1.639   4.859  15.990 -0.3235 -0.2152  0.2435
  151DOPC   H3R18046   1.564   4.931  16.030 -1.9940 -0.7935 -1.6949
  151DOPC   H3S18047   1.591   4.759  16.000  1.2739 -1.0981 -0.5589
  151DOPC   C2418048   1.655   4.890  15.837 -0.3643 -0.4411 -0.9616
  151DOPC   H4R18049   1.760   4.884  15.799  0.2341  1.8217  0.1622
  151DOPC   H4S18050   1.635   5.000  15.840 -0.7011 -0.5199  0.7285
  151DOPC   C2518051   1.554   4.814  15.753 -0.1299  0.2186 -0.6091
  151DOPC   H5R18052   1.453   4.847  15.784 -0.4114 -0.4330 -0.8057
  151DOPC   H5S18053   1.571   4.705  15.768 -1.3027  0.1528  0.4191
  151DOPC   C2618054   1.581   4.825  15.601  0.6948 -0.2601  0.2200
  151DOPC   H6R18055   1.683   4.794  15.572  0.5460  0.6012 -1.3610
  151DOPC   H6S18056   1.555   4.932  15.583 -3.5827 -1.3267 -1.3083
  151DOPC   C2718057   1.476   4.763  15.503  0.6048  0.3054  0.3143
  151DOPC   H7R18058   1.378   4.810  15.524  1.1935  1.8951 -0.3008
  151DOPC   H7S18059   1.471   4.659  15.541  0.0251 -0.0245 -0.6616
  151DOPC   C2818060   1.532   4.771  15.357 -0.6207  0.1763 -0.2840
  151DOPC   H8R18061   1.471   4.700  15.299  1.3044 -0.4448 -1.6415
  151DOPC   H8S18062   1.635   4.729  15.357 -0.2723  1.0003  0.3140
  151DOPC   C2918063   1.522   4.909  15.301 -0.4813 -0.1922  0.0951
  151DOPC   H9R18064   1.498   4.983  15.378 -0.2153 -0.2466  0.2313
  151DOPC  C21018065   1.558   4.945  15.174  0.1627  0.5647 -0.1671
  151DOPC  H10R18066   1.551   5.054  15.155 -0.2343  0.4279 -0.8451
  151DOPC  C21118067   1.609   4.854  15.068  0.0353 -0.6222  0.0118
  151DOPC  H11R18068   1.533   4.780  15.033  0.6983 -1.0959 -0.4552
  151DOPC  H11S18069   1.701   4.801  15.102  0.4636 -1.5293 -2.3325
  151DOPC  C21218070   1.649   4.928  14.938  0.1822  0.0813  0.5675
  151DOPC  H12R18071   1.748   4.974  14.962  0.2946 -1.2403  2.9835
  151DOPC  H12S18072   1.582   5.013  14.915  1.4329  0.5095 -1.8300
  151DOPC  C21318073   1.664   4.831  14.814  0.3479  0.0183  0.4779
  151DOPC  H13R18074   1.571   4.774  14.793  0.1343  0.3896  0.4005
  151DOPC  H13S18075   1.743   4.756  14.835 -0.1592 -1.4415 -2.3107
  151DOPC  C21418076   1.690   4.899  14.683 -0.6280 -0.5755 -0.2447
  151DOPC  H14R18077   1.616   4.980  14.670 -1.6100 -1.4523 -0.3166
  151DOPC  H14S18078   1.680   4.829  14.597 -0.1610  1.0590 -1.6768
  151DOPC  C21518079   1.843   4.949  14.667  0.4673  0.7983 -0.4218
  151DOPC  H15R18080   1.907   4.869  14.708  2.0473  2.4306  0.4433
  151DOPC  H15S18081   1.858   5.038  14.731 -1.0756  0.6415  0.1982
  151DOPC  C21618082   1.882   4.970  14.519 -0.6177  0.1506  0.8155
  151DOPC  H16R18083   1.833   5.063  14.483  1.6417  0.2859 -2.3823
  151DOPC  H16S18084   1.832   4.898  14.452 -1.3818  1.3961  0.0032
  151DOPC  C21718085   2.032   4.981  14.501 -0.8847  0.2762 -0.0524
  151DOPC  H17R18086   2.088   4.887  14.516  0.1001  1.0882  1.6436
  151DOPC  H17S18087   2.070   5.041  14.587 -2.5926 -0.8448  1.5693
  151DOPC  C21818088   2.088   5.038  14.364  0.1128  0.8625 -0.1811
  151DOPC  H18R18089   2.052   5.142  14.345  0.8534  0.9445 -1.2316
  151DOPC  H18S18090   2.069   4.963  14.285  2.7518 -0.1074  0.0201
  151DOPC  H18T18091   2.199   5.047  14.356  0.0700  3.2582  0.9568
  151DOPC   C3318092   1.619   4.303  16.001 -0.9140 -0.2015 -0.0746
  151DOPC   H3X18093   1.575   4.216  16.055 -1.6115  0.9541  1.2690
  151DOPC   H3Y18094   1.727   4.302  16.029 -0.9309  0.0402 -0.0059
  151DOPC   C3418095   1.607   4.288  15.850 -0.1573 -0.0794 -0.2425
  151DOPC   H4X18096   1.498   4.291  15.828 -0.2617 -1.1102  0.0709
  151DOPC   H4Y18097   1.634   4.184  15.821 -0.5661  0.3957 -2.4960
  151DOPC   C3518098   1.691   4.389  15.777  0.2149 -0.0740 -0.8457
  151DOPC   H5X18099   1.786   4.409  15.831 -0.7374 -1.1509  1.3409
  151DOPC   H5Y18100   1.647   4.490  15.772 -1.9004 -0.7165  2.2076
  151DOPC   C3618101   1.705   4.350  15.629  0.3392  0.5438 -1.2631
  151DOPC   H6X18102   1.758   4.436  15.583  2.4875  0.1668  0.3489
  151DOPC   H6Y18103   1.782   4.271  15.619  1.1701  1.3677 -1.5225
  151DOPC   C3718104   1.577   4.330  15.558 -0.3772 -0.3801 -0.2935
  151DOPC   H7X18105   1.522   4.247  15.608  0.0806 -0.4838  0.0402
  151DOPC   H7Y18106   1.514   4.421  15.573  0.6732  0.0863  1.6218
  151DOPC   C3818107   1.583   4.313  15.401  0.1393  0.5392  0.3741
  151DOPC   H8X18108   1.482   4.280  15.369 -0.3332  0.7217  1.6274
  151DOPC   H8Y18109   1.663   4.239  15.379  1.1084  1.6344  0.1264
  151DOPC   C3918110   1.621   4.437  15.324  0.1361  0.1787 -0.5194
  151DOPC   H9X18111   1.631   4.522  15.393  0.9184 -2.4201  2.8343
  151DOPC  C31018112   1.650   4.447  15.192  0.3952  0.5833 -0.2686
  151DOPC  H10X18113   1.663   4.545  15.143  1.0584  0.4454 -0.3745
  151DOPC  C31118114   1.643   4.328  15.101 -0.3925 -0.1035  0.0190
  151DOPC  H11X18115   1.544   4.279  15.112 -0.7400  0.8933  1.9391
  151DOPC  H11Y18116   1.723   4.257  15.129  0.1285 -0.2743 -1.7893
  151DOPC  C31218117   1.651   4.360  14.953 -0.2445 -0.6566  0.2506
  151DOPC  H12X18118   1.568   4.412  14.901  0.1689  0.5365  0.7472
  151DOPC  H12Y18119   1.655   4.261  14.902  0.2904 -0.6093  0.1963
  151DOPC  C31318120   1.780   4.430  14.907  0.3341  0.4177 -0.5787
  151DOPC  H13X18121   1.764   4.537  14.933 -0.3560  0.6209 -1.7701
  151DOPC  H13Y18122   1.864   4.386  14.965 -0.7115 -1.7833 -0.6454
  151DOPC  C31418123   1.803   4.406  14.758 -0.2040 -0.0619  0.3068
  151DOPC  H14X18124   1.837   4.303  14.737  0.3325  0.3706 -1.0649
  151DOPC  H14Y18125   1.709   4.406  14.700 -0.6794 -5.5147  0.6478
  151DOPC  C31518126   1.899   4.503  14.685 -0.5611 -0.6942  0.5539
  151DOPC  H15X18127   1.993   4.508  14.743 -0.7938  0.1085  0.8758
  151DOPC  H15Y18128   1.845   4.601  14.692 -0.1807 -0.3250 -1.1845
  151DOPC  C31618129   1.918   4.464  14.537  0.1611  0.4659 -0.3500
  151DOPC  H16X18130   1.972   4.367  14.537 -1.9185 -0.7431  0.0512
  151DOPC  H16Y18131   1.819   4.432  14.499  0.7178 -0.0705 -1.3772
  151DOPC  C31718132   1.996   4.569  14.457 -0.0721  0.0536 -0.3738
  151DOPC  H17X18133   1.987   4.549  14.348  1.2651 -1.4994 -0.2211
  151DOPC  H17Y18134   1.949   4.668  14.477 -0.8504 -0.5648  1.0156
  151DOPC  C31818135   2.145   4.600  14.494 -0.5750 -0.3053 -0.1310
  151DOPC  H18X18136   2.191   4.657  14.410  1.0869 -2.9647 -1.1572
  151DOPC  H18Y18137   2.153   4.657  14.589 -1.3524 -0.0657 -0.2045
  151DOPC  H18Z18138   2.194   4.501  14.503 -0.5963 -0.2189  1.0650
  152DOPC     N18139   2.069   2.758  17.164  0.0654  0.1131 -0.2822
  152DOPC   C1218140   2.162   2.858  17.095 -0.2129  0.0152  0.1898
  152DOPC  H12A18141   2.232   2.900  17.166  0.0619  1.2366 -0.7880
  152DOPC  H12B18142   2.104   2.942  17.062 -3.0635 -0.8322  2.5828
  152DOPC   C1318143   2.153   2.649  17.225 -0.1366  0.3670  0.6736
  152DOPC  H13A18144   2.223   2.682  17.300  0.7097 -0.1908  0.1445
  152DOPC  H13B18145   2.089   2.578  17.275  0.2297 -0.1225  0.4652
  152DOPC  H13C18146   2.208   2.604  17.144  2.1074  0.7871  1.8889
  152DOPC   C1418147   1.954   2.705  17.074 -0.0951 -0.2736 -0.4102
  152DOPC  H14A18148   1.882   2.783  17.056 -1.4464 -1.2763  0.4584
  152DOPC  H14B18149   1.990   2.663  16.982  3.8924 -1.1784  1.3488
  152DOPC  H14C18150   1.907   2.624  17.127  1.4401 -0.3337  0.9464
  152DOPC   C1518151   1.997   2.837  17.275 -0.5393 -0.4642 -0.5845
  152DOPC  H15A18152   1.953   2.928  17.239 -4.9658 -0.7208  3.1810
  152DOPC  H15B18153   2.074   2.855  17.349 -0.0456 -1.2004 -0.9025
  152DOPC  H15C18154   1.932   2.774  17.334  2.2067 -1.9864  1.0668
  152DOPC   C1118155   2.248   2.810  16.970  0.0014  0.9820  0.4999
  152DOPC  H11A18156   2.179   2.749  16.908  2.0296 -3.4005  2.1403
  152DOPC  H11B18157   2.276   2.901  16.912 -2.1029  1.2672 -0.1439
  152DOPC     P18158   2.490   2.764  17.063  0.0104  0.0684  0.0267
  152DOPC   O1318159   2.512   2.712  17.200 -0.1882 -0.8766 -0.1482
  152DOPC   O1418160   2.515   2.909  17.045  0.3663  0.4199 -0.2676
  152DOPC   O1218161   2.350   2.729  17.020 -0.2405  1.2148  0.8676
  152DOPC   O1118162   2.589   2.682  16.967 -0.2088  0.3798 -0.0978
  152DOPC    C118163   2.658   2.736  16.855 -0.2028 -0.3730  0.8120
  152DOPC    HA18164   2.762   2.697  16.850  0.8477  2.2096  1.0171
  152DOPC    HB18165   2.668   2.847  16.857 -0.4283 -0.3559  1.0920
  152DOPC    C218166   2.591   2.701  16.712 -0.1325 -0.5958  0.7298
  152DOPC    HS18167   2.526   2.788  16.689  0.7157  0.3927  1.9849
  152DOPC   O2118168   2.520   2.576  16.714 -0.0620 -0.2624 -0.2738
  152DOPC   C2118169   2.388   2.591  16.711  0.0360 -0.4740  0.8270
  152DOPC   O2218170   2.323   2.688  16.681  0.2192  0.3981 -0.3860
  152DOPC   C2218171   2.326   2.451  16.732 -0.1041 -0.1549  0.1175
  152DOPC   H2R18172   2.270   2.469  16.826  0.8265 -0.7057  0.7928
  152DOPC   H2S18173   2.411   2.381  16.721  1.1352  1.2658  0.1873
  152DOPC    C318174   2.689   2.692  16.593  0.2819 -0.0600 -0.0344
  152DOPC    HX18175   2.763   2.612  16.612 -0.9063 -1.3493 -0.6559
  152DOPC    HY18176   2.736   2.793  16.596 -3.6770  1.9995  0.1414
  152DOPC   O3118177   2.638   2.663  16.464  0.2275  0.2749  0.4100
  152DOPC   C3118178   2.589   2.765  16.399 -0.1538 -0.7902 -0.4202
  152DOPC   O3218179   2.589   2.882  16.438  0.5670 -0.2045 -0.8046
  152DOPC   C3218180   2.521   2.715  16.266 -0.1822 -0.0130  0.5112
  152DOPC   H2X18181   2.455   2.634  16.303 -1.2455  0.4543 -0.2959
  152DOPC   H2Y18182   2.454   2.797  16.232  0.7931  0.6225  0.0742
  152DOPC   C2318183   2.224   2.412  16.621 -0.5860 -0.0987 -0.2615
  152DOPC   H3R18184   2.171   2.502  16.583  1.8658  1.3235 -0.5473
  152DOPC   H3S18185   2.149   2.335  16.650  0.0589 -1.1181 -1.1782
  152DOPC   C2418186   2.290   2.346  16.503 -0.1539 -0.2443  0.2120
  152DOPC   H4R18187   2.350   2.258  16.533 -1.4651 -1.1273  0.3129
  152DOPC   H4S18188   2.365   2.410  16.450 -2.6182  2.3460 -0.3932
  152DOPC   C2518189   2.185   2.298  16.406 -0.2957  0.4891  0.1001
  152DOPC   H5R18190   2.117   2.384  16.389  0.0608  0.6448 -0.5685
  152DOPC   H5S18191   2.125   2.218  16.456  0.5029  0.1074  0.4581
  152DOPC   C2618192   2.232   2.227  16.278 -0.4682 -1.2737 -0.0298
  152DOPC   H6R18193   2.139   2.210  16.219 -1.4300  1.8699  0.3826
  152DOPC   H6S18194   2.284   2.131  16.296 -0.6969 -1.4659 -0.3669
  152DOPC   C2718195   2.335   2.315  16.198  0.8027  0.0631 -0.1395
  152DOPC   H7R18196   2.417   2.350  16.264  0.3632 -0.6615  0.8068
  152DOPC   H7S18197   2.282   2.405  16.160  0.5564  0.2274  0.5766
  152DOPC   C2818198   2.386   2.230  16.076 -0.2767  0.7698  0.0337
  152DOPC   H8R18199   2.302   2.169  16.037 -0.3313  0.1725  1.0551
  152DOPC   H8S18200   2.464   2.160  16.114  0.8558  1.1033 -1.5603
  152DOPC   C2918201   2.446   2.307  15.960 -0.1022  0.0977  0.4228
  152DOPC   H9R18202   2.556   2.313  15.956 -0.1156  0.4395  0.5494
  152DOPC  C21018203   2.393   2.354  15.846  0.0129 -0.2309 -0.4482
  152DOPC  H10R18204   2.457   2.395  15.766  0.5711 -0.0318  0.0976
  152DOPC  C21118205   2.248   2.345  15.807 -0.0142  0.5402  0.6208
  152DOPC  H11R18206   2.208   2.443  15.773 -0.6568  0.1935  0.3725
  152DOPC  H11S18207   2.190   2.314  15.896 -0.3104 -1.6830 -0.2850
  152DOPC  C21218208   2.229   2.237  15.705  0.2619  0.0874 -0.3559
  152DOPC  H12R18209   2.122   2.229  15.679 -0.5101  2.1485  1.7668
  152DOPC  H12S18210   2.258   2.140  15.752 -1.5144 -0.9550 -1.3235
  152DOPC  C21318211   2.312   2.254  15.576  0.4322 -0.3397 -0.3621
  152DOPC  H13R18212   2.296   2.164  15.511 -0.5354  1.4796 -2.8169
  152DOPC  H13S18213   2.419   2.259  15.604  1.1180 -1.2997 -2.5873
  152DOPC  C21418214   2.283   2.379  15.500 -0.0016 -0.8726  0.7716
  152DOPC  H14R18215   2.319   2.472  15.549  1.2127 -0.1767 -1.2923
  152DOPC  H14S18216   2.174   2.390  15.478  0.1320  3.1805  1.3984
  152DOPC  C21518217   2.355   2.408  15.365 -0.3404 -0.3443 -0.3683
  152DOPC  H15R18218   2.464   2.428  15.368 -0.4760  0.6505 -1.3766
  152DOPC  H15S18219   2.306   2.502  15.331 -1.0956 -0.1026  1.2888
  152DOPC  C21618220   2.323   2.287  15.259  0.3962 -0.4575 -0.2438
  152DOPC  H16R18221   2.213   2.299  15.253  0.6206  3.2219  0.6688
  152DOPC  H16S18222   2.345   2.194  15.314 -2.7974 -1.1256  0.0937
  152DOPC  C21718223   2.391   2.295  15.120 -0.5704 -0.3287 -0.0206
  152DOPC  H17R18224   2.501   2.279  15.128 -0.4636  0.7279  0.8522
  152DOPC  H17S18225   2.374   2.398  15.084 -1.0424 -0.8215 -1.2656
  152DOPC  C21818226   2.333   2.193  15.025 -0.6334  0.1024 -0.8677
  152DOPC  H18R18227   2.411   2.145  14.961 -0.6529  0.8894 -1.4863
  152DOPC  H18S18228   2.249   2.238  14.969 -0.3129  2.3940  0.3559
  152DOPC  H18T18229   2.296   2.111  15.091 -2.3769  0.9210 -0.7858
  152DOPC   C3318230   2.627   2.678  16.158  0.3173 -0.3739  0.3232
  152DOPC   H3X18231   2.585   2.627  16.068  0.2469 -0.7023  0.5367
  152DOPC   H3Y18232   2.703   2.607  16.198  0.6937  0.2893  0.7999
  152DOPC   C3418233   2.713   2.799  16.112 -0.0255 -0.2114 -0.7640
  152DOPC   H4X18234   2.801   2.809  16.178  0.1056  2.2836 -1.2241
  152DOPC   H4Y18235   2.659   2.896  16.116 -1.0690 -0.1052 -6.9611
  152DOPC   C3518236   2.762   2.777  15.968 -0.0563  0.2662  0.0510
  152DOPC   H5X18237   2.801   2.675  15.945 -0.2092 -0.0595  1.1518
  152DOPC   H5Y18238   2.857   2.835  15.969 -0.0520  0.2592  1.2682
  152DOPC   C3618239   2.671   2.841  15.864  0.4000  0.1547 -0.2324
  152DOPC   H6X18240   2.581   2.776  15.862  2.0392 -2.3067 -3.4729
  152DOPC   H6Y18241   2.653   2.946  15.896 -0.1286  0.2963 -0.9674
  152DOPC   C3718242   2.728   2.833  15.719  0.2995 -0.8950  0.1645
  152DOPC   H7X18243   2.658   2.884  15.649  3.2635  1.9865 -0.9548
  152DOPC   H7Y18244   2.818   2.898  15.718 -1.5909  1.9055 -0.8383
  152DOPC   C3818245   2.756   2.693  15.659 -0.3223 -0.2977 -0.1485
  152DOPC   H8X18246   2.663   2.643  15.625 -0.1073 -0.0744 -1.1024
  152DOPC   H8Y18247   2.801   2.629  15.738 -2.5920 -0.2876  1.2616
  152DOPC   C3918248   2.855   2.718  15.545 -0.1451 -1.0445  0.3012
  152DOPC   H9X18249   2.924   2.801  15.568 -0.5883  0.1244 -2.1993
  152DOPC  C31018250   2.870   2.648  15.435  0.3468  0.1716 -0.1174
  152DOPC  H10X18251   2.942   2.681  15.359  1.3767  0.3986  0.9302
  152DOPC  C31118252   2.777   2.541  15.392 -0.4982  0.1969 -0.0701
  152DOPC  H11X18253   2.687   2.528  15.456 -0.3921 -0.2195 -0.0024
  152DOPC  H11Y18254   2.834   2.446  15.400 -1.8243 -0.6999 -0.9992
  152DOPC  C31218255   2.731   2.544  15.239  0.5550 -0.3322  0.3545
  152DOPC  H12X18256   2.676   2.449  15.223  3.1607 -1.7710 -0.7514
  152DOPC  H12Y18257   2.809   2.535  15.160  0.3605 -1.9631  0.3262
  152DOPC  C31318258   2.638   2.669  15.223  0.4326  0.2903 -0.1663
  152DOPC  H13X18259   2.582   2.678  15.319 -1.0911  0.5502 -1.0436
  152DOPC  H13Y18260   2.702   2.759  15.216 -0.4945  0.8252 -3.6680
  152DOPC  C31418261   2.540   2.661  15.111 -0.1179  0.3215 -0.3883
  152DOPC  H14X18262   2.463   2.585  15.135 -0.5776  0.9225  0.0702
  152DOPC  H14Y18263   2.478   2.753  15.107  0.2698  0.5493 -2.0524
  152DOPC  C31518264   2.591   2.621  14.967 -0.1581 -0.0271  0.0394
  152DOPC  H15X18265   2.642   2.524  14.951 -0.3323  0.1823 -2.0794
  152DOPC  H15Y18266   2.665   2.704  14.957  0.4624 -0.8039 -2.3980
  152DOPC  C31618267   2.481   2.628  14.859 -0.3636 -0.0285 -0.1821
  152DOPC  H16X18268   2.408   2.545  14.873 -1.4586  0.8762 -0.3402
  152DOPC  H16Y18269   2.425   2.721  14.885  1.2622  0.8849  0.1558
  152DOPC  C31718270   2.538   2.624  14.716 -0.6605  0.1468  0.2501
  152DOPC  H17X18271   2.623   2.693  14.729  1.1048 -2.3492  3.6891
  152DOPC  H17Y18272   2.594   2.529  14.701  1.0783  1.2903 -0.9011
  152DOPC  C31818273   2.448   2.652  14.599  0.0959 -0.7360 -0.2212
  152DOPC  H18X18274   2.486   2.603  14.507 -2.0670 -1.9211 -0.5425
  152DOPC  H18Y18275   2.350   2.604  14.617 -1.0904  0.6682 -2.5157
  152DOPC  H18Z18276   2.426   2.759  14.579 -0.5837 -0.9733 -0.7671
  153DOPC     N18277   3.259   6.551  17.081  0.4477 -0.1740  0.0483
  153DOPC   C1218278   3.345   6.585  16.962  0.3872  0.3089 -0.7895
  153DOPC  H12A18279   3.288   6.579  16.871  2.5291  2.3977 -2.3959
  153DOPC  H12B18280   3.420   6.508  16.952  1.2630  0.5815  2.4260
  153DOPC   C1318281   3.217   6.404  17.082  0.2406 -0.5913 -0.1086
  153DOPC  H13A18282   3.150   6.382  17.165 -1.3553 -0.3989 -1.2970
  153DOPC  H13B18283   3.162   6.367  16.997  1.0014 -2.7460  0.2689
  153DOPC  H13C18284   3.300   6.336  17.089  0.6789 -0.1429 -0.8607
  153DOPC   C1418285   3.136   6.644  17.083 -0.6832 -0.2324 -0.0559
  153DOPC  H14A18286   3.176   6.745  17.085  0.9739 -0.8704  0.2713
  153DOPC  H14B18287   3.078   6.627  16.993 -0.7297  1.7051 -0.4506
  153DOPC  H14C18288   3.078   6.620  17.170 -1.4738  0.5558 -0.3456
  153DOPC   C1518289   3.337   6.585  17.210  0.4945 -0.0391  0.4091
  153DOPC  H15A18290   3.271   6.579  17.296 -0.8567 -0.6727 -0.6244
  153DOPC  H15B18291   3.359   6.690  17.203 -1.3087  0.2580 -2.0217
  153DOPC  H15C18292   3.419   6.516  17.220  0.4468 -0.0021  1.1393
  153DOPC   C1118293   3.412   6.723  16.960  0.1134 -0.0898 -0.2594
  153DOPC  H11A18294   3.486   6.733  17.042  0.7111 -1.0695 -0.6601
  153DOPC  H11B18295   3.472   6.718  16.866 -0.2900  2.2536 -0.7011
  153DOPC     P18296   3.353   6.970  16.880  0.6361 -0.1957  0.9024
  153DOPC   O1318297   3.485   7.022  16.929  0.1827  0.1726  0.3715
  153DOPC   O1418298   3.234   7.060  16.891  0.3983 -0.6439 -0.0544
  153DOPC   O1218299   3.322   6.836  16.956  0.2784 -0.3683  0.2079
  153DOPC   O1118300   3.363   6.924  16.732  0.2293 -0.0426 -0.2578
  153DOPC    C118301   3.256   6.848  16.669 -0.2226  0.2893 -0.1405
  153DOPC    HA18302   3.170   6.915  16.646 -0.3055 -0.3728 -1.8904
  153DOPC    HB18303   3.221   6.763  16.732 -0.4687 -0.4980 -1.3007
  153DOPC    C218304   3.301   6.778  16.535  0.5022 -0.2847 -0.2880
  153DOPC    HS18305   3.399   6.727  16.543 -1.0030 -3.0665  1.8991
  153DOPC   O2118306   3.311   6.893  16.445 -0.3596  0.3231  0.5957
  153DOPC   C2118307   3.385   6.864  16.335 -0.7434  0.4517 -0.9251
  153DOPC   O2218308   3.452   6.763  16.325 -0.1972  0.5264  0.6088
  153DOPC   C2218309   3.371   6.972  16.233  0.0182 -0.1389 -0.6635
  153DOPC   H2R18310   3.466   7.027  16.221 -0.9766  1.5184 -1.2603
  153DOPC   H2S18311   3.295   7.046  16.266  2.1459  1.8931 -0.0480
  153DOPC    C318312   3.191   6.679  16.496 -0.1733  0.5200  0.8101
  153DOPC    HX18313   3.093   6.733  16.501 -0.0000  0.7680  1.7789
  153DOPC    HY18314   3.185   6.595  16.568 -0.9266 -1.2845 -1.2521
  153DOPC   O3118315   3.206   6.624  16.366  0.0953  0.5119  0.1603
  153DOPC   C3118316   3.261   6.504  16.359  0.0738 -0.4415  0.6616
  153DOPC   O3218317   3.287   6.427  16.448  0.6907 -0.0578  0.0906
  153DOPC   C3218318   3.307   6.485  16.206 -0.5591  0.4686  0.2401
  153DOPC   H2X18319   3.376   6.569  16.184 -1.4182  0.9553 -0.6566
  153DOPC   H2Y18320   3.373   6.396  16.210 -0.1911  0.6084 -1.8553
  153DOPC   C2318321   3.335   6.910  16.095 -0.1542  0.6330  1.0521
  153DOPC   H3R18322   3.237   6.860  16.101 -0.2350 -0.1884 -3.3886
  153DOPC   H3S18323   3.410   6.836  16.061  0.6380  1.6497  0.5197
  153DOPC   C2418324   3.304   7.013  15.988 -0.3408 -0.5903 -0.2983
  153DOPC   H4R18325   3.400   7.069  15.988 -1.5479  1.6038  0.0389
  153DOPC   H4S18326   3.218   7.081  16.008  0.5184  0.3407  0.3479
  153DOPC   C2518327   3.280   6.935  15.862  0.3006  0.0128  0.0282
  153DOPC   H5R18328   3.189   6.871  15.860  1.4137 -1.6375 -0.3561
  153DOPC   H5S18329   3.368   6.867  15.853  0.5729  0.4429 -0.6887
  153DOPC   C2618330   3.273   7.024  15.732  0.0667 -0.0377 -0.1523
  153DOPC   H6R18331   3.360   7.090  15.711  0.0113  1.8484  4.4089
  153DOPC   H6S18332   3.191   7.097  15.744  0.9034  0.9037 -0.0240
  153DOPC   C2718333   3.241   6.944  15.608  0.9038 -0.8654  0.6282
  153DOPC   H7R18334   3.148   6.889  15.636  1.3093 -0.9672  1.8199
  153DOPC   H7S18335   3.327   6.876  15.597  1.8215  0.4055 -0.4209
  153DOPC   C2818336   3.217   7.013  15.466 -0.4418 -0.3177 -0.5320
  153DOPC   H8R18337   3.165   7.110  15.483  1.4026  0.6168  0.1069
  153DOPC   H8S18338   3.169   6.944  15.393 -1.0911  0.4421 -0.8384
  153DOPC   C2918339   3.350   7.059  15.402  0.0040 -0.0775  0.9339
  153DOPC   H9R18340   3.421   7.096  15.478  0.4785 -0.0609  0.4925
  153DOPC  C21018341   3.385   7.065  15.275 -0.3965 -0.0583  0.4505
  153DOPC  H10R18342   3.483   7.111  15.262  0.7114 -1.3347  3.3653
  153DOPC  C21118343   3.297   7.026  15.159 -0.2161  0.4707  0.1501
  153DOPC  H11R18344   3.189   7.015  15.184 -0.1843  0.8245  0.4599
  153DOPC  H11S18345   3.340   6.929  15.127  1.5905  1.8552 -1.8586
  153DOPC  C21218346   3.293   7.134  15.051  0.3418 -0.1298  0.3079
  153DOPC  H12R18347   3.230   7.217  15.090  2.0588  1.3619  0.0098
  153DOPC  H12S18348   3.234   7.088  14.969 -1.6766 -0.2290  1.7352
  153DOPC  C21318349   3.431   7.183  14.998 -0.1291 -0.0659 -0.3575
  153DOPC  H13R18350   3.483   7.236  15.080  0.0488 -0.8826  0.0667
  153DOPC  H13S18351   3.407   7.262  14.924 -0.8798  0.1351  0.0934
  153DOPC  C21418352   3.510   7.071  14.923 -0.2978 -0.5635 -0.3941
  153DOPC  H14R18353   3.559   7.003  14.996 -1.9033 -2.0872 -0.6408
  153DOPC  H14S18354   3.596   7.119  14.873  0.3911 -0.3499  0.9461
  153DOPC  C21518355   3.440   6.972  14.834  0.6555 -0.4044  0.2308
  153DOPC  H15R18356   3.348   6.935  14.885  0.5893  0.7711  1.0008
  153DOPC  H15S18357   3.500   6.884  14.802  0.4367  0.4418 -2.7751
  153DOPC  C21618358   3.396   7.033  14.697  0.1793 -0.2426 -0.2089
  153DOPC  H16R18359   3.492   7.042  14.642 -0.0538 -0.5460 -0.6669
  153DOPC  H16S18360   3.337   7.127  14.705  1.8983  0.8071  0.6731
  153DOPC  C21718361   3.304   6.938  14.617  0.4432  0.3607 -0.2448
  153DOPC  H17R18362   3.297   6.991  14.519 -2.7455  1.3829  0.4311
  153DOPC  H17S18363   3.205   6.937  14.666  1.2215  0.5731  1.3984
  153DOPC  C21818364   3.348   6.793  14.613  1.0479 -0.7954  0.5619
  153DOPC  H18R18365   3.458   6.798  14.602  1.3471 -1.2031  2.9320
  153DOPC  H18S18366   3.293   6.746  14.529  1.7575 -0.2948 -0.2017
  153DOPC  H18T18367   3.322   6.730  14.700  0.7732 -0.7412  0.5209
  153DOPC   C3318368   3.187   6.456  16.111 -0.0594 -0.3929 -0.5141
  153DOPC   H3X18369   3.126   6.549  16.115  0.5780  0.0155  0.0424
  153DOPC   H3Y18370   3.128   6.370  16.150  3.3503 -2.9861 -0.6472
  153DOPC   C3418371   3.220   6.434  15.962 -0.3412 -0.0917  0.1453
  153DOPC   H4X18372   3.129   6.413  15.901  1.7621 -1.6678 -2.6478
  153DOPC   H4Y18373   3.293   6.351  15.948  0.0273  0.5601 -2.1624
  153DOPC   C3518374   3.286   6.558  15.904 -0.2239  0.5534  0.1761
  153DOPC   H5X18375   3.396   6.547  15.917 -0.0604  0.6429 -1.0059
  153DOPC   H5Y18376   3.256   6.653  15.952 -0.4352  0.3195  0.5061
  153DOPC   C3618377   3.260   6.581  15.750  0.5586  0.2920  0.0644
  153DOPC   H6X18378   3.156   6.607  15.721  1.2117 -1.5359 -4.9433
  153DOPC   H6Y18379   3.317   6.669  15.713  0.4720 -0.0300 -0.8609
  153DOPC   C3718380   3.302   6.461  15.664 -0.0148  0.2601  0.1938
  153DOPC   H7X18381   3.412   6.449  15.663 -0.1196 -0.8972  1.2771
  153DOPC   H7Y18382   3.255   6.372  15.709  0.0831  0.7534  1.2939
  153DOPC   C3818383   3.249   6.480  15.518  0.1511  0.1796  0.2280
  153DOPC   H8X18384   3.144   6.509  15.539 -0.1823 -1.0158  0.2540
  153DOPC   H8Y18385   3.242   6.380  15.470 -1.5824  0.0629  0.6676
  153DOPC   C3918386   3.326   6.589  15.442 -0.1635 -0.3902  0.2703
  153DOPC   H9X18387   3.388   6.663  15.493  0.1703  1.5309 -2.6999
  153DOPC  C31018388   3.314   6.620  15.312  0.2024 -0.6595 -0.7370
  153DOPC  H10X18389   3.386   6.688  15.265 -1.1469  1.5457  0.2335
  153DOPC  C31118390   3.233   6.543  15.216 -0.0785 -0.2578 -0.0358
  153DOPC  H11X18391   3.128   6.577  15.215 -0.1618 -0.4784  0.9770
  153DOPC  H11Y18392   3.223   6.436  15.245 -2.0343 -1.2651 -3.6990
  153DOPC  C31218393   3.277   6.550  15.072  0.0125 -0.0049  0.3470
  153DOPC  H12X18394   3.379   6.508  15.065 -0.5177 -1.4464  0.7927
  153DOPC  H12Y18395   3.268   6.657  15.042 -1.4259 -0.6614 -1.8495
  153DOPC  C31318396   3.180   6.477  14.980  0.7548 -0.1432  0.1885
  153DOPC  H13X18397   3.212   6.371  14.978  2.3584  0.3235 -0.0859
  153DOPC  H13Y18398   3.076   6.494  15.017 -0.5858 -1.9417 -2.4521
  153DOPC  C31418399   3.175   6.525  14.831 -0.6595 -0.3029  0.2289
  153DOPC  H14X18400   3.150   6.632  14.818  1.9650  0.4462  0.8126
  153DOPC  H14Y18401   3.276   6.512  14.786 -0.9775  1.1463 -0.9803
  153DOPC  C31518402   3.071   6.446  14.753 -0.5146  0.0671 -0.1594
  153DOPC  H15X18403   2.967   6.476  14.776 -0.6052 -0.0953 -0.3508
  153DOPC  H15Y18404   3.086   6.337  14.765 -2.0995 -0.5370 -2.8758
  153DOPC  C31618405   3.076   6.478  14.599 -0.2006  0.5896 -0.7601
  153DOPC  H16X18406   3.180   6.458  14.566  0.3812 -0.2930  1.3986
  153DOPC  H16Y18407   3.009   6.401  14.556 -1.5745  0.2057  1.8280
  153DOPC  C31718408   3.015   6.621  14.564 -0.1819 -0.7622 -0.1136
  153DOPC  H17X18409   2.912   6.634  14.603 -0.4009  2.7770 -1.4844
  153DOPC  H17Y18410   3.076   6.693  14.622 -0.6939 -0.0039 -0.5086
  153DOPC  C31818411   3.012   6.642  14.415 -0.4352  0.1855  0.0381
  153DOPC  H18X18412   3.000   6.751  14.396  2.0509  0.7262  1.1396
  153DOPC  H18Y18413   3.113   6.619  14.373 -0.4866 -1.3692  0.6763
  153DOPC  H18Z18414   2.946   6.574  14.357 -0.3286 -0.0056  0.1397
  154DOPC     N18415   5.016   4.751  17.251  0.1665  0.0124 -0.0554
  154DOPC   C1218416   5.053   4.819  17.118 -0.4824 -0.1672  0.1400
  154DOPC  H12A18417   5.144   4.772  17.083 -0.6586 -0.5006  0.1288
  154DOPC  H12B18418   5.064   4.926  17.129 -0.8407  0.0629 -1.5067
  154DOPC   C1318419   5.116   4.794  17.361  0.3623 -0.2494  0.3141
  154DOPC  H13A18420   5.096   4.738  17.451 -0.6516 -0.3808  0.0190
  154DOPC  H13B18421   5.222   4.780  17.345  0.8302  1.0258  1.9868
  154DOPC  H13C18422   5.093   4.896  17.389 -0.5335 -0.3870  0.1279
  154DOPC   C1418423   5.027   4.604  17.238 -0.2331  0.4596 -0.1955
  154DOPC  H14A18424   5.015   4.541  17.325 -0.3081 -0.5238 -0.9012
  154DOPC  H14B18425   4.960   4.570  17.161  1.6631 -0.9685 -1.2931
  154DOPC  H14C18426   5.128   4.580  17.207 -0.4512 -0.6608 -0.0791
  154DOPC   C1518427   4.882   4.789  17.299  0.4297 -0.7360 -0.3529
  154DOPC  H15A18428   4.863   4.894  17.281 -0.4116 -0.5596  1.3822
  154DOPC  H15B18429   4.867   4.770  17.404  1.9604  0.9580  0.2258
  154DOPC  H15C18430   4.806   4.729  17.251 -0.9228  1.1011 -0.5848
  154DOPC   C1118431   4.963   4.801  17.000 -0.4566 -0.0400  0.2400
  154DOPC  H11A18432   4.872   4.855  17.033 -0.5010 -0.5408  0.9557
  154DOPC  H11B18433   4.971   4.864  16.908 -0.7528  0.2841  0.4311
  154DOPC     P18434   5.041   4.594  16.849  0.0537 -0.4686 -0.1392
  154DOPC   O1318435   5.028   4.449  16.863  0.3913 -0.1454 -0.0133
  154DOPC   O1418436   5.177   4.652  16.853  0.8339  0.0908  0.1456
  154DOPC   O1218437   4.950   4.666  16.957 -0.4499 -0.1223  0.0027
  154DOPC   O1118438   4.976   4.639  16.716 -0.7841  0.5631  0.0633
  154DOPC    C118439   4.838   4.637  16.680 -0.0385 -0.1191  0.8170
  154DOPC    HA18440   4.794   4.726  16.731  3.0366  1.5129  0.8658
  154DOPC    HB18441   4.790   4.537  16.684 -1.6030  0.5840  0.7016
  154DOPC    C218442   4.819   4.678  16.537  0.4309 -1.1764 -0.2424
  154DOPC    HS18443   4.712   4.699  16.514 -0.1634 -2.4050  1.2753
  154DOPC   O2118444   4.859   4.573  16.447  0.0472  0.4809  0.5552
  154DOPC   C2118445   4.785   4.477  16.420  0.3987  0.2606  1.0263
  154DOPC   O2218446   4.667   4.467  16.453 -0.2028 -0.7382 -0.3530
  154DOPC   C2218447   4.859   4.385  16.314  0.5324 -0.9104  0.4488
  154DOPC   H2R18448   4.800   4.291  16.323 -0.1457 -0.5542 -0.0893
  154DOPC   H2S18449   4.963   4.370  16.349  0.3700 -0.1538  1.2772
  154DOPC    C318450   4.894   4.806  16.501  0.3849  0.6679 -0.4470
  154DOPC    HX18451   5.001   4.778  16.498  0.6785  1.6036  0.5657
  154DOPC    HY18452   4.875   4.886  16.576  0.1535  0.3216 -0.1313
  154DOPC   O3118453   4.852   4.860  16.379  0.3559  0.0854  0.0606
  154DOPC   C3118454   4.936   4.838  16.276  0.2460  0.1333 -0.7175
  154DOPC   O3218455   5.047   4.790  16.288 -0.4718  0.2457 -0.4367
  154DOPC   C3218456   4.867   4.872  16.142  0.7018 -0.5354  1.0856
  154DOPC   H2X18457   4.770   4.820  16.137 -0.4545  1.6117 -2.0181
  154DOPC   H2Y18458   4.838   4.979  16.153  0.9420 -0.4359  0.7739
  154DOPC   C2318459   4.851   4.432  16.174 -0.4141  0.0439  0.5626
  154DOPC   H3R18460   4.928   4.395  16.102  0.3567 -0.7328  1.7647
  154DOPC   H3S18461   4.868   4.542  16.170  1.7658 -0.2072  1.5020
  154DOPC   C2418462   4.708   4.399  16.112 -0.6682  0.0303 -0.7623
  154DOPC   H4R18463   4.629   4.425  16.185 -2.5722 -0.8965 -2.3910
  154DOPC   H4S18464   4.697   4.289  16.098 -1.3473  0.0735 -0.5934
  154DOPC   C2518465   4.691   4.473  15.980  0.4355 -0.6069 -0.4467
  154DOPC   H5R18466   4.700   4.582  15.995  1.7357 -0.5213 -1.6995
  154DOPC   H5S18467   4.583   4.463  15.954  0.7797  1.0700 -2.8548
  154DOPC   C2618468   4.793   4.426  15.877 -0.7824 -0.4240  0.5183
  154DOPC   H6R18469   4.780   4.322  15.841 -1.8024 -0.5225  1.1148
  154DOPC   H6S18470   4.898   4.446  15.904 -1.3779  2.2895  1.1176
  154DOPC   C2718471   4.766   4.508  15.746 -0.2156  0.0219 -0.5783
  154DOPC   H7R18472   4.823   4.603  15.752 -0.6243  0.2533 -0.3060
  154DOPC   H7S18473   4.657   4.517  15.728  0.0533  0.5132 -2.1220
  154DOPC   C2818474   4.820   4.437  15.621  0.3732  0.2526 -0.9225
  154DOPC   H8R18475   4.920   4.390  15.628 -0.3753 -1.5012 -1.5837
  154DOPC   H8S18476   4.840   4.527  15.559  1.2227  0.7052 -0.0100
  154DOPC   C2918477   4.729   4.337  15.565 -0.3615  0.1332 -0.1487
  154DOPC   H9R18478   4.653   4.293  15.631  1.0528 -1.2941  0.5788
  154DOPC  C21018479   4.717   4.303  15.434 -0.5490 -0.0174  0.0600
  154DOPC  H10R18480   4.648   4.225  15.399  0.0821 -0.8233  0.5696
  154DOPC  C21118481   4.814   4.339  15.325 -0.4937 -0.4754 -0.3015
  154DOPC  H11R18482   4.905   4.277  15.338  0.8933  1.8098  1.6770
  154DOPC  H11S18483   4.834   4.448  15.322 -1.4237 -0.3027 -0.7499
  154DOPC  C21218484   4.771   4.308  15.184  0.4049 -0.2755 -0.4652
  154DOPC  H12R18485   4.682   4.365  15.149  0.5708  0.5074  0.3439
  154DOPC  H12S18486   4.748   4.201  15.171 -2.8392  0.5347 -2.4388
  154DOPC  C21318487   4.883   4.318  15.077 -0.2101  0.0283  0.2971
  154DOPC  H13R18488   4.969   4.255  15.108 -0.5971 -1.2576 -1.1264
  154DOPC  H13S18489   4.908   4.425  15.070 -0.5292  0.0661 -0.2782
  154DOPC  C21418490   4.850   4.269  14.930  0.4683  0.5020 -0.8616
  154DOPC  H14R18491   4.742   4.289  14.916  0.4189  0.7171 -0.2279
  154DOPC  H14S18492   4.875   4.162  14.948 -1.7157 -0.5489 -3.3846
  154DOPC  C21518493   4.935   4.335  14.821 -1.0614  0.3473 -1.2627
  154DOPC  H15R18494   5.044   4.328  14.844 -1.2678 -1.4837 -0.7239
  154DOPC  H15S18495   4.922   4.445  14.824 -1.7238  0.2425  0.4740
  154DOPC  C21618496   4.915   4.271  14.680  0.4628 -0.0081 -1.0517
  154DOPC  H16R18497   4.806   4.274  14.657  0.0877 -1.0814  0.4192
  154DOPC  H16S18498   4.942   4.164  14.694 -0.6698 -0.1355  0.4744
  154DOPC  C21718499   4.988   4.334  14.563  0.1717  0.0337 -0.0965
  154DOPC  H17R18500   5.098   4.315  14.561  0.6492  2.1455  1.7449
  154DOPC  H17S18501   4.971   4.444  14.565 -0.4287 -0.0573 -0.0786
  154DOPC  C21818502   4.932   4.283  14.429  0.9633  0.3458  0.4745
  154DOPC  H18R18503   4.822   4.300  14.439  0.9011 -0.8757  2.2527
  154DOPC  H18S18504   4.958   4.176  14.419  0.9596  0.2529  1.4449
  154DOPC  H18T18505   4.963   4.336  14.336 -1.6652 -1.7638 -1.7912
  154DOPC   C3318506   4.956   4.853  16.016  0.2754 -0.2892  0.0564
  154DOPC   H3X18507   4.988   4.747  16.005  2.8749  0.4410 -0.2485
  154DOPC   H3Y18508   5.046   4.919  16.018 -0.1135  0.2691 -0.3445
  154DOPC   C3418509   4.896   4.899  15.882  0.0011  0.1644 -0.3342
  154DOPC   H4X18510   4.885   5.010  15.886  4.5411  0.9062 -2.4127
  154DOPC   H4Y18511   4.794   4.854  15.887  0.3366 -0.4903  1.6154
  154DOPC   C3518512   4.975   4.851  15.762  0.4872  0.0237  0.2578
  154DOPC   H5X18513   4.968   4.741  15.760  1.8267 -0.0713 -0.6080
  154DOPC   H5Y18514   5.080   4.884  15.776  0.0185  0.5431  3.5065
  154DOPC   C3618515   4.916   4.912  15.632  0.6547 -0.0093 -0.1092
  154DOPC   H6X18516   4.818   4.861  15.627 -0.1678  1.6048 -1.8080
  154DOPC   H6Y18517   4.908   5.023  15.633  2.1359  0.1370 -0.6554
  154DOPC   C3718518   5.009   4.887  15.517 -0.6963 -0.1939  0.7498
  154DOPC   H7X18519   5.113   4.909  15.550 -0.6553 -1.5532  1.5747
  154DOPC   H7Y18520   5.013   4.779  15.493  1.7805  0.2503 -1.3204
  154DOPC   C3818521   4.974   4.971  15.380  0.0062  0.2721 -0.1954
  154DOPC   H8X18522   4.966   5.077  15.412  0.5290  0.3959 -0.4612
  154DOPC   H8Y18523   4.869   4.957  15.345 -0.2144  1.0778  0.1153
  154DOPC   C3918524   5.077   4.948  15.268  0.2105  0.0704  0.2906
  154DOPC   H9X18525   5.161   5.019  15.263  1.6293 -1.2121  3.2444
  154DOPC  C31018526   5.081   4.843  15.178 -0.4385 -0.2235 -0.5960
  154DOPC  H10X18527   5.151   4.847  15.094 -0.0411  0.7503 -0.2340
  154DOPC  C31118528   4.989   4.724  15.189 -0.8569  0.3766 -0.2707
  154DOPC  H11X18529   4.993   4.673  15.288  0.9528 -1.1718 -1.0790
  154DOPC  H11Y18530   5.037   4.646  15.126  0.0688  0.5509  0.2029
  154DOPC  C31218531   4.851   4.746  15.130  0.5557 -0.1421  0.8200
  154DOPC  H12X18532   4.804   4.835  15.176  0.3223 -0.4036  1.0864
  154DOPC  H12Y18533   4.796   4.656  15.163  3.0311 -1.6961  0.9964
  154DOPC  C31318534   4.847   4.756  14.976  0.5711  0.1022 -0.3998
  154DOPC  H13X18535   4.894   4.850  14.940 -0.4193  0.4614 -0.7834
  154DOPC  H13Y18536   4.900   4.669  14.933  0.7359 -1.1641  2.1504
  154DOPC  C31418537   4.702   4.760  14.918  0.3211  0.6342 -0.5848
  154DOPC  H14X18538   4.648   4.671  14.957  0.7019  0.3615 -0.6755
  154DOPC  H14Y18539   4.654   4.856  14.948 -0.2017  0.1227  0.2863
  154DOPC  C31518540   4.716   4.759  14.768 -1.4547  0.2544 -0.0103
  154DOPC  H15X18541   4.771   4.665  14.747 -0.5263  0.7270  0.2424
  154DOPC  H15Y18542   4.775   4.847  14.732 -1.0430 -0.4613 -1.1454
  154DOPC  C31618543   4.582   4.752  14.692  0.6973 -0.5476 -0.7163
  154DOPC  H16X18544   4.546   4.654  14.731 -0.3885  0.0298 -0.2380
  154DOPC  H16Y18545   4.523   4.839  14.727 -0.8771 -1.1370 -1.8015
  154DOPC  C31718546   4.613   4.763  14.546  0.4226 -0.5066 -0.1426
  154DOPC  H17X18547   4.687   4.843  14.525  0.1609 -0.3192 -0.3457
  154DOPC  H17Y18548   4.666   4.669  14.520  5.1348  2.1349 -1.2034
  154DOPC  C31818549   4.483   4.764  14.467 -0.1731 -0.1674 -0.1634
  154DOPC  H18X18550   4.446   4.868  14.451  0.5228  0.1138  0.0425
  154DOPC  H18Y18551   4.500   4.703  14.376 -0.8487 -0.7137  0.0706
  154DOPC  H18Z18552   4.407   4.711  14.527 -2.9008  1.5026 -1.8957
  155DOPC     N18553   0.762   2.824  16.829 -0.2317  0.3449  0.1897
  155DOPC   C1218554   0.711   2.960  16.782  0.4612 -0.1757 -0.1972
  155DOPC  H12A18555   0.629   2.946  16.712 -1.0726 -0.5670  1.5853
  155DOPC  H12B18556   0.797   3.002  16.732  1.3734 -0.6263  0.9441
  155DOPC   C1318557   0.880   2.822  16.927 -0.2120 -0.2908  0.2556
  155DOPC  H13A18558   0.968   2.858  16.875 -1.0170  1.4845  0.0538
  155DOPC  H13B18559   0.858   2.881  17.015  2.0857 -1.2224  1.5260
  155DOPC  H13C18560   0.897   2.721  16.961  0.3532 -0.1142  0.5057
  155DOPC   C1418561   0.804   2.729  16.719 -0.6082 -0.0560 -0.0858
  155DOPC  H14A18562   0.882   2.772  16.658 -0.0289 -1.1877 -0.1651
  155DOPC  H14B18563   0.839   2.644  16.775 -3.8158  0.3665  2.8943
  155DOPC  H14C18564   0.717   2.707  16.658 -0.3946  0.2816 -0.5202
  155DOPC   C1518565   0.661   2.752  16.910 -0.2546 -0.0831  0.1051
  155DOPC  H15A18566   0.643   2.801  17.004 -4.4405  0.7317 -0.9096
  155DOPC  H15B18567   0.703   2.654  16.926 -1.2896 -0.5324  0.1810
  155DOPC  H15C18568   0.571   2.729  16.854  0.3649  0.2899 -1.0720
  155DOPC   C1118569   0.670   3.058  16.891  0.0448 -0.4239 -0.1392
  155DOPC  H11A18570   0.632   3.147  16.836  0.0493 -0.6286 -0.4765
  155DOPC  H11B18571   0.585   3.011  16.946  0.3168 -1.5930 -0.7130
  155DOPC     P18572   0.892   3.180  16.955  0.0472 -0.1028  0.2037
  155DOPC   O1318573   1.018   3.133  17.013 -0.3675 -0.0554 -0.3654
  155DOPC   O1418574   0.863   3.316  16.998  0.3629 -0.3145  0.0751
  155DOPC   O1218575   0.771   3.084  16.990 -0.0290  0.1136  0.1415
  155DOPC   O1118576   0.906   3.164  16.791  0.3898 -0.8154  0.1383
  155DOPC    C118577   0.876   3.280  16.710  0.0686  0.7417 -0.3516
  155DOPC    HA18578   0.935   3.370  16.737  0.3566  0.3689  0.2988
  155DOPC    HB18579   0.768   3.302  16.718  0.2308  1.6767 -0.5989
  155DOPC    C218580   0.920   3.264  16.558  0.0971 -0.1226  0.0781
  155DOPC    HS18581   0.885   3.347  16.493  1.0577  1.1081  1.0779
  155DOPC   O2118582   0.872   3.135  16.514 -0.5723 -0.1676  0.1936
  155DOPC   C2118583   0.745   3.144  16.477  0.0362  0.5886 -0.0347
  155DOPC   O2218584   0.673   3.244  16.499 -0.1463 -0.3931 -0.5295
  155DOPC   C2218585   0.713   3.009  16.421 -0.3707 -0.3650  0.4700
  155DOPC   H2R18586   0.648   2.951  16.489  1.3025 -0.4643  2.0535
  155DOPC   H2S18587   0.809   2.954  16.414 -0.3408 -0.2028 -0.6919
  155DOPC    C318588   1.078   3.259  16.541 -0.1925  0.1333  0.0303
  155DOPC    HX18589   1.128   3.239  16.638 -0.2886 -1.0348 -0.1493
  155DOPC    HY18590   1.108   3.362  16.514 -0.1896  0.1285  0.0155
  155DOPC   O3118591   1.130   3.168  16.436 -0.1612  0.4431  0.0609
  155DOPC   C3118592   1.091   3.199  16.310 -0.2094  0.4160 -0.2435
  155DOPC   O3218593   1.018   3.287  16.271 -0.5753  0.0835 -0.1100
  155DOPC   C3218594   1.148   3.096  16.209 -0.3646 -0.1129 -0.0408
  155DOPC   H2X18595   1.247   3.065  16.248 -0.2630  1.6213  1.1722
  155DOPC   H2Y18596   1.083   3.006  16.221  1.9926 -1.6180  2.5723
  155DOPC   C2318597   0.641   3.005  16.284 -0.2847  0.1413  0.1291
  155DOPC   H3R18598   0.570   3.090  16.282  1.3167  1.5314 -1.2848
  155DOPC   H3S18599   0.585   2.910  16.269  1.5930 -0.8711 -0.7832
  155DOPC   C2418600   0.746   3.025  16.176  0.2336  0.0418  0.0508
  155DOPC   H4R18601   0.830   2.955  16.191 -0.8764 -1.1528  0.9583
  155DOPC   H4S18602   0.772   3.133  16.171  0.9606 -0.1636 -0.6814
  155DOPC   C2518603   0.671   2.975  16.045  0.5057 -0.8645  0.1864
  155DOPC   H5R18604   0.597   3.058  16.035 -0.0892 -1.1999  1.6135
  155DOPC   H5S18605   0.607   2.887  16.065  0.0121 -1.0746 -1.9921
  155DOPC   C2618606   0.769   2.965  15.928 -0.5856 -0.3051 -0.1202
  155DOPC   H6R18607   0.832   2.874  15.934 -1.9257 -1.2039  0.9315
  155DOPC   H6S18608   0.838   3.052  15.930 -0.3084 -0.5281  0.2015
  155DOPC   C2718609   0.706   2.973  15.790  0.8179  0.0165  0.1122
  155DOPC   H7R18610   0.651   3.068  15.774 -1.0350 -0.5628  2.4005
  155DOPC   H7S18611   0.631   2.892  15.808  0.4768  0.3404  0.1746
  155DOPC   C2818612   0.799   2.951  15.668 -0.0462  0.1365  0.0162
  155DOPC   H8R18613   0.889   3.016  15.676  0.5655 -0.8438  1.5837
  155DOPC   H8S18614   0.742   2.981  15.578  1.4344  1.0382 -0.6600
  155DOPC   C2918615   0.853   2.808  15.660 -0.4914  0.4602  0.0759
  155DOPC   H9R18616   0.900   2.776  15.754 -1.5332  1.4792  0.9616
  155DOPC  C21018617   0.840   2.727  15.554 -0.0573  0.4665  0.0607
  155DOPC  H10R18618   0.894   2.631  15.552 -2.2610 -0.8334 -1.7830
  155DOPC  C21118619   0.767   2.761  15.430 -0.2690 -0.1160 -0.3088
  155DOPC  H11R18620   0.778   2.869  15.408  0.0844  0.0834  0.7856
  155DOPC  H11S18621   0.662   2.728  15.441  0.9319 -5.0851 -1.3187
  155DOPC  C21218622   0.851   2.690  15.318 -0.7750  0.2119  0.0927
  155DOPC  H12R18623   0.866   2.581  15.333  0.4320  0.2525 -0.7049
  155DOPC  H12S18624   0.953   2.732  15.303 -0.0974 -1.7154 -0.9285
  155DOPC  C21318625   0.782   2.711  15.170 -0.2429 -0.0693  0.3783
  155DOPC  H13R18626   0.785   2.821  15.154 -0.3916 -0.1516 -0.2214
  155DOPC  H13S18627   0.673   2.689  15.169 -0.6754  1.7866  1.2863
  155DOPC  C21418628   0.848   2.632  15.056 -0.2142  0.7514  0.1809
  155DOPC  H14R18629   0.839   2.524  15.083 -2.3070  0.7320 -0.4682
  155DOPC  H14S18630   0.956   2.656  15.049  0.3612 -1.9348 -2.0880
  155DOPC  C21518631   0.772   2.668  14.927 -0.8450 -0.0003  0.7927
  155DOPC  H15R18632   0.797   2.772  14.897  2.1385 -1.0512 -0.8615
  155DOPC  H15S18633   0.665   2.659  14.953 -0.9468 -0.2581  0.2950
  155DOPC  C21618634   0.801   2.573  14.810 -0.6027  0.6695 -0.1306
  155DOPC  H16R18635   0.906   2.539  14.822 -1.4385 -1.8939  0.4588
  155DOPC  H16S18636   0.788   2.631  14.716  1.7070  2.7076  0.7019
  155DOPC  C21718637   0.720   2.443  14.810 -0.1954 -0.1995 -0.2603
  155DOPC  H17R18638   0.611   2.462  14.798 -0.2673 -0.3404  0.1576
  155DOPC  H17S18639   0.731   2.378  14.899  0.0121  2.4363  1.7605
  155DOPC  C21818640   0.751   2.347  14.683  0.0009 -0.6924  0.0100
  155DOPC  H18R18641   0.695   2.380  14.593  0.8100 -0.1751 -0.3121
  155DOPC  H18S18642   0.729   2.238  14.693  0.3834 -0.7037  0.7789
  155DOPC  H18T18643   0.859   2.363  14.663 -0.1893 -0.1788 -0.6491
  155DOPC   C3318644   1.149   3.158  16.068 -0.1921  0.6479 -0.7326
  155DOPC   H3X18645   1.188   3.262  16.063  3.0353 -0.3239  1.0957
  155DOPC   H3Y18646   1.041   3.170  16.046 -0.7473 -1.4858  0.6028
  155DOPC   C3418647   1.203   3.059  15.963  0.4131 -0.2810 -0.6355
  155DOPC   H4X18648   1.144   2.967  15.978 -0.3123  0.4423  1.3287
  155DOPC   H4Y18649   1.310   3.040  15.988  0.8691  1.1720 -1.3309
  155DOPC   C3518650   1.191   3.110  15.815 -0.4129 -0.3292  0.3426
  155DOPC   H5X18651   1.229   3.214  15.808 -0.4923 -0.3173  0.0847
  155DOPC   H5Y18652   1.085   3.125  15.786  0.3733  1.9825 -1.6320
  155DOPC   C3618653   1.265   3.023  15.708  0.6446 -0.5320 -0.5867
  155DOPC   H6X18654   1.353   2.967  15.748  1.1899 -0.1103 -1.1719
  155DOPC   H6Y18655   1.186   2.951  15.678 -0.3366  0.6708 -0.9794
  155DOPC   C3718656   1.290   3.107  15.574  0.1439 -0.3054  0.2993
  155DOPC   H7X18657   1.207   3.179  15.556  0.7191  0.2925  0.0090
  155DOPC   H7Y18658   1.381   3.167  15.594 -0.4674  1.0053 -0.6506
  155DOPC   C3818659   1.292   3.016  15.455  0.8523 -0.1078 -0.3530
  155DOPC   H8X18660   1.361   2.930  15.466  1.1440 -0.1497 -2.2241
  155DOPC   H8Y18661   1.336   3.083  15.379  1.6342  0.9350  0.9711
  155DOPC   C3918662   1.151   2.961  15.416 -0.5661  0.4590  0.5754
  155DOPC   H9X18663   1.091   2.921  15.499  0.1904 -1.5762  0.1979
  155DOPC  C31018664   1.089   2.986  15.295  0.1860 -0.5900 -0.4948
  155DOPC  H10X18665   0.989   2.943  15.279 -0.4658 -0.0078  1.7074
  155DOPC  C31118666   1.145   3.057  15.177 -0.2577  0.4751 -0.0662
  155DOPC  H11X18667   1.252   3.028  15.165 -0.1635  1.1069 -0.8472
  155DOPC  H11Y18668   1.145   3.168  15.179  1.4684  0.5070 -0.2603
  155DOPC  C31218669   1.054   3.018  15.056  0.2725  0.6966 -0.4345
  155DOPC  H12X18670   0.958   3.071  15.070 -0.4954 -1.0268  1.1611
  155DOPC  H12Y18671   1.031   2.910  15.049  0.4541  0.5348  1.0846
  155DOPC  C31318672   1.118   3.060  14.925 -0.0293  0.0966  0.8464
  155DOPC  H13X18673   1.150   3.166  14.932  0.3392  0.7253 -5.2212
  155DOPC  H13Y18674   1.194   2.988  14.889 -1.0529 -1.9669  2.5869
  155DOPC  C31418675   1.021   3.069  14.805 -0.6636  0.1156  0.5812
  155DOPC  H14X18676   0.919   3.085  14.846 -1.3175 -0.5350 -0.7287
  155DOPC  H14Y18677   1.046   3.149  14.733 -2.2630  0.5580  0.4747
  155DOPC  C31518678   1.032   2.937  14.727  0.2737 -0.0704 -0.4281
  155DOPC  H15X18679   1.036   2.863  14.810  1.3088 -0.7746 -1.0898
  155DOPC  H15Y18680   1.127   2.912  14.675  0.2097  0.3631 -0.7559
  155DOPC  C31618681   0.909   2.906  14.638  0.1883  0.0265  0.0370
  155DOPC  H16X18682   0.937   2.808  14.595  0.4910 -0.1898  0.7230
  155DOPC  H16Y18683   0.819   2.910  14.703 -0.4536  0.1040 -0.8331
  155DOPC  C31718684   0.882   3.017  14.534  0.0462 -0.3018  0.2323
  155DOPC  H17X18685   0.860   3.108  14.594 -2.1037  0.6171 -1.8053
  155DOPC  H17Y18686   0.974   3.042  14.477  0.3748  1.1853  1.3821
  155DOPC  C31818687   0.778   2.986  14.427 -0.2412  0.2253  0.7297
  155DOPC  H18X18688   0.774   3.063  14.347 -1.2103 -0.0353  0.5158
  155DOPC  H18Y18689   0.789   2.881  14.391 -1.1046  0.2166  0.4756
  155DOPC  H18Z18690   0.672   2.995  14.461 -0.5592  2.0980 -0.6138
  156DOPC     N18691   5.044   5.661  16.702 -0.7592  0.2006  0.6326
  156DOPC   C1218692   5.045   5.731  16.568  0.0900  0.3672 -0.0100
  156DOPC  H12A18693   5.118   5.683  16.505 -0.0361 -1.2309  0.9892
  156DOPC  H12B18694   5.079   5.834  16.578  0.0975  0.5210 -1.4106
  156DOPC   C1318695   5.180   5.662  16.765 -0.1854  0.2601  0.2406
  156DOPC  H13A18696   5.208   5.765  16.777  1.3846  0.0506 -1.3062
  156DOPC  H13B18697   5.182   5.605  16.857  0.6916  1.6038  1.0774
  156DOPC  H13C18698   5.254   5.611  16.706 -1.5869 -1.4388 -0.1172
  156DOPC   C1418699   5.008   5.517  16.683  0.0569  0.5437 -0.1208
  156DOPC  H14A18700   4.904   5.501  16.657  0.0276  1.6268 -0.7304
  156DOPC  H14B18701   5.070   5.463  16.613  1.2281  0.7330  0.7411
  156DOPC  H14C18702   5.019   5.457  16.772  0.0868 -0.2654 -0.6624
  156DOPC   C1518703   4.952   5.726  16.794 -0.0832  0.0309 -0.2669
  156DOPC  H15A18704   4.993   5.823  16.817  1.8000 -0.6019 -0.7638
  156DOPC  H15B18705   4.922   5.675  16.884 -3.1005 -2.2637 -2.3745
  156DOPC  H15C18706   4.858   5.739  16.743 -0.0763  0.3709 -0.1990
  156DOPC   C1118707   4.909   5.738  16.484  0.0421 -0.2090  0.4720
  156DOPC  H11A18708   4.928   5.786  16.386 -0.2728 -2.4167 -0.7256
  156DOPC  H11B18709   4.874   5.634  16.466  0.7242 -0.4627  0.5876
  156DOPC     P18710   4.734   5.928  16.505 -0.2577  0.3154  0.4855
  156DOPC   O1318711   4.780   6.051  16.572 -0.1042  0.0733 -0.3998
  156DOPC   O1418712   4.591   5.898  16.519  0.4086 -0.0985 -0.4304
  156DOPC   O1218713   4.806   5.803  16.556 -0.6831  0.7040 -0.0752
  156DOPC   O1118714   4.763   5.929  16.346  0.6484  0.2166 -0.3710
  156DOPC    C118715   4.705   6.029  16.269  0.5128  0.1664  0.2359
  156DOPC    HA18716   4.770   6.119  16.272 -0.7630  1.0952  1.0139
  156DOPC    HB18717   4.601   6.054  16.302 -0.2661 -3.2166  0.6977
  156DOPC    C218718   4.693   5.973  16.121  0.1576 -0.0763 -0.2458
  156DOPC    HS18719   4.619   5.891  16.129  0.3734 -0.2393  0.0787
  156DOPC   O2118720   4.822   5.932  16.076  0.0412  0.2834  0.2352
  156DOPC   C2118721   4.839   5.808  16.055  0.5757  0.8664  0.4646
  156DOPC   O2218722   4.770   5.712  16.089  0.1171 -0.7643  0.2667
  156DOPC   C2218723   4.964   5.791  15.969  0.4290  0.5499  0.0159
  156DOPC   H2R18724   5.037   5.747  16.040  0.1844  0.3732  0.1621
  156DOPC   H2S18725   5.006   5.892  15.948  0.4888  0.7995  1.2597
  156DOPC    C318726   4.638   6.088  16.034  0.5691  0.6704  0.1793
  156DOPC    HX18727   4.706   6.177  16.035 -1.2012  2.1097 -1.2475
  156DOPC    HY18728   4.537   6.115  16.071  0.6146  0.8053  0.2083
  156DOPC   O3118729   4.618   6.033  15.902 -0.2343  0.1482 -0.2199
  156DOPC   C3118730   4.579   6.124  15.812  0.2516 -0.0507 -0.8333
  156DOPC   O3218731   4.560   6.242  15.836  0.0491  0.6070  0.1289
  156DOPC   C3218732   4.557   6.053  15.678 -0.1201 -0.5391 -0.4231
  156DOPC   H2X18733   4.645   5.987  15.660 -1.1708 -1.3552 -2.9870
  156DOPC   H2Y18734   4.464   5.994  15.693 -0.5033  0.6567  2.9188
  156DOPC   C2318735   4.940   5.708  15.844  0.3541 -0.4356  0.9427
  156DOPC   H3R18736   4.851   5.640  15.841 -0.5603  0.6940  1.6935
  156DOPC   H3S18737   5.038   5.658  15.830  0.0127 -0.5944 -1.2810
  156DOPC   C2418738   4.913   5.803  15.720  0.6776  0.5580 -0.4044
  156DOPC   H4R18739   5.011   5.847  15.692  0.6026 -0.3338 -2.2185
  156DOPC   H4S18740   4.845   5.884  15.752 -0.3919 -0.0381 -1.1040
  156DOPC   C2518741   4.859   5.730  15.594  0.3647 -0.4107  0.0449
  156DOPC   H5R18742   4.749   5.721  15.599  0.0302  2.4528 -0.4147
  156DOPC   H5S18743   4.912   5.633  15.588  1.5049  0.2534 -1.0502
  156DOPC   C2618744   4.896   5.818  15.471  0.4964  0.0526 -0.0775
  156DOPC   H6R18745   5.004   5.807  15.445  0.0790 -3.3290 -0.9460
  156DOPC   H6S18746   4.887   5.924  15.503  0.4274 -0.4509  1.6884
  156DOPC   C2718747   4.816   5.783  15.344  0.3942  1.0250  0.8015
  156DOPC   H7R18748   4.709   5.805  15.367  0.0505 -0.2996  0.5444
  156DOPC   H7S18749   4.819   5.672  15.335 -0.4804  0.8869  1.9429
  156DOPC   C2818750   4.848   5.870  15.225 -0.1890  0.0842  0.8385
  156DOPC   H8R18751   4.835   5.969  15.274 -0.2441 -0.0952  1.1866
  156DOPC   H8S18752   4.775   5.874  15.141 -0.9543  2.0007  1.5296
  156DOPC   C2918753   4.984   5.845  15.174 -0.2352 -0.3429 -0.0954
  156DOPC   H9R18754   5.070   5.891  15.226 -0.7253  1.4182 -0.7795
  156DOPC  C21018755   5.004   5.762  15.070  0.1512  0.0173  0.3081
  156DOPC  H10R18756   5.106   5.756  15.028 -0.3746 -1.0338 -0.8749
  156DOPC  C21118757   4.908   5.690  14.984 -0.6501 -0.5778  0.1963
  156DOPC  H11R18758   4.817   5.685  15.048  0.2660  0.6076  1.6798
  156DOPC  H11S18759   4.951   5.590  14.961 -0.1545  0.3134 -3.2202
  156DOPC  C21218760   4.875   5.762  14.855  0.0671  0.2386  0.0239
  156DOPC  H12R18761   4.817   5.852  14.884 -1.3766 -0.4427 -0.6359
  156DOPC  H12S18762   4.796   5.702  14.804 -1.2109  0.8062  1.2612
  156DOPC  C21318763   4.994   5.797  14.765  0.5302  0.9393  0.2524
  156DOPC  H13R18764   5.085   5.830  14.820  1.6253 -1.6097  0.1117
  156DOPC  H13S18765   4.986   5.895  14.713 -0.4606  0.4593 -0.5284
  156DOPC  C21418766   5.025   5.692  14.662  0.1044  0.0989  0.0163
  156DOPC  H14R18767   4.955   5.712  14.578  1.1470  1.4794 -0.5524
  156DOPC  H14S18768   5.001   5.593  14.706 -2.1659  0.8090  0.5611
  156DOPC  C21518769   5.172   5.703  14.615  0.3664 -0.6187 -0.0873
  156DOPC  H15R18770   5.233   5.667  14.700 -1.2515 -2.3818  0.3833
  156DOPC  H15S18771   5.199   5.811  14.606 -0.6694 -0.2821  0.6233
  156DOPC  C21618772   5.205   5.623  14.488 -0.0387  0.0687 -0.8868
  156DOPC  H16R18773   5.122   5.644  14.417 -1.7193 -1.0929  0.6510
  156DOPC  H16S18774   5.192   5.515  14.508  1.1477 -0.2599 -1.7366
  156DOPC  C21718775   5.341   5.660  14.432 -0.3194 -0.4864  0.7458
  156DOPC  H17R18776   5.359   5.767  14.455  2.4035 -0.7339  0.1037
  156DOPC  H17S18777   5.329   5.661  14.321 -0.2363 -1.3227  0.7235
  156DOPC  C21818778   5.467   5.583  14.477  0.9578  0.4842 -0.3714
  156DOPC  H18R18779   5.560   5.636  14.450  0.5614  1.9451  1.0360
  156DOPC  H18S18780   5.462   5.476  14.445 -3.3809  0.1715  0.7024
  156DOPC  H18T18781   5.465   5.563  14.586  0.1567 -1.8017 -0.7377
  156DOPC   C3318782   4.547   6.152  15.562 -0.9851  0.1069 -0.0539
  156DOPC   H3X18783   4.613   6.238  15.587 -0.9850  0.4163 -1.0902
  156DOPC   H3Y18784   4.441   6.186  15.560 -0.8552  0.5165 -0.2024
  156DOPC   C3418785   4.586   6.091  15.424  0.5151 -0.3075 -0.6507
  156DOPC   H4X18786   4.582   5.980  15.427 -1.3472 -0.2649 -0.4365
  156DOPC   H4Y18787   4.695   6.108  15.411  0.5619  0.1933  0.2591
  156DOPC   C3518788   4.506   6.155  15.307 -0.3108  0.1769 -0.2696
  156DOPC   H5X18789   4.487   6.264  15.315 -1.6170  0.0248 -1.1392
  156DOPC   H5Y18790   4.410   6.101  15.317 -1.3384  2.0394  0.3004
  156DOPC   C3618791   4.585   6.140  15.176 -0.0594 -0.1496  0.2738
  156DOPC   H6X18792   4.669   6.213  15.186  1.3373 -1.7381  0.7362
  156DOPC   H6Y18793   4.613   6.033  15.163  0.2572 -0.1827  1.1799
  156DOPC   C3718794   4.505   6.200  15.062  0.1170  0.1907  0.2756
  156DOPC   H7X18795   4.436   6.116  15.036 -1.3427  0.7696  2.0779
  156DOPC   H7Y18796   4.452   6.288  15.103 -1.0762 -0.4333  0.1065
  156DOPC   C3818797   4.582   6.232  14.927 -0.2347  0.1230  0.3434
  156DOPC   H8X18798   4.669   6.296  14.953  0.7141 -0.4428 -1.3187
  156DOPC   H8Y18799   4.519   6.285  14.852 -0.2110 -0.9041 -0.4261
  156DOPC   C3918800   4.639   6.103  14.884 -0.7319  0.0337  0.0274
  156DOPC   H9X18801   4.705   6.066  14.965 -1.4747 -0.6000  0.3580
  156DOPC  C31018802   4.630   6.050  14.757 -0.0620 -0.0244 -0.4256
  156DOPC  H10X18803   4.677   5.951  14.745  0.5806 -0.3536  3.5841
  156DOPC  C31118804   4.553   6.109  14.640 -0.4040  0.3949 -0.3370
  156DOPC  H11X18805   4.510   6.208  14.667  0.5208  0.5181  0.7498
  156DOPC  H11Y18806   4.458   6.058  14.611 -0.7598  1.2406 -0.7019
  156DOPC  C31218807   4.637   6.117  14.509  0.5389  0.1851 -0.6451
  156DOPC  H12X18808   4.656   6.008  14.496  0.1999 -0.0158  0.4378
  156DOPC  H12Y18809   4.737   6.162  14.525  0.4731  0.2519 -0.4040
  156DOPC  C31318810   4.558   6.169  14.383  0.5560 -0.0396 -0.1500
  156DOPC  H13X18811   4.461   6.114  14.390  0.3590  0.0573 -1.8824
  156DOPC  H13Y18812   4.549   6.279  14.400  1.8015 -0.0744  0.9081
  156DOPC  C31418813   4.619   6.131  14.245  0.2452  0.2840 -0.2296
  156DOPC  H14X18814   4.709   6.194  14.229 -1.8864  4.3869  2.1360
  156DOPC  H14Y18815   4.634   6.021  14.240 -0.1771 -0.1549  3.9784
  156DOPC  C31518816   4.515   6.170  14.142 -0.9007 -0.0321 -0.5298
  156DOPC  H15X18817   4.514   6.281  14.145 -1.2911 -0.0441  1.3438
  156DOPC  H15Y18818   4.412   6.142  14.171 -0.1539 -1.0784  1.2983
  156DOPC  C31618819   4.570   6.129  14.009 -0.1787 -0.5176  0.0417
  156DOPC  H16X18820   4.676   6.164  14.010  0.0224 -1.0951  1.4909
  156DOPC  H16Y18821   4.577   6.018  14.001 -1.1823 -0.4771 -2.0596
  156DOPC  C31718822   4.490   6.176  13.886 -1.0770  0.2455  0.1907
  156DOPC  H17X18823   4.392   6.125  13.878 -0.3875 -1.7585  2.7789
  156DOPC  H17Y18824   4.482   6.286  13.900  1.6928  0.8097 -1.8043
  156DOPC  C31818825   4.556   6.144  13.749 -0.1466 -0.0234 -0.1152
  156DOPC  H18X18826   4.572   6.034  13.738  0.8130  0.2737 -1.9401
  156DOPC  H18Y18827   4.498   6.175  13.660  1.3241  2.5939 -0.2391
  156DOPC  H18Z18828   4.655   6.192  13.739 -0.1047 -0.1951 -0.5237
  157DOPC     N18829   4.772   2.261  17.106  0.3524  0.1917 -0.1862
  157DOPC   C1218830   4.672   2.237  17.001  0.7954  0.8290 -0.0830
  157DOPC  H12A18831   4.617   2.326  16.976 -0.9424 -0.6071 -1.6256
  157DOPC  H12B18832   4.598   2.165  17.032  2.0455 -0.6536 -0.3935
  157DOPC   C1318833   4.807   2.130  17.165  0.1146 -0.0342 -0.0262
  157DOPC  H13A18834   4.877   2.137  17.247  0.6006  2.6528 -0.5786
  157DOPC  H13B18835   4.721   2.072  17.196  0.7615 -1.2620 -0.4343
  157DOPC  H13C18836   4.847   2.073  17.083  2.9787  0.8388  0.6530
  157DOPC   C1418837   4.709   2.344  17.214  0.2407 -0.1954  0.3670
  157DOPC  H14A18838   4.766   2.353  17.305 -1.0053 -0.6673  1.2190
  157DOPC  H14B18839   4.688   2.443  17.178 -0.1647 -1.1522 -2.2324
  157DOPC  H14C18840   4.612   2.304  17.241  0.6670  0.5954  3.3566
  157DOPC   C1518841   4.897   2.329  17.043 -0.2053 -0.1868  0.2678
  157DOPC  H15A18842   4.949   2.240  17.012 -2.0869 -1.2050 -0.1542
  157DOPC  H15B18843   4.957   2.372  17.122  2.0304 -0.6724 -1.0827
  157DOPC  H15C18844   4.876   2.399  16.963  0.8303 -0.9274 -0.6847
  157DOPC   C1118845   4.730   2.183  16.866  0.3104  0.3288  0.3773
  157DOPC  H11A18846   4.653   2.182  16.787 -0.3379 -0.2491  1.0011
  157DOPC  H11B18847   4.809   2.246  16.820  0.6479 -0.0186  0.4716
  157DOPC     P18848   4.693   1.926  16.894  0.0462  0.2133 -0.3557
  157DOPC   O1318849   4.640   1.907  17.030 -0.0354  0.7035 -0.2840
  157DOPC   O1418850   4.784   1.821  16.842  0.5095  0.3372 -0.0854
  157DOPC   O1218851   4.776   2.054  16.891 -0.2278 -0.2706 -0.7376
  157DOPC   O1118852   4.580   1.950  16.793 -0.0361  0.2153  0.1140
  157DOPC    C118853   4.531   1.838  16.711 -0.1289  0.1062  0.2985
  157DOPC    HA18854   4.425   1.855  16.683  0.3255  2.4717 -0.2506
  157DOPC    HB18855   4.540   1.738  16.758 -0.3212 -0.3170 -0.5510
  157DOPC    C218856   4.603   1.826  16.571 -0.4428 -0.1895 -0.6310
  157DOPC    HS18857   4.711   1.815  16.593 -0.3421  0.6173 -0.6873
  157DOPC   O2118858   4.576   1.943  16.499  0.3161  0.4522 -0.6831
  157DOPC   C2118859   4.677   2.004  16.451 -0.3942 -0.6540 -0.2276
  157DOPC   O2218860   4.794   1.978  16.475 -0.2771 -0.4307  0.0570
  157DOPC   C2218861   4.630   2.114  16.358 -0.0870 -0.2570 -0.4886
  157DOPC   H2R18862   4.678   2.211  16.387 -1.1384  1.2519 -3.4026
  157DOPC   H2S18863   4.521   2.132  16.350 -0.2626 -1.3102 -0.4811
  157DOPC    C318864   4.557   1.711  16.472  0.8393 -0.4277 -0.5286
  157DOPC    HX18865   4.462   1.735  16.420  2.2234  1.3653 -2.3429
  157DOPC    HY18866   4.543   1.616  16.528  0.3844  0.9983  1.9278
  157DOPC   O3118867   4.647   1.696  16.366  0.2511  0.8379  0.3595
  157DOPC   C3118868   4.731   1.590  16.383  0.3201 -0.0612 -0.1292
  157DOPC   O3218869   4.726   1.505  16.470  0.5702  0.1601  0.3215
  157DOPC   C3218870   4.843   1.601  16.280 -0.0896 -0.4946 -0.1984
  157DOPC   H2X18871   4.801   1.657  16.195  0.4472 -0.2177 -0.2821
  157DOPC   H2Y18872   4.929   1.657  16.324  0.7497 -0.3411 -1.9643
  157DOPC   C2318873   4.676   2.085  16.214  0.1320 -0.5561  0.0318
  157DOPC   H3R18874   4.785   2.068  16.217  0.3411  0.8546  0.9640
  157DOPC   H3S18875   4.661   2.173  16.147  1.2233 -0.4093 -0.0399
  157DOPC   C2418876   4.614   1.966  16.139  0.4051 -0.0659 -0.6267
  157DOPC   H4R18877   4.507   1.997  16.135  0.3795  0.2715  1.4584
  157DOPC   H4S18878   4.633   1.864  16.177 -0.6196  0.7586  2.4021
  157DOPC   C2518879   4.667   1.983  15.992 -0.0019 -0.9004 -0.6746
  157DOPC   H5R18880   4.771   1.945  15.986  0.0830 -0.5158 -1.9909
  157DOPC   H5S18881   4.673   2.090  15.961  3.9506 -0.5662  0.7102
  157DOPC   C2618882   4.596   1.896  15.885 -0.6545  0.1951  0.4216
  157DOPC   H6R18883   4.489   1.920  15.902 -0.2870  1.6294  0.8682
  157DOPC   H6S18884   4.611   1.788  15.907  1.3371  0.7224  2.0011
  157DOPC   C2718885   4.629   1.923  15.737  0.8490 -0.0454 -1.2469
  157DOPC   H7R18886   4.622   2.033  15.723  0.0455  0.2318  1.0038
  157DOPC   H7S18887   4.546   1.884  15.673  0.7544 -0.7479 -0.7150
  157DOPC   C2818888   4.768   1.873  15.693  0.9044  0.3099 -0.0379
  157DOPC   H8R18889   4.844   1.924  15.756  2.4133 -2.4040  0.5183
  157DOPC   H8S18890   4.773   1.921  15.593 -0.9256  0.1662 -0.2232
  157DOPC   C2918891   4.779   1.726  15.704 -0.6474  0.1596  0.0345
  157DOPC   H9R18892   4.773   1.698  15.810 -1.7443  0.7657  0.1450
  157DOPC  C21018893   4.763   1.639  15.604 -0.5043 -0.1031 -0.0864
  157DOPC  H10R18894   4.776   1.533  15.630 -1.7722 -0.1205  0.5246
  157DOPC  C21118895   4.723   1.662  15.462  0.0913  0.4260  0.3830
  157DOPC  H11R18896   4.656   1.750  15.448 -1.9716 -1.0798  0.2847
  157DOPC  H11S18897   4.665   1.574  15.425 -0.0751  0.9528 -0.6488
  157DOPC  C21218898   4.847   1.641  15.375 -0.6257 -0.4102 -0.1121
  157DOPC  H12R18899   4.895   1.543  15.398  1.7233  0.8262  0.5453
  157DOPC  H12S18900   4.907   1.728  15.408  1.8288 -0.9744 -2.7223
  157DOPC  C21318901   4.815   1.643  15.226  0.6224  0.0123 -0.6580
  157DOPC  H13R18902   4.771   1.741  15.199  1.1451  0.7650  1.0403
  157DOPC  H13S18903   4.745   1.559  15.207  0.0587  0.1367  0.7218
  157DOPC  C21418904   4.940   1.621  15.131  0.8051  0.1423 -0.3206
  157DOPC  H14R18905   4.996   1.526  15.148  1.9180  0.7699 -0.3831
  157DOPC  H14S18906   5.010   1.704  15.154 -0.6672  0.9601  1.4180
  157DOPC  C21518907   4.900   1.635  14.985  0.6072 -0.1059 -0.2199
  157DOPC  H15R18908   4.855   1.735  14.967  1.2132  0.3801  0.8522
  157DOPC  H15S18909   4.824   1.558  14.963 -1.2752  0.5918  3.1717
  157DOPC  C21618910   5.014   1.603  14.886  0.3139 -0.1465  0.0060
  157DOPC  H16R18911   4.963   1.609  14.788  0.1010  1.2747  0.1779
  157DOPC  H16S18912   5.050   1.500  14.907 -0.8270 -0.6320 -0.3549
  157DOPC  C21718913   5.128   1.703  14.896  0.3143  0.4915 -0.7921
  157DOPC  H17R18914   5.170   1.711  14.998 -0.2392 -1.3475 -0.3874
  157DOPC  H17S18915   5.089   1.805  14.871 -0.8766  1.2777  3.5212
  157DOPC  C21818916   5.245   1.666  14.801 -0.3075  0.0808  0.0939
  157DOPC  H18R18917   5.301   1.581  14.845 -0.0966  0.6384  0.9246
  157DOPC  H18S18918   5.302   1.759  14.778 -1.5626  0.8854  0.1741
  157DOPC  H18T18919   5.207   1.625  14.705 -0.1071 -2.5530  1.0792
  157DOPC   C3318920   4.894   1.463  16.243 -0.1894 -0.5486 -0.3498
  157DOPC   H3X18921   4.814   1.408  16.189 -1.0657 -0.2026  0.5645
  157DOPC   H3Y18922   4.905   1.414  16.342 -2.2738  2.1609  1.3471
  157DOPC   C3418923   5.027   1.475  16.167 -0.0488 -0.2606  0.0836
  157DOPC   H4X18924   5.090   1.545  16.226 -1.3339  0.7975  0.2597
  157DOPC   H4Y18925   5.008   1.514  16.065 -1.6397 -3.8003 -1.1389
  157DOPC   C3518926   5.098   1.347  16.140 -0.0274  0.1947 -0.6201
  157DOPC   H5X18927   5.030   1.260  16.129  0.2918 -0.3968  1.5411
  157DOPC   H5Y18928   5.157   1.310  16.226 -1.1879 -1.1331 -0.3652
  157DOPC   C3618929   5.186   1.352  16.015 -0.1738 -0.7633 -0.9234
  157DOPC   H6X18930   5.232   1.453  16.020 -0.7098 -0.5377 -0.4583
  157DOPC   H6Y18931   5.262   1.271  16.012  1.3144  0.6007 -1.8839
  157DOPC   C3718932   5.095   1.352  15.893  0.6770  0.3194 -0.4839
  157DOPC   H7X18933   5.002   1.293  15.907 -0.1301  1.2630 -1.6704
  157DOPC   H7Y18934   5.059   1.457  15.896 -0.2327  0.0464  3.0398
  157DOPC   C3818935   5.164   1.317  15.763  0.1000 -0.3579  0.5560
  157DOPC   H8X18936   5.088   1.318  15.682  2.4386  2.0538 -1.8356
  157DOPC   H8Y18937   5.189   1.209  15.769  0.3389 -0.5135 -2.1175
  157DOPC   C3918938   5.285   1.406  15.741  0.0406  0.4254  0.4808
  157DOPC   H9X18939   5.355   1.423  15.824  0.2181 -0.6297  0.5576
  157DOPC  C31018940   5.328   1.447  15.622  0.2107 -0.4061  0.1108
  157DOPC  H10X18941   5.423   1.501  15.611  0.1105 -0.2787 -0.1268
  157DOPC  C31118942   5.256   1.431  15.495 -0.2548 -0.0239  0.3032
  157DOPC  H11X18943   5.260   1.525  15.435  0.0703 -0.6344 -0.6580
  157DOPC  H11Y18944   5.146   1.414  15.507 -1.0394  3.0713 -1.3516
  157DOPC  C31218945   5.326   1.324  15.405  0.3143 -0.3355 -0.9773
  157DOPC  H12X18946   5.280   1.225  15.427 -0.2764  0.0281 -0.5608
  157DOPC  H12Y18947   5.437   1.329  15.404  0.3391  1.0547 -3.9579
  157DOPC  C31318948   5.284   1.343  15.257  0.3356 -0.2988 -0.5182
  157DOPC  H13X18949   5.186   1.294  15.241  0.4786 -0.9291  0.4813
  157DOPC  H13Y18950   5.294   1.452  15.239  1.6221 -0.4366 -0.7571
  157DOPC  C31418951   5.380   1.284  15.154 -0.0217 -0.1247  0.5515
  157DOPC  H14X18952   5.481   1.330  15.155 -0.9001  1.9040  1.5280
  157DOPC  H14Y18953   5.396   1.176  15.171 -0.0703 -0.0388  1.1800
  157DOPC  C31518954   5.322   1.300  15.011  0.3993  0.0154  0.5215
  157DOPC  H15X18955   5.305   1.408  14.991  0.0020  0.7966  4.3653
  157DOPC  H15Y18956   5.217   1.264  15.013 -0.4269  1.9767 -1.7466
  157DOPC  C31618957   5.389   1.232  14.894  0.1502  0.0020 -0.1228
  157DOPC  H16X18958   5.496   1.250  14.917  0.1587  2.0651 -1.4831
  157DOPC  H16Y18959   5.378   1.122  14.891  0.3171  0.0009 -1.7244
  157DOPC  C31718960   5.371   1.299  14.755 -1.0263  0.0966  0.6391
  157DOPC  H17X18961   5.270   1.287  14.710 -1.2437  2.2888  0.4266
  157DOPC  H17Y18962   5.379   1.410  14.762  0.1372  0.2415 -2.0575
  157DOPC  C31818963   5.466   1.263  14.638 -0.0004 -0.1277  0.2346
  157DOPC  H18X18964   5.461   1.161  14.595  1.4117  1.0787 -3.0633
  157DOPC  H18Y18965   5.441   1.325  14.550  1.4414 -0.6626 -0.5691
  157DOPC  H18Z18966   5.569   1.299  14.660  0.1239 -0.9463  1.0466
  158DOPC     N18967   2.346   0.019  17.125  0.1165  0.2276  0.3251
  158DOPC   C1218968   2.369   0.041  16.979  0.4359  0.7293  0.2174
  158DOPC  H12A18969   2.284   0.088  16.934  0.6313  1.2868  0.4269
  158DOPC  H12B18970   2.376  -0.056  16.930  1.8108  0.4911  0.8230
  158DOPC   C1318971   2.325   0.140  17.208 -0.7047  1.5192 -0.2484
  158DOPC  H13A18972   2.328   0.108  17.311 -0.8475 -0.9971 -0.9650
  158DOPC  H13B18973   2.408   0.205  17.183 -0.8781  0.1720 -5.6559
  158DOPC  H13C18974   2.227   0.184  17.206 -1.7893 -0.7331  0.7987
  158DOPC   C1418975   2.442  -0.068  17.197 -0.2616  0.7128  0.2682
  158DOPC  H14A18976   2.400  -0.120  17.281  0.1701 -0.7104 -0.3548
  158DOPC  H14B18977   2.487  -0.141  17.131  0.1569 -0.0139  1.3263
  158DOPC  H14C18978   2.527  -0.014  17.235  0.2636 -0.1798  0.4082
  158DOPC   C1518979   2.217  -0.059  17.124  0.8528  0.4617  0.0212
  158DOPC  H15A18980   2.195  -0.101  17.221 -0.4739  0.7652 -0.1247
  158DOPC  H15B18981   2.222  -0.142  17.055  2.6759 -1.1351  1.9286
  158DOPC  H15C18982   2.140   0.015  17.108 -0.2533 -0.6453  0.0673
  158DOPC   C1118983   2.492   0.107  16.930  0.2827  0.5729 -0.2637
  158DOPC  H11A18984   2.585   0.049  16.944  0.4947  1.1810  1.0696
  158DOPC  H11B18985   2.469   0.117  16.822 -1.0052 -1.1534 -0.1906
  158DOPC     P18986   2.414   0.356  16.953  0.2047  0.4122 -0.0337
  158DOPC   O1318987   2.411   0.445  17.070  0.4574  0.2279 -0.1125
  158DOPC   O1418988   2.289   0.302  16.894 -0.0758 -0.4334  0.3408
  158DOPC   O1218989   2.505   0.229  16.993  0.5153 -0.4506 -0.5196
  158DOPC   O1118990   2.509   0.424  16.842  1.2035  0.4532  0.7186
  158DOPC    C118991   2.521   0.554  16.789  0.5380 -0.0046 -0.2550
  158DOPC    HA18992   2.622   0.575  16.749 -1.0284 -0.2611 -4.9913
  158DOPC    HB18993   2.491   0.623  16.871 -1.4641 -0.3794 -0.6020
  158DOPC    C218994   2.444   0.572  16.659  0.1722  0.8286  0.0282
  158DOPC    HS18995   2.341   0.534  16.678 -0.0599  1.2042 -0.4443
  158DOPC   O2118996   2.519   0.507  16.551  0.2465 -0.1945 -0.3475
  158DOPC   C2118997   2.445   0.443  16.458 -0.2710  0.0649 -0.2089
  158DOPC   O2218998   2.321   0.445  16.453 -0.3277 -0.3945  0.4346
  158DOPC   C2218999   2.542   0.358  16.377  0.0723 -0.5966 -0.7158
  158DOPC   H2R19000   2.492   0.260  16.364 -1.1093 -0.4732  2.0907
  158DOPC   H2S19001   2.636   0.338  16.432 -0.7212  0.0973  0.9934
  158DOPC    C319002   2.431   0.717  16.624 -0.1378 -0.7655 -0.2628
  158DOPC    HX19003   2.531   0.764  16.629  0.0669 -1.3714  2.7222
  158DOPC    HY19004   2.370   0.759  16.707  0.6814 -2.4347  1.2420
  158DOPC   O3119005   2.359   0.742  16.499  0.0487 -0.4049 -0.0091
  158DOPC   C3119006   2.227   0.719  16.502 -0.0418 -0.8965  0.4523
  158DOPC   O3219007   2.164   0.690  16.600  0.4606  0.1656 -0.4494
  158DOPC   C3219008   2.166   0.730  16.356 -0.1413 -0.8705 -0.3218
  158DOPC   H2X19009   2.218   0.655  16.292 -1.0184 -0.9390 -0.9680
  158DOPC   H2Y19010   2.056   0.721  16.360 -0.3304  1.2789  0.5039
  158DOPC   C2319011   2.569   0.437  16.240 -0.5527  0.5151  0.0431
  158DOPC   H3R19012   2.658   0.388  16.196 -1.3284 -2.1115  1.2195
  158DOPC   H3S19013   2.586   0.544  16.264  1.0118  0.1879  0.5167
  158DOPC   C2419014   2.453   0.440  16.142 -1.3636 -0.1334  0.6422
  158DOPC   H4R19015   2.359   0.467  16.196 -1.1726 -0.2948  1.0552
  158DOPC   H4S19016   2.436   0.336  16.108  1.0225 -0.4291  0.2157
  158DOPC   C2519017   2.476   0.538  16.024  0.5246 -0.1925  0.6380
  158DOPC   H5R19018   2.568   0.519  15.966  0.7094  2.2033  0.0745
  158DOPC   H5S19019   2.488   0.643  16.056  3.2680 -0.1056 -0.3922
  158DOPC   C2619020   2.369   0.524  15.918  0.1046  0.2931 -0.6610
  158DOPC   H6R19021   2.268   0.557  15.950 -0.3812 -0.7262 -1.0769
  158DOPC   H6S19022   2.359   0.413  15.913 -1.1721  0.4064 -0.9666
  158DOPC   C2719023   2.404   0.603  15.785 -0.4419  0.4709 -0.3748
  158DOPC   H7R19024   2.474   0.686  15.807  0.8350 -0.8170  0.6223
  158DOPC   H7S19025   2.306   0.649  15.759 -1.0726 -1.1471 -0.9899
  158DOPC   C2819026   2.451   0.509  15.674  0.2850  0.4113 -0.5111
  158DOPC   H8R19027   2.361   0.451  15.648  0.9312  0.0895 -2.1475
  158DOPC   H8S19028   2.532   0.447  15.718  1.0949  2.2580  0.7810
  158DOPC   C2919029   2.509   0.593  15.561  0.1740  0.3041  0.3197
  158DOPC   H9R19030   2.534   0.694  15.594 -0.3279 -0.3310  2.8848
  158DOPC  C21019031   2.500   0.569  15.429  0.1693 -0.3115  0.2146
  158DOPC  H10R19032   2.538   0.641  15.354  0.5349 -1.8717 -1.1472
  158DOPC  C21119033   2.440   0.449  15.361  0.0710  0.0900 -1.4927
  158DOPC  H11R19034   2.371   0.402  15.434  0.3359 -0.8016 -1.8154
  158DOPC  H11S19035   2.519   0.376  15.336  0.4455  0.8045 -2.4482
  158DOPC  C21219036   2.374   0.478  15.220  0.3559 -0.2827 -0.1316
  158DOPC  H12R19037   2.322   0.574  15.240  0.1731 -0.6898  1.4724
  158DOPC  H12S19038   2.289   0.411  15.197  1.7667 -1.0303 -3.8773
  158DOPC  C21319039   2.473   0.505  15.110 -0.0066 -0.2528 -0.3550
  158DOPC  H13R19040   2.554   0.430  15.101  0.0557 -0.3139  0.6011
  158DOPC  H13S19041   2.523   0.600  15.136 -1.6978  0.8671 -1.0059
  158DOPC  C21419042   2.410   0.509  14.968 -1.1418 -0.5950  0.0922
  158DOPC  H14R19043   2.469   0.570  14.895 -2.0199 -0.1115 -0.2322
  158DOPC  H14S19044   2.323   0.577  14.975  1.4363  2.9019  1.1620
  158DOPC  C21519045   2.394   0.372  14.911 -0.0864 -0.7231  0.0372
  158DOPC  H15R19046   2.380   0.295  14.989  0.8668 -0.4362  0.5044
  158DOPC  H15S19047   2.485   0.339  14.856 -0.6284  1.1957 -2.1823
  158DOPC  C21619048   2.278   0.371  14.808  0.8411  0.4131  0.0503
  158DOPC  H16R19049   2.314   0.418  14.714 -0.1704 -0.0719 -0.6014
  158DOPC  H16S19050   2.189   0.427  14.843  1.1111  0.2591  1.0112
  158DOPC  C21719051   2.236   0.232  14.751 -0.5138 -0.1270 -0.6618
  158DOPC  H17R19052   2.132   0.248  14.717 -1.2975 -0.4998  1.4757
  158DOPC  H17S19053   2.232   0.169  14.842 -0.6185  0.3054 -0.3642
  158DOPC  C21819054   2.325   0.180  14.636 -0.0332 -0.1043 -0.5052
  158DOPC  H18R19055   2.431   0.176  14.670 -0.2575 -2.6667  0.0825
  158DOPC  H18S19056   2.325   0.257  14.556 -1.1893  0.3516 -0.0789
  158DOPC  H18T19057   2.319   0.073  14.606  0.7141  0.3639 -2.4349
  158DOPC   C3319058   2.200   0.867  16.298 -0.0300 -0.9849 -0.5348
  158DOPC   H3X19059   2.309   0.888  16.295 -0.4708  1.8843  0.1520
  158DOPC   H3Y19060   2.166   0.949  16.366  0.4361 -0.5056 -0.8660
  158DOPC   C3419061   2.129   0.896  16.165 -0.2184  0.0947 -0.2938
  158DOPC   H4X19062   2.023   0.919  16.189 -0.0178  0.1535  0.5888
  158DOPC   H4Y19063   2.131   0.794  16.120  2.6068 -0.7392  1.4465
  158DOPC   C3519064   2.202   0.994  16.075  0.1720  0.1951 -0.2507
  158DOPC   H5X19065   2.308   0.967  16.057 -0.6566 -1.9163 -2.3949
  158DOPC   H5Y19066   2.221   1.090  16.128 -0.7402 -0.3631  1.1656
  158DOPC   C3619067   2.124   0.998  15.938 -0.4925  0.1248 -0.3680
  158DOPC   H6X19068   2.108   0.893  15.906  0.4890 -0.2036  0.1804
  158DOPC   H6Y19069   2.025   1.043  15.963 -1.4325 -1.7966 -0.5106
  158DOPC   C3719070   2.207   1.082  15.845  0.3327 -0.3248 -1.0118
  158DOPC   H7X19071   2.227   1.186  15.881 -0.1026 -0.9180  1.0876
  158DOPC   H7Y19072   2.297   1.024  15.817 -1.4903 -3.4386 -0.9434
  158DOPC   C3819073   2.131   1.088  15.709 -0.1470  0.5386 -0.4215
  158DOPC   H8X19074   2.192   1.150  15.641  3.5978 -2.1271  0.1702
  158DOPC   H8Y19075   2.028   1.126  15.722 -0.0754  1.7348 -2.9225
  158DOPC   C3919076   2.105   0.953  15.644 -0.2308  0.1446  0.1452
  158DOPC   H9X19077   2.030   0.888  15.692  0.9898 -1.2904  0.2010
  158DOPC  C31019078   2.182   0.902  15.546 -0.0470 -0.1260  0.7766
  158DOPC  H10X19079   2.141   0.810  15.502 -0.5233 -0.5405  2.0251
  158DOPC  C31119080   2.304   0.969  15.478 -0.5202 -0.0753 -0.7084
  158DOPC  H11X19081   2.383   0.968  15.556 -2.1776 -0.5764  1.0279
  158DOPC  H11Y19082   2.299   1.077  15.452  1.1857 -0.3779 -2.5555
  158DOPC  C31219083   2.348   0.909  15.345  0.5798 -0.0374  0.5250
  158DOPC  H12X19084   2.318   0.803  15.336 -0.9292  0.4975 -1.2571
  158DOPC  H12Y19085   2.456   0.911  15.319 -0.1826 -0.4830 -3.2339
  158DOPC  C31319086   2.269   0.977  15.225  0.2005  1.1163  0.4566
  158DOPC  H13X19087   2.161   0.984  15.248 -0.6007  1.6892 -2.9545
  158DOPC  H13Y19088   2.301   1.083  15.215 -1.5732  1.7983  1.5543
  158DOPC  C31419089   2.302   0.916  15.083  0.2903  0.5150 -0.4048
  158DOPC  H14X19090   2.408   0.937  15.057  0.9900 -3.2436 -1.1820
  158DOPC  H14Y19091   2.283   0.807  15.086 -0.9808  0.7302  0.1138
  158DOPC  C31519092   2.213   0.981  14.980  0.5410  0.0936  0.7383
  158DOPC  H15X19093   2.219   1.091  14.991  1.9521  0.3308 -1.7399
  158DOPC  H15Y19094   2.107   0.950  14.998  0.4953  0.5391  1.2897
  158DOPC  C31619095   2.260   0.964  14.838  0.2545  0.8724 -0.4558
  158DOPC  H16X19096   2.237   1.055  14.779 -0.1506  0.8268 -0.3703
  158DOPC  H16Y19097   2.371   0.958  14.839  0.2299  0.5067  0.6885
  158DOPC  C31719098   2.211   0.834  14.770  0.0821  0.5806 -0.0075
  158DOPC  H17X19099   2.251   0.746  14.824  0.7176  1.4881  1.0352
  158DOPC  H17Y19100   2.102   0.827  14.791  0.2310 -0.1120  0.5484
  158DOPC  C31819101   2.235   0.823  14.617  0.0228 -0.3427  0.1064
  158DOPC  H18X19102   2.181   0.731  14.585 -1.6580  0.5193  0.3906
  158DOPC  H18Y19103   2.193   0.911  14.564  1.9579 -0.5724 -1.9687
  158DOPC  H18Z19104   2.346   0.825  14.611 -0.0147  0.7538 -0.3712
  159DOPC     N19105   5.563   2.577  17.132 -0.0595  0.2097 -0.1838
  159DOPC   C1219106   5.460   2.491  17.212  0.1295 -0.8385  0.6664
  159DOPC  H12A19107   5.359   2.529  17.202  0.1154 -0.4492  2.1384
  159DOPC  H12B19108   5.486   2.501  17.316  0.7654  1.1153  0.3576
  159DOPC   C1319109   5.694   2.502  17.141 -0.8557  0.1590 -0.5128
  159DOPC  H13A19110   5.780   2.563  17.119  0.7096 -1.4175  0.9154
  159DOPC  H13B19111   5.711   2.457  17.238  2.5485 -1.1011 -1.5536
  159DOPC  H13C19112   5.700   2.418  17.073  0.3173  0.1736 -0.4445
  159DOPC   C1419113   5.566   2.708  17.200 -0.5648  0.1759  0.4595
  159DOPC  H14A19114   5.604   2.697  17.300  3.5090  1.4571 -0.7344
  159DOPC  H14B19115   5.643   2.771  17.156  0.8429 -0.0967  2.4091
  159DOPC  H14C19116   5.479   2.770  17.189 -0.2719  0.2162 -2.3519
  159DOPC   C1519117   5.531   2.597  16.986 -0.1977  0.0854 -0.0927
  159DOPC  H15A19118   5.443   2.657  16.969 -0.2402 -0.1417 -0.6785
  159DOPC  H15B19119   5.520   2.499  16.943  1.6902 -0.1062 -0.2289
  159DOPC  H15C19120   5.608   2.644  16.925 -0.1893  0.7275  0.3929
  159DOPC   C1119121   5.450   2.341  17.185  0.3832 -0.3895  0.3612
  159DOPC  H11A19122   5.541   2.295  17.228 -0.1529 -0.9289  0.9414
  159DOPC  H11B19123   5.370   2.299  17.249  1.2032 -1.2531  0.8411
  159DOPC     P19124   5.519   2.223  16.963  0.1168  0.0498 -0.1358
  159DOPC   O1319125   5.533   2.093  17.031  0.3546 -0.3301  0.4276
  159DOPC   O1419126   5.644   2.299  16.929 -0.4211 -0.3731  0.2047
  159DOPC   O1219127   5.421   2.314  17.054  0.6581  0.0062 -0.1049
  159DOPC   O1119128   5.436   2.208  16.832 -0.4361  0.0871  0.2945
  159DOPC    C119129   5.484   2.125  16.722  0.0892 -0.1887 -0.1653
  159DOPC    HA19130   5.440   2.023  16.722  0.6491 -0.4432 -1.3633
  159DOPC    HB19131   5.594   2.110  16.727  0.1195 -1.7890 -3.2576
  159DOPC    C219132   5.449   2.185  16.580  0.0677 -0.1342 -0.0275
  159DOPC    HS19133   5.489   2.288  16.574 -1.3993  0.4073 -1.3483
  159DOPC   O2119134   5.310   2.205  16.568 -0.0276  0.1009 -0.3640
  159DOPC   C2119135   5.230   2.104  16.544 -0.0450  0.4107  0.0788
  159DOPC   O2219136   5.256   1.984  16.541  0.6729  0.6277  0.0420
  159DOPC   C2219137   5.090   2.164  16.523 -0.4791  0.3423 -0.1892
  159DOPC   H2R19138   5.071   2.212  16.621  0.1763  1.4367 -0.5801
  159DOPC   H2S19139   5.023   2.077  16.505  0.4378 -0.3668 -0.2765
  159DOPC    C319140   5.521   2.103  16.464  0.7353 -0.0841 -0.1312
  159DOPC    HX19141   5.478   2.001  16.461 -1.1226  0.5466  1.8684
  159DOPC    HY19142   5.629   2.100  16.488  0.6007 -1.1933  0.3997
  159DOPC   O3119143   5.514   2.170  16.337 -0.0971 -0.2936 -0.3984
  159DOPC   C3119144   5.536   2.100  16.232  0.4474 -0.3157  0.7981
  159DOPC   O3219145   5.564   1.983  16.232 -0.1641 -0.2202 -0.4821
  159DOPC   C3219146   5.507   2.182  16.102 -0.5464  0.0474  0.2521
  159DOPC   H2X19147   5.401   2.214  16.107 -0.1878  1.6282 -1.0828
  159DOPC   H2Y19148   5.569   2.274  16.113  0.7260 -0.6510 -0.7195
  159DOPC   C2319149   5.081   2.267  16.410 -0.1214  0.0469 -0.1463
  159DOPC   H3R19150   5.143   2.355  16.438  0.9548 -0.6312 -0.3423
  159DOPC   H3S19151   4.979   2.311  16.409 -0.5480 -0.9185 -0.1616
  159DOPC   C2419152   5.110   2.215  16.268 -0.2095 -0.7841  0.1720
  159DOPC   H4R19153   5.077   2.109  16.268  1.8736 -1.4720 -0.2847
  159DOPC   H4S19154   5.220   2.220  16.258 -0.3197 -0.7482 -1.2286
  159DOPC   C2519155   5.032   2.291  16.158 -0.5604 -0.1116 -0.3418
  159DOPC   H5R19156   5.049   2.401  16.158 -0.2130 -0.1559 -1.0171
  159DOPC   H5S19157   4.926   2.262  16.173 -0.0528 -1.3039  1.0518
  159DOPC   C2619158   5.069   2.254  16.016  0.2387  0.3892 -0.5026
  159DOPC   H6R19159   5.082   2.145  15.996 -3.6378 -0.3782  0.3148
  159DOPC   H6S19160   5.162   2.308  15.990  0.5364  0.1122 -0.0357
  159DOPC   C2719161   4.959   2.281  15.903  0.0199 -0.0202 -0.5997
  159DOPC   H7R19162   4.960   2.391  15.891  1.5098 -0.0446 -0.9348
  159DOPC   H7S19163   4.864   2.229  15.930  1.6116 -2.1128  1.4380
  159DOPC   C2819164   5.006   2.225  15.768 -0.4349 -0.2642 -0.0560
  159DOPC   H8R19165   4.926   2.249  15.695  0.7988  0.6436 -1.1492
  159DOPC   H8S19166   5.015   2.115  15.783  0.9401 -0.3404 -1.2376
  159DOPC   C2919167   5.137   2.267  15.700  0.6076 -0.0202 -0.6861
  159DOPC   H9R19168   5.218   2.282  15.772 -0.7732  3.0728  0.3656
  159DOPC  C21019169   5.161   2.273  15.565 -0.2829 -0.6224  0.8045
  159DOPC  H10R19170   5.261   2.308  15.533 -0.2874 -1.1992  0.1398
  159DOPC  C21119171   5.063   2.255  15.457  0.4112 -0.3671  0.1368
  159DOPC  H11R19172   4.999   2.165  15.464 -1.6988  0.8945 -1.6137
  159DOPC  H11S19173   5.117   2.236  15.362  2.7796  0.2367  1.2635
  159DOPC  C21219174   4.991   2.388  15.435  0.0777  0.1058 -0.0420
  159DOPC  H12R19175   4.965   2.439  15.530  2.4045  1.7410 -0.1734
  159DOPC  H12S19176   4.896   2.358  15.386 -0.9554  4.0879 -0.8086
  159DOPC  C21319177   5.065   2.498  15.348  0.3958  0.1181 -0.6069
  159DOPC  H13R19178   5.137   2.553  15.412 -0.4075  1.7981 -1.0856
  159DOPC  H13S19179   5.000   2.580  15.312 -1.4376 -1.4354 -1.0408
  159DOPC  C21419180   5.137   2.442  15.223  0.2113 -0.2676  0.1599
  159DOPC  H14R19181   5.068   2.381  15.161  0.6377 -0.3916 -0.1989
  159DOPC  H14S19182   5.222   2.380  15.258  0.7974 -0.2417 -1.1427
  159DOPC  C21519183   5.186   2.556  15.136 -0.3775  0.0860 -0.3043
  159DOPC  H15R19184   5.278   2.602  15.179  0.9140 -3.5079  1.1464
  159DOPC  H15S19185   5.106   2.632  15.143  1.3248  1.9972 -0.6165
  159DOPC  C21619186   5.209   2.516  14.994 -0.1241 -0.1474 -0.4153
  159DOPC  H16R19187   5.192   2.609  14.937 -1.3165 -1.1102 -1.6793
  159DOPC  H16S19188   5.134   2.440  14.964 -0.4519 -1.4577  3.1419
  159DOPC  C21719189   5.349   2.464  14.954 -0.6292  0.3608 -0.1870
  159DOPC  H17R19190   5.398   2.396  15.028  3.6381 -0.0550 -3.0224
  159DOPC  H17S19191   5.424   2.546  14.959 -0.7063  0.5512 -1.6510
  159DOPC  C21819192   5.350   2.409  14.816 -0.2051 -0.4003  0.5923
  159DOPC  H18R19193   5.304   2.488  14.753  2.3781  2.0918  1.6155
  159DOPC  H18S19194   5.287   2.318  14.818 -1.7309  0.5514 -1.0713
  159DOPC  H18T19195   5.455   2.389  14.786  0.4715 -1.3455  3.2870
  159DOPC   C3319196   5.523   2.096  15.974 -0.5035 -0.2858 -0.1484
  159DOPC   H3X19197   5.441   2.022  15.961  0.6476 -1.8511  1.0524
  159DOPC   H3Y19198   5.611   2.029  15.987  0.2714  0.8929  0.9047
  159DOPC   C3419199   5.541   2.192  15.849  0.6612 -0.4086 -0.2972
  159DOPC   H4X19200   5.642   2.237  15.858 -0.2014  1.4561  0.8177
  159DOPC   H4Y19201   5.459   2.266  15.864  0.0762 -1.3737  1.6671
  159DOPC   C3519202   5.531   2.109  15.720  0.3153 -0.0385 -0.4989
  159DOPC   H5X19203   5.431   2.061  15.726 -0.3340  1.4839  3.1392
  159DOPC   H5Y19204   5.604   2.025  15.725 -0.0703 -0.4285 -1.2579
  159DOPC   C3619205   5.552   2.196  15.596  0.2777  0.3546 -0.0187
  159DOPC   H6X19206   5.459   2.255  15.579 -0.5685 -0.8522  0.2837
  159DOPC   H6Y19207   5.646   2.251  15.614  0.8991 -1.2031  1.9053
  159DOPC   C3719208   5.571   2.109  15.466  0.3095 -0.0351  0.2529
  159DOPC   H7X19209   5.640   2.031  15.506 -0.1673 -0.8077 -0.4128
  159DOPC   H7Y19210   5.475   2.056  15.451  1.5422 -2.3279  0.1221
  159DOPC   C3819211   5.616   2.189  15.337  0.1884 -0.2076 -0.2563
  159DOPC   H8X19212   5.621   2.120  15.250  0.3715 -2.2268  1.2690
  159DOPC   H8Y19213   5.717   2.235  15.340  0.3555 -0.2238 -3.0599
  159DOPC   C3919214   5.509   2.296  15.308 -0.7324 -0.1743 -0.4398
  159DOPC   H9X19215   5.404   2.263  15.304 -0.6375 -0.5427  0.0565
  159DOPC  C31019216   5.545   2.411  15.258 -0.0555 -0.1466  0.8622
  159DOPC  H10X19217   5.467   2.485  15.234  1.5462  0.8511 -1.6273
  159DOPC  C31119218   5.685   2.467  15.235  0.2111  0.5579  0.1109
  159DOPC  H11X19219   5.770   2.432  15.297 -1.3382  0.0677  2.0746
  159DOPC  H11Y19220   5.688   2.572  15.270 -1.0926  0.9102 -0.7648
  159DOPC  C31219221   5.719   2.470  15.086  0.7399  0.0330 -0.9924
  159DOPC  H12X19222   5.816   2.521  15.066  1.8887 -0.9913  1.4580
  159DOPC  H12Y19223   5.642   2.518  15.023  0.9627 -2.1466 -3.1035
  159DOPC  C31319224   5.722   2.327  15.019  0.6040 -0.4844 -0.4230
  159DOPC  H13X19225   5.804   2.269  15.067  0.7103 -1.1147 -1.3465
  159DOPC  H13Y19226   5.629   2.272  15.045 -0.0243  1.3431  1.4997
  159DOPC  C31419227   5.742   2.337  14.867  0.1148  0.4807  0.0254
  159DOPC  H14X19228   5.647   2.382  14.831 -0.8153 -0.3671  1.3605
  159DOPC  H14Y19229   5.826   2.408  14.849 -1.2732  2.2642  0.1916
  159DOPC  C31519230   5.754   2.193  14.807 -0.1372 -0.8730  0.2172
  159DOPC  H15X19231   5.660   2.140  14.837 -1.9239  2.9064  2.0587
  159DOPC  H15Y19232   5.847   2.152  14.853 -0.0376 -0.0098  0.8128
  159DOPC  C31619233   5.773   2.200  14.653 -0.4508  0.0788 -0.3739
  159DOPC  H16X19234   5.715   2.285  14.609 -0.6724 -1.0004 -2.2791
  159DOPC  H16Y19235   5.878   2.227  14.633 -0.1932  2.0836  2.8862
  159DOPC  C31719236   5.740   2.076  14.566  0.0235 -0.0531 -0.9917
  159DOPC  H17X19237   5.777   1.982  14.611 -1.0116 -0.1797 -0.3754
  159DOPC  H17Y19238   5.630   2.061  14.564  0.2540 -2.7345  1.3225
  159DOPC  C31819239   5.783   2.083  14.425 -0.3860 -0.3917  0.1384
  159DOPC  H18X19240   5.748   2.174  14.373  0.9899 -1.2804 -2.5012
  159DOPC  H18Y19241   5.894   2.088  14.429 -0.3659 -0.8203  0.1511
  159DOPC  H18Z19242   5.757   1.989  14.373 -0.2889  0.4140 -1.4168
  160DOPC     N19243   0.798   6.275  16.632 -0.2757 -0.6246 -0.1698
  160DOPC   C1219244   0.664   6.254  16.560  0.6511  0.2611 -0.0738
  160DOPC  H12A19245   0.667   6.155  16.518  4.1865  0.1073  0.2633
  160DOPC  H12B19246   0.663   6.319  16.474 -2.8760  2.1816  1.1747
  160DOPC   C1319247   0.907   6.220  16.547 -0.8036 -0.1355  0.8636
  160DOPC  H13A19248   0.999   6.216  16.604  0.1578 -2.9839 -0.6992
  160DOPC  H13B19249   0.893   6.120  16.509 -2.5236  0.2873  0.2909
  160DOPC  H13C19250   0.919   6.274  16.455  0.4515 -1.4855  0.2002
  160DOPC   C1419251   0.801   6.200  16.762 -0.0936  0.6814 -0.4613
  160DOPC  H14A19252   0.739   6.246  16.838  0.9643 -2.3037  2.4666
  160DOPC  H14B19253   0.760   6.100  16.754 -0.8512  0.9235  0.2319
  160DOPC  H14C19254   0.903   6.207  16.797 -0.7910  1.6444  1.5894
  160DOPC   C1519255   0.828   6.424  16.643  0.3718  0.2531  0.1595
  160DOPC  H15A19256   0.809   6.476  16.551  0.6284 -1.2408 -0.7766
  160DOPC  H15B19257   0.929   6.449  16.673 -0.1226  1.6136  0.7515
  160DOPC  H15C19258   0.754   6.464  16.710 -0.5255 -0.6556 -0.2612
  160DOPC   C1119259   0.531   6.269  16.641 -0.3480 -0.4837  0.2535
  160DOPC  H11A19260   0.437   6.251  16.584 -1.8424  0.3629  2.3418
  160DOPC  H11B19261   0.530   6.200  16.728 -3.7103 -0.3612  0.4455
  160DOPC     P19262   0.470   6.520  16.587  0.3325  0.4881 -0.0671
  160DOPC   O1319263   0.549   6.646  16.604  0.3127  0.4101  0.0310
  160DOPC   O1419264   0.326   6.537  16.595  0.1092 -0.0581 -0.2747
  160DOPC   O1219265   0.520   6.404  16.689 -0.3241 -0.0772 -0.1146
  160DOPC   O1119266   0.497   6.458  16.450  0.0588  0.6338 -0.2118
  160DOPC    C119267   0.411   6.462  16.335 -0.1605 -0.8526  0.0264
  160DOPC    HA19268   0.368   6.565  16.328  0.8874 -0.3647  0.4837
  160DOPC    HB19269   0.328   6.390  16.341  0.0576 -1.1628 -0.5676
  160DOPC    C219270   0.488   6.442  16.203  0.0584  0.5620  1.0531
  160DOPC    HS19271   0.516   6.334  16.199  1.7005  0.9969 -1.2267
  160DOPC   O2119272   0.596   6.533  16.194  0.2038  0.3359  0.0757
  160DOPC   C2119273   0.705   6.485  16.248 -0.6425 -0.3140  0.1860
  160DOPC   O2219274   0.727   6.368  16.281  0.5365  0.8916 -0.8920
  160DOPC   C2219275   0.815   6.596  16.261  0.8244 -0.3619 -0.1381
  160DOPC   H2R19276   0.835   6.611  16.369 -2.1173  0.4635  0.3692
  160DOPC   H2S19277   0.770   6.690  16.222  1.7299 -0.1479 -0.6953
  160DOPC    C319278   0.397   6.450  16.077  0.7676  0.5531 -0.5727
  160DOPC    HX19279   0.338   6.543  16.088 -1.6179 -0.8017 -1.1637
  160DOPC    HY19280   0.327   6.364  16.076  0.2104  0.9490 -3.3463
  160DOPC   O3119281   0.462   6.463  15.952 -0.0391  0.3422  0.3534
  160DOPC   C3119282   0.521   6.344  15.913  0.6644 -0.0583 -0.2048
  160DOPC   O3219283   0.532   6.242  15.981  0.0950 -0.1827  0.3108
  160DOPC   C3219284   0.577   6.355  15.772  0.2263  0.2728  0.3338
  160DOPC   H2X19285   0.641   6.446  15.761 -0.1079  0.3941 -0.7317
  160DOPC   H2Y19286   0.642   6.267  15.750  1.5582  0.5678  2.7898
  160DOPC   C2319287   0.941   6.561  16.176 -0.0506  0.7813  0.0528
  160DOPC   H3R19288   0.994   6.471  16.215 -0.3309  1.5964  2.4722
  160DOPC   H3S19289   1.003   6.653  16.184  0.8467  0.1414  0.6478
  160DOPC   C2419290   0.894   6.553  16.028 -0.3881  0.3155  0.2912
  160DOPC   H4R19291   0.854   6.656  16.016 -0.8037  0.3545  1.7487
  160DOPC   H4S19292   0.816   6.474  16.024  0.4992 -0.6270  1.0610
  160DOPC   C2519293   1.004   6.514  15.913 -0.6239  0.5859 -1.1680
  160DOPC   H5R19294   1.038   6.414  15.947 -1.2768 -0.0669 -2.3929
  160DOPC   H5S19295   1.089   6.585  15.918 -0.3433  0.2524 -1.1781
  160DOPC   C2619296   0.963   6.507  15.769  0.0941  0.0736 -0.5962
  160DOPC   H6R19297   0.926   6.605  15.732 -0.6787 -0.9206 -2.6450
  160DOPC   H6S19298   0.875   6.443  15.744 -1.5865  2.1755 -0.3107
  160DOPC   C2719299   1.079   6.462  15.670  0.3196 -0.6857 -0.3576
  160DOPC   H7R19300   1.127   6.368  15.704  0.0144 -0.3551  1.0542
  160DOPC   H7S19301   1.160   6.536  15.681 -1.1716  0.7458  1.8784
  160DOPC   C2819302   1.033   6.454  15.524 -0.2677 -0.2434  0.0502
  160DOPC   H8R19303   1.125   6.458  15.461 -1.3753 -3.5249 -2.0622
  160DOPC   H8S19304   0.964   6.538  15.501 -0.3908 -0.1472  0.7738
  160DOPC   C2919305   0.951   6.322  15.503 -0.7159  0.0852 -0.5489
  160DOPC   H9R19306   0.898   6.288  15.593 -0.4863 -1.6246 -1.0115
  160DOPC  C21019307   0.953   6.243  15.394  0.1353 -0.0654  0.3913
  160DOPC  H10R19308   0.912   6.141  15.394 -0.0226 -0.0289 -1.1325
  160DOPC  C21119309   1.028   6.283  15.268 -0.1666 -0.4183  0.1723
  160DOPC  H11R19310   1.131   6.241  15.273  0.3384  0.6699 -0.8219
  160DOPC  H11S19311   1.059   6.389  15.262  0.9049 -0.7022  0.3757
  160DOPC  C21219312   0.944   6.257  15.139  0.6209 -0.5625 -0.0879
  160DOPC  H12R19313   0.870   6.339  15.124  1.6423  0.2926 -0.5975
  160DOPC  H12S19314   0.881   6.166  15.148  0.0890 -0.1959 -0.0435
  160DOPC  C21319315   1.025   6.247  15.015 -0.4629  0.7301 -0.1493
  160DOPC  H13R19316   1.112   6.186  15.048 -1.1065  0.6606  1.4686
  160DOPC  H13S19317   1.058   6.346  14.977  0.9348  0.0668 -0.7429
  160DOPC  C21419318   0.939   6.189  14.907  0.9090  0.7615  0.1691
  160DOPC  H14R19319   0.837   6.233  14.917  0.5646  0.2058 -0.7131
  160DOPC  H14S19320   0.916   6.080  14.917  1.5658  0.5804 -0.2114
  160DOPC  C21519321   0.982   6.220  14.762 -0.3478  0.1561 -0.0776
  160DOPC  H15R19322   1.072   6.158  14.742 -0.9991 -1.3063  1.2837
  160DOPC  H15S19323   1.002   6.329  14.752  1.0059  0.1059  1.5579
  160DOPC  C21619324   0.879   6.176  14.661  0.4903 -0.3468  0.5123
  160DOPC  H16R19325   0.775   6.214  14.667 -0.0026 -1.0930 -2.1165
  160DOPC  H16S19326   0.874   6.065  14.659 -1.3227 -0.3701  2.3579
  160DOPC  C21719327   0.922   6.221  14.522  0.2667 -0.0169  0.3798
  160DOPC  H17R19328   1.018   6.178  14.486 -0.5841 -1.5909 -0.1142
  160DOPC  H17S19329   0.938   6.331  14.525  1.0868 -0.0504 -1.3259
  160DOPC  C21819330   0.818   6.178  14.415  0.1908  0.4699 -0.0628
  160DOPC  H18R19331   0.829   6.196  14.306 -0.5778  0.8929 -0.0771
  160DOPC  H18S19332   0.722   6.229  14.441  0.3710  1.6831 -1.5990
  160DOPC  H18T19333   0.791   6.073  14.437  2.5538  0.2668  2.2511
  160DOPC   C3319334   0.468   6.370  15.662 -0.4954 -0.2235 -0.1901
  160DOPC   H3X19335   0.402   6.446  15.709  1.6680  0.6644  1.5532
  160DOPC   H3Y19336   0.417   6.272  15.647  0.3490 -0.6353 -0.4421
  160DOPC   C3419337   0.518   6.426  15.532 -0.4988 -0.3041  0.0277
  160DOPC   H4X19338   0.588   6.354  15.484  0.0876  0.2354  0.0672
  160DOPC   H4Y19339   0.577   6.518  15.552  1.0728 -0.5175 -3.0007
  160DOPC   C3519340   0.401   6.474  15.431  0.2335 -0.3008  0.1799
  160DOPC   H5X19341   0.349   6.557  15.484  4.4626  1.4162  2.1258
  160DOPC   H5Y19342   0.326   6.393  15.412  0.4149 -0.4033 -0.0918
  160DOPC   C3619343   0.459   6.512  15.292 -0.2494  0.6781 -0.1643
  160DOPC   H6X19344   0.404   6.591  15.236  1.5742  0.2547 -2.7643
  160DOPC   H6Y19345   0.556   6.562  15.312 -0.2183  0.4833  0.1692
  160DOPC   C3719346   0.491   6.394  15.197 -0.3300  0.7422 -0.2601
  160DOPC   H7X19347   0.571   6.324  15.229 -0.6125  0.4437 -0.2002
  160DOPC   H7Y19348   0.400   6.332  15.181  0.9224 -1.5119  0.8136
  160DOPC   C3819349   0.538   6.432  15.048  0.3965 -0.1629 -0.7857
  160DOPC   H8X19350   0.637   6.481  15.064  0.1122  0.9159 -2.1308
  160DOPC   H8Y19351   0.483   6.521  15.010  0.5080  0.6592  0.8442
  160DOPC   C3919352   0.558   6.310  14.960 -1.1522  0.0585  0.7987
  160DOPC   H9X19353   0.625   6.242  15.013  0.3968  0.3326 -0.7176
  160DOPC  C31019354   0.515   6.273  14.836 -0.6635  0.4537 -0.6623
  160DOPC  H10X19355   0.569   6.192  14.783  0.0584  0.4510  0.0604
  160DOPC  C31119356   0.417   6.363  14.757 -0.6333  0.6188 -0.4118
  160DOPC  H11X19357   0.400   6.458  14.811 -1.4414  0.7145 -0.8081
  160DOPC  H11Y19358   0.319   6.312  14.771  0.8654 -2.2360  0.5551
  160DOPC  C31219359   0.459   6.380  14.607  1.2026  0.2106 -0.3441
  160DOPC  H12X19360   0.432   6.286  14.555  0.0966  0.7696 -0.8133
  160DOPC  H12Y19361   0.567   6.404  14.597  1.0963  0.0594 -2.3041
  160DOPC  C31319362   0.382   6.486  14.540 -0.2340 -0.3968 -0.2952
  160DOPC  H13X19363   0.279   6.447  14.554 -0.0867 -0.3398  0.9925
  160DOPC  H13Y19364   0.379   6.583  14.592  0.4011 -0.9991  0.9089
  160DOPC  C31419365   0.423   6.512  14.396  0.7707  0.2604  0.3680
  160DOPC  H14X19366   0.524   6.558  14.392  1.5505 -1.2600 -4.5039
  160DOPC  H14Y19367   0.440   6.414  14.346  2.6883  0.0760  1.2810
  160DOPC  C31519368   0.321   6.606  14.323 -0.5403 -0.5630 -0.8853
  160DOPC  H15X19369   0.307   6.690  14.395  3.7625 -0.2605 -0.1092
  160DOPC  H15Y19370   0.225   6.551  14.321 -1.4277  0.7151  1.7365
  160DOPC  C31619371   0.369   6.656  14.190 -0.2725  0.2461 -0.6493
  160DOPC  H16X19372   0.286   6.719  14.151 -3.3377 -2.8790  0.3706
  160DOPC  H16Y19373   0.466   6.711  14.187  1.9377 -3.3647 -2.6249
  160DOPC  C31719374   0.372   6.543  14.086 -0.1559 -0.5486 -1.5779
  160DOPC  H17X19375   0.427   6.455  14.124 -0.2701 -0.8499 -2.1044
  160DOPC  H17Y19376   0.268   6.507  14.073 -0.4709 -0.3118  0.0584
  160DOPC  C31819377   0.428   6.578  13.953 -0.5286 -0.0607 -0.4144
  160DOPC  H18X19378   0.412   6.495  13.881 -3.3924  3.3218 -4.1297
  160DOPC  H18Y19379   0.383   6.669  13.909 -0.2251 -0.9330 -2.6860
  160DOPC  H18Z19380   0.536   6.600  13.966 -1.1384  1.7389  2.5941
  161DOPC     N19381   1.698   1.374  16.941 -0.5789  0.3757 -0.2267
  161DOPC   C1219382   1.769   1.492  16.887 -0.2281 -0.0436 -0.2636
  161DOPC  H12A19383   1.863   1.465  16.841  0.0788 -1.6611  1.2278
  161DOPC  H12B19384   1.798   1.550  16.974 -0.1633  1.9047 -1.5138
  161DOPC   C1319385   1.577   1.417  17.016  0.6566 -0.0341  0.4920
  161DOPC  H13A19386   1.522   1.332  17.054 -0.7609  1.1141  1.1104
  161DOPC  H13B19387   1.608   1.479  17.099  2.1628  0.4379 -0.3868
  161DOPC  H13C19388   1.513   1.470  16.947  0.4692 -3.1681 -1.9489
  161DOPC   C1419389   1.785   1.292  17.033  0.1024 -0.8315 -0.2142
  161DOPC  H14A19390   1.872   1.279  16.970 -0.3433 -0.4261 -0.9273
  161DOPC  H14B19391   1.809   1.346  17.123 -1.4087 -0.2269 -0.1617
  161DOPC  H14C19392   1.744   1.193  17.043 -0.9113 -0.2926  1.2034
  161DOPC   C1519393   1.662   1.285  16.827 -0.2101  0.7028 -0.6684
  161DOPC  H15A19394   1.590   1.326  16.758 -1.0058  0.3641 -0.0571
  161DOPC  H15B19395   1.616   1.190  16.852 -0.3400  0.9040 -0.1285
  161DOPC  H15C19396   1.751   1.270  16.767 -0.0914 -0.2025 -0.2754
  161DOPC   C1119397   1.707   1.585  16.784  0.1412  0.3209 -0.0352
  161DOPC  H11A19398   1.783   1.654  16.741  2.4904 -2.1178 -0.0618
  161DOPC  H11B19399   1.679   1.513  16.705 -0.7707 -0.1591  0.7114
  161DOPC     P19400   1.596   1.786  16.911  0.0579  0.2853 -0.2531
  161DOPC   O1319401   1.725   1.807  16.983  0.1077 -0.0929  0.3079
  161DOPC   O1419402   1.486   1.771  17.005  0.2247  0.0233 -0.5264
  161DOPC   O1219403   1.590   1.652  16.830  0.4520  0.4874 -0.3926
  161DOPC   O1119404   1.577   1.900  16.797  0.4425 -0.3057  0.3296
  161DOPC    C119405   1.455   1.896  16.718  0.7474  0.6208 -0.7962
  161DOPC    HA19406   1.411   1.998  16.723  0.7061  0.5414  1.1402
  161DOPC    HB19407   1.378   1.833  16.766  1.3162 -1.6219 -2.6646
  161DOPC    C219408   1.477   1.854  16.570  0.0081 -0.4061 -0.1617
  161DOPC    HS19409   1.533   1.758  16.571 -0.8182 -0.9069 -0.6586
  161DOPC   O2119410   1.554   1.965  16.513 -0.0829  0.0166  0.5368
  161DOPC   C2119411   1.686   1.940  16.479  0.7595 -0.2382 -0.6043
  161DOPC   O2219412   1.735   1.834  16.469 -0.2457  0.2394 -0.3944
  161DOPC   C2219413   1.756   2.072  16.450 -0.5637 -0.1796  0.0577
  161DOPC   H2R19414   1.796   2.112  16.545  0.8467  1.6030 -1.2011
  161DOPC   H2S19415   1.680   2.146  16.417 -2.3419 -1.2154  1.6405
  161DOPC    C319416   1.351   1.837  16.484  0.4959 -0.0864 -0.4969
  161DOPC    HX19417   1.288   1.928  16.482  0.6494  0.0046 -1.5856
  161DOPC    HY19418   1.292   1.754  16.529 -0.6039 -0.3702 -2.3977
  161DOPC   O3119419   1.370   1.808  16.344 -0.0604  0.3958  0.3842
  161DOPC   C3119420   1.405   1.682  16.317 -0.2115 -0.6671 -0.4560
  161DOPC   O3219421   1.434   1.597  16.400 -0.1434 -0.0979 -0.2174
  161DOPC   C3219422   1.402   1.669  16.166  0.0703 -0.4895  0.3715
  161DOPC   H2X19423   1.367   1.565  16.145 -0.0557 -0.4368  0.3212
  161DOPC   H2Y19424   1.315   1.724  16.126 -0.1599 -0.6603  0.6360
  161DOPC   C2319425   1.877   2.046  16.350 -0.6332  0.6962  0.2870
  161DOPC   H3R19426   1.959   1.986  16.394 -0.0579  1.6085  0.4887
  161DOPC   H3S19427   1.921   2.145  16.325  0.3452  0.0084 -0.7672
  161DOPC   C2419428   1.837   1.977  16.216 -0.6460 -0.5284 -0.1199
  161DOPC   H4R19429   1.747   2.030  16.177 -1.2932  1.4055  3.5998
  161DOPC   H4S19430   1.811   1.872  16.240 -0.5484 -0.4257  0.4471
  161DOPC   C2519431   1.945   1.977  16.108 -0.0604 -0.2058 -0.1458
  161DOPC   H5R19432   2.025   1.906  16.137  0.2393  0.0270 -0.3960
  161DOPC   H5S19433   2.008   2.067  16.096  2.9208 -2.1465 -0.1431
  161DOPC   C2619434   1.889   1.930  15.972 -0.1587  0.0013  0.9773
  161DOPC   H6R19435   1.801   1.989  15.939  0.3273  1.0219  1.4642
  161DOPC   H6S19436   1.853   1.827  15.992 -1.3797  0.6809  2.4455
  161DOPC   C2719437   1.991   1.942  15.849  0.0741  0.5307 -0.3450
  161DOPC   H7R19438   2.079   1.885  15.884 -0.9616 -0.7983  0.1986
  161DOPC   H7S19439   2.023   2.047  15.833  1.5799  0.3185  1.0843
  161DOPC   C2819440   1.946   1.869  15.717 -0.2520 -0.7786 -0.6941
  161DOPC   H8R19441   1.895   1.775  15.747 -0.2121 -0.6514 -0.2261
  161DOPC   H8S19442   2.040   1.844  15.663  1.4371  1.0673  1.2058
  161DOPC   C2919443   1.852   1.946  15.633  0.7742  0.7589 -0.6127
  161DOPC   H9R19444   1.745   1.939  15.661  1.1268 -1.9597  0.3399
  161DOPC  C21019445   1.885   2.005  15.515  0.1852  0.4860  0.2136
  161DOPC  H10R19446   1.805   2.052  15.457  1.6050  0.8593 -1.5164
  161DOPC  C21119447   2.019   2.001  15.453  0.2147  0.3749 -0.3870
  161DOPC  H11R19448   2.066   1.900  15.453  1.4651  0.8930 -2.1404
  161DOPC  H11S19449   2.086   2.076  15.501  1.9879 -0.1714 -1.8890
  161DOPC  C21219450   2.030   2.049  15.304 -0.0342  0.1226  0.2953
  161DOPC  H12R19451   2.132   2.045  15.260 -0.1713 -0.4114  0.0123
  161DOPC  H12S19452   1.987   2.151  15.301 -0.3587 -0.0294 -0.5587
  161DOPC  C21319453   1.952   1.959  15.208  0.4950  0.1561 -0.2140
  161DOPC  H13R19454   1.850   1.941  15.250  0.9657 -1.1208  0.4428
  161DOPC  H13S19455   2.000   1.859  15.203  2.1108  0.9032  0.0175
  161DOPC  C21419456   1.957   2.014  15.071  0.4502 -0.3382  0.3290
  161DOPC  H14R19457   2.058   2.031  15.029 -0.7387  2.7467 -1.6532
  161DOPC  H14S19458   1.905   2.112  15.062  1.8754  0.5184  1.1071
  161DOPC  C21519459   1.884   1.924  14.961 -0.2874  0.3316 -0.6345
  161DOPC  H15R19460   1.776   1.951  14.966  0.2593  2.5766  0.2811
  161DOPC  H15S19461   1.900   1.820  14.996  1.8529  1.1398  1.0022
  161DOPC  C21619462   1.930   1.946  14.819  0.6456  0.4302 -0.1930
  161DOPC  H16R19463   2.040   1.956  14.815  0.9402 -2.4927 -2.6900
  161DOPC  H16S19464   1.886   2.039  14.776 -0.1355  1.0048  1.7192
  161DOPC  C21719465   1.888   1.825  14.731  0.2574 -0.3375  0.5526
  161DOPC  H17R19466   1.783   1.842  14.700  0.6614  1.9279  0.2353
  161DOPC  H17S19467   1.882   1.740  14.802 -0.2444 -1.3959 -0.7130
  161DOPC  C21819468   1.978   1.784  14.610  0.4464  0.3646 -0.2423
  161DOPC  H18R19469   1.914   1.715  14.550 -2.6133  1.7317  1.1932
  161DOPC  H18S19470   2.080   1.753  14.642  0.4372 -1.0564 -1.4859
  161DOPC  H18T19471   1.983   1.862  14.531  1.0087 -0.3199 -0.8885
  161DOPC   C3319472   1.535   1.714  16.098 -0.4460 -0.0958  0.6723
  161DOPC   H3X19473   1.607   1.630  16.113  0.7185  1.2343  3.0697
  161DOPC   H3Y19474   1.576   1.802  16.151 -0.3751 -0.4758  1.2622
  161DOPC   C3419475   1.525   1.759  15.948  0.7829  0.4219  0.6095
  161DOPC   H4X19476   1.627   1.781  15.910  0.7537  1.2687  1.0081
  161DOPC   H4Y19477   1.463   1.852  15.949 -1.8671 -1.2387  0.3745
  161DOPC   C3519478   1.450   1.663  15.853 -0.3563  0.6658  0.8404
  161DOPC   H5X19479   1.426   1.722  15.762  0.1567 -0.6677 -0.2045
  161DOPC   H5Y19480   1.355   1.629  15.899 -0.8964  1.4875  0.3504
  161DOPC   C3619481   1.536   1.542  15.805 -0.0025 -0.4088  0.6877
  161DOPC   H6X19482   1.586   1.492  15.891 -0.6424 -1.3455  0.5242
  161DOPC   H6Y19483   1.466   1.470  15.758 -1.6636  0.5114  1.6648
  161DOPC   C3719484   1.643   1.583  15.707 -0.0292 -0.3686 -0.1947
  161DOPC   H7X19485   1.684   1.683  15.729 -2.4158  0.6599 -0.1251
  161DOPC   H7Y19486   1.722   1.507  15.689 -0.0075 -0.6704  1.0717
  161DOPC   C3819487   1.583   1.581  15.561 -0.2646 -0.2360  0.0648
  161DOPC   H8X19488   1.498   1.652  15.565  0.4698  0.7449 -0.8318
  161DOPC   H8Y19489   1.546   1.478  15.543 -1.0332  0.0293  0.0823
  161DOPC   C3919490   1.683   1.631  15.464  0.1156  0.0826  0.3923
  161DOPC   H9X19491   1.759   1.700  15.504  1.7393 -1.2162 -0.3375
  161DOPC  C31019492   1.677   1.598  15.331 -0.2197  0.4468 -0.1208
  161DOPC  H10X19493   1.748   1.644  15.260 -0.3004  0.8645  0.0713
  161DOPC  C31119494   1.580   1.507  15.266  0.0912 -0.2346  0.3350
  161DOPC  H11X19495   1.491   1.515  15.331 -0.7506 -0.7411 -0.7301
  161DOPC  H11Y19496   1.601   1.399  15.283 -1.2681 -0.2171  2.3910
  161DOPC  C31219497   1.551   1.527  15.116  0.2138  0.4268 -0.7559
  161DOPC  H12X19498   1.472   1.459  15.079  0.2628  0.5342 -1.0578
  161DOPC  H12Y19499   1.648   1.499  15.069  3.1503  1.3238  3.9886
  161DOPC  C31319500   1.502   1.669  15.084  0.1297 -0.2168 -0.3396
  161DOPC  H13X19501   1.413   1.703  15.140  0.6247 -0.8783  0.8810
  161DOPC  H13Y19502   1.581   1.740  15.116 -0.0570 -0.2866  0.2875
  161DOPC  C31419503   1.478   1.687  14.929  0.2082  0.7504 -0.1911
  161DOPC  H14X19504   1.564   1.645  14.873 -0.2847  1.2540 -1.3496
  161DOPC  H14Y19505   1.390   1.621  14.910  0.5379 -0.1469  1.2133
  161DOPC  C31519506   1.448   1.827  14.885 -0.1074 -0.6068  0.0202
  161DOPC  H15X19507   1.545   1.876  14.906  0.9123 -2.4829 -0.1339
  161DOPC  H15Y19508   1.364   1.869  14.945  1.9127  2.1258  1.1318
  161DOPC  C31619509   1.420   1.826  14.731 -0.6197  0.1285 -1.1366
  161DOPC  H16X19510   1.493   1.767  14.673 -0.1623  2.8670 -3.5984
  161DOPC  H16Y19511   1.320   1.785  14.705  0.7348 -3.6776 -0.9830
  161DOPC  C31719512   1.430   1.961  14.663 -0.8437  0.0346 -0.1704
  161DOPC  H17X19513   1.360   2.036  14.705 -0.6931 -0.7369  1.5385
  161DOPC  H17Y19514   1.536   1.992  14.679 -0.2741 -2.4942  1.3787
  161DOPC  C31819515   1.429   1.960  14.506 -0.8184  0.0340 -0.2751
  161DOPC  H18X19516   1.345   1.898  14.468 -0.7175 -0.5868  0.4885
  161DOPC  H18Y19517   1.422   2.067  14.476  0.6127  0.6496  1.3891
  161DOPC  H18Z19518   1.522   1.927  14.454 -1.7749 -0.7287 -1.5691
  162DOPC     N19519   6.581   5.830  17.056 -0.1784  0.7247  0.0188
  162DOPC   C1219520   6.632   5.801  16.920 -0.5834  0.4132 -0.1397
  162DOPC  H12A19521   6.572   5.738  16.856  1.0834 -2.7761  1.2421
  162DOPC  H12B19522   6.720   5.740  16.933  0.9246  2.4047 -0.5281
  162DOPC   C1319523   6.471   5.924  17.045 -0.8318 -0.3772 -0.2418
  162DOPC  H13A19524   6.506   6.024  17.024 -0.5517 -0.8483 -2.1894
  162DOPC  H13B19525   6.403   5.887  16.970 -1.0072  0.6953 -0.6357
  162DOPC  H13C19526   6.430   5.938  17.144  1.3281 -0.5487  0.7250
  162DOPC   C1419527   6.691   5.898  17.140  0.3511  0.1244  0.1535
  162DOPC  H14A19528   6.719   5.985  17.083 -2.0926  0.8959  0.0006
  162DOPC  H14B19529   6.649   5.927  17.235  0.4545 -1.4841  0.7128
  162DOPC  H14C19530   6.775   5.834  17.159 -0.5062 -0.6802  1.3507
  162DOPC   C1519531   6.555   5.694  17.127  0.8095  0.1844 -0.2433
  162DOPC  H15A19532   6.528   5.706  17.231  0.3854  1.1608 -0.4547
  162DOPC  H15B19533   6.650   5.645  17.138  1.1423  1.1447  1.5739
  162DOPC  H15C19534   6.479   5.639  17.074 -0.2481  0.8873  0.4944
  162DOPC   C1119535   6.672   5.927  16.833  0.3090 -0.0832 -0.3954
  162DOPC  H11A19536   6.658   5.893  16.728  0.7925 -2.1932  0.1738
  162DOPC  H11B19537   6.600   6.011  16.844  0.3608  0.0221 -0.8347
  162DOPC     P19538   6.918   5.886  16.792 -0.0928  0.3055 -0.0090
  162DOPC   O1319539   6.897   5.741  16.835  0.7558  0.1938 -0.3294
  162DOPC   O1419540   7.053   5.942  16.824  0.3029  0.1294 -0.7260
  162DOPC   O1219541   6.804   5.974  16.860 -0.2335 -0.1636 -0.6395
  162DOPC   O1119542   6.893   5.901  16.634 -0.0033  0.1727 -0.9401
  162DOPC    C119543   6.886   6.035  16.586  0.2096 -1.0611 -0.2489
  162DOPC    HA19544   6.988   6.080  16.583 -0.3319  0.1630 -0.7701
  162DOPC    HB19545   6.825   6.104  16.648  0.9669 -1.1688  0.6371
  162DOPC    C219546   6.817   6.037  16.450 -0.1942  0.4203  0.5087
  162DOPC    HS19547   6.749   5.949  16.455  0.9107 -0.3876  2.2163
  162DOPC   O2119548   6.926   6.041  16.355 -0.2378 -0.3673 -0.7517
  162DOPC   C2119549   6.907   5.952  16.258 -0.3365 -0.7902  1.6118
  162DOPC   O2219550   6.815   5.875  16.247  0.0171 -0.0784 -0.5708
  162DOPC   C2219551   7.035   5.946  16.173 -0.3267 -0.2825 -0.2582
  162DOPC   H2R19552   7.118   5.917  16.241 -1.0714 -1.2895  0.2497
  162DOPC   H2S19553   7.052   6.046  16.128 -0.1422 -0.2984 -0.2258
  162DOPC    C319554   6.722   6.166  16.437 -0.1582  0.2262 -0.1375
  162DOPC    HX19555   6.780   6.260  16.449  0.2403 -0.0786  0.3973
  162DOPC    HY19556   6.646   6.172  16.518 -0.4495 -2.2018 -0.1485
  162DOPC   O3119557   6.640   6.178  16.321 -0.7899  0.5298 -0.5219
  162DOPC   C3119558   6.707   6.232  16.213  0.0618  0.4585 -0.3837
  162DOPC   O3219559   6.821   6.272  16.206 -0.0351  0.2221 -0.6920
  162DOPC   C3219560   6.617   6.222  16.091 -0.7220 -0.4676 -0.5407
  162DOPC   H2X19561   6.509   6.221  16.117 -1.1663 -0.9606 -2.3189
  162DOPC   H2Y19562   6.623   6.320  16.038 -1.0119  0.5120  1.1570
  162DOPC   C2319563   7.046   5.835  16.068  0.5422 -0.3959 -0.5904
  162DOPC   H3R19564   6.955   5.832  16.004  0.2827  2.4182 -0.4382
  162DOPC   H3S19565   7.060   5.737  16.119  2.6698  0.2871  0.2344
  162DOPC   C2419566   7.158   5.849  15.957  0.4288 -0.2009  0.8109
  162DOPC   H4R19567   7.209   5.754  15.930  0.6910  0.3039 -0.5587
  162DOPC   H4S19568   7.242   5.909  15.999 -0.1215  2.2629 -1.3186
  162DOPC   C2519569   7.107   5.910  15.823 -0.3464  0.2161 -0.1058
  162DOPC   H5R19570   7.050   6.004  15.841 -0.0926  0.6178 -1.3041
  162DOPC   H5S19571   7.039   5.834  15.778 -0.0815  0.5798 -1.1475
  162DOPC   C2619572   7.217   5.949  15.722 -0.5566  0.5460  0.6721
  162DOPC   H6R19573   7.286   5.864  15.706 -1.3146  0.2601 -1.3630
  162DOPC   H6S19574   7.269   6.037  15.766 -2.4198  0.9744  2.1660
  162DOPC   C2719575   7.156   5.980  15.581 -0.6617  0.5029 -0.2039
  162DOPC   H7R19576   7.079   6.057  15.603 -1.0058  0.8286 -2.3553
  162DOPC   H7S19577   7.096   5.893  15.549 -0.1823 -0.5561  1.6081
  162DOPC   C2819578   7.256   6.030  15.474  0.2495 -0.0725  0.3046
  162DOPC   H8R19579   7.344   5.964  15.457  1.5254  1.5900  0.2533
  162DOPC   H8S19580   7.309   6.118  15.514  0.7859 -0.3046  0.1170
  162DOPC   C2919581   7.166   6.066  15.348 -0.4231 -0.4840 -0.3015
  162DOPC   H9R19582   7.091   6.146  15.359 -0.0550 -0.2126  0.2975
  162DOPC  C21019583   7.153   5.988  15.236 -0.1984 -0.2995 -0.1331
  162DOPC  H10R19584   7.087   6.037  15.163 -1.2620  1.8553  2.1393
  162DOPC  C21119585   7.210   5.852  15.204 -0.2427 -0.1583  0.0440
  162DOPC  H11R19586   7.118   5.791  15.193 -0.5661  0.7449 -3.3608
  162DOPC  H11S19587   7.291   5.828  15.276  0.3080 -2.0541 -1.1265
  162DOPC  C21219588   7.281   5.852  15.060 -0.0842 -0.0467 -0.3760
  162DOPC  H12R19589   7.328   5.752  15.053  0.8004  0.2324  1.2188
  162DOPC  H12S19590   7.363   5.927  15.065 -0.2790  0.1427 -0.0338
  162DOPC  C21319591   7.192   5.883  14.939  0.2242  0.6354 -0.1310
  162DOPC  H13R19592   7.163   5.990  14.944  0.7409  0.8169 -0.7909
  162DOPC  H13S19593   7.105   5.815  14.945 -0.6230  1.7366  0.2997
  162DOPC  C21419594   7.263   5.858  14.808  0.1688  0.5612  0.0172
  162DOPC  H14R19595   7.284   5.749  14.802  1.0777  0.6704  0.9646
  162DOPC  H14S19596   7.355   5.919  14.803  1.4276 -1.1864  0.8189
  162DOPC  C21519597   7.178   5.881  14.687 -0.0118 -0.1806  0.7456
  162DOPC  H15R19598   7.144   5.986  14.688 -0.8595 -0.3527 -1.9188
  162DOPC  H15S19599   7.086   5.819  14.700  0.1180 -0.2526  1.3753
  162DOPC  C21619600   7.247   5.854  14.550  0.5812  0.1679 -0.5127
  162DOPC  H16R19601   7.252   5.745  14.528  1.2917 -0.1848  1.2253
  162DOPC  H16S19602   7.348   5.901  14.552  0.4371  0.4714  1.3390
  162DOPC  C21719603   7.161   5.917  14.448  0.3628  0.2189  0.1191
  162DOPC  H17R19604   7.159   6.022  14.485 -1.0602  0.6182 -1.0065
  162DOPC  H17S19605   7.060   5.874  14.460  1.0269 -1.4684 -0.1583
  162DOPC  C21819606   7.212   5.905  14.308  0.2524 -0.6494  0.6389
  162DOPC  H18R19607   7.135   5.937  14.234 -1.2406 -3.9639  0.5513
  162DOPC  H18S19608   7.217   5.799  14.275 -1.2025 -0.6989  0.5245
  162DOPC  H18T19609   7.306   5.962  14.292  1.3696 -2.1539  1.5617
  162DOPC   C3319610   6.664   6.110  15.994 -0.0178  0.1140  0.2628
  162DOPC   H3X19611   6.599   6.124  15.905  0.9621  2.1373 -0.2027
  162DOPC   H3Y19612   6.661   6.007  16.036 -1.2552 -1.5354 -3.4043
  162DOPC   C3419613   6.807   6.132  15.936 -0.1015  0.3878 -0.4540
  162DOPC   H4X19614   6.823   6.045  15.868 -3.5547 -0.6877 -0.0444
  162DOPC   H4Y19615   6.886   6.116  16.013  2.5132 -0.3119 -3.0859
  162DOPC   C3519616   6.813   6.272  15.864 -1.0598 -0.0686  0.0220
  162DOPC   H5X19617   6.909   6.287  15.812  0.2178 -0.1419  2.2432
  162DOPC   H5Y19618   6.801   6.354  15.938  1.7522 -0.5000  1.0864
  162DOPC   C3619619   6.716   6.292  15.743  0.3855 -0.0347 -0.7425
  162DOPC   H6X19620   6.611   6.302  15.778  0.6009  0.1276 -0.1320
  162DOPC   H6Y19621   6.738   6.382  15.682  0.0933  1.2144  0.9321
  162DOPC   C3719622   6.737   6.172  15.642 -1.0427 -0.0277  0.2723
  162DOPC   H7X19623   6.845   6.167  15.617 -1.6712  0.1470 -2.8049
  162DOPC   H7Y19624   6.713   6.077  15.694 -2.5355 -0.7620 -1.6744
  162DOPC   C3819625   6.639   6.183  15.521  0.3263 -0.1247 -0.0129
  162DOPC   H8X19626   6.530   6.171  15.538  0.4300 -1.9866 -0.4517
  162DOPC   H8Y19627   6.651   6.087  15.467  0.3819 -1.0424  1.5857
  162DOPC   C3919628   6.672   6.299  15.432 -1.0347 -0.4992 -0.2595
  162DOPC   H9X19629   6.636   6.387  15.487 -0.1505 -1.6968  2.3962
  162DOPC  C31019630   6.718   6.307  15.307  0.1480  0.1367 -0.4437
  162DOPC  H10X19631   6.738   6.409  15.273 -0.2479 -0.1960 -1.7571
  162DOPC  C31119632   6.744   6.193  15.215 -0.1164  0.1985 -0.1821
  162DOPC  H11X19633   6.716   6.090  15.246 -0.1162  0.2730  0.0689
  162DOPC  H11Y19634   6.853   6.204  15.193 -0.1378  0.7329 -0.0241
  162DOPC  C31219635   6.686   6.226  15.071  0.5424 -0.2149 -0.7003
  162DOPC  H12X19636   6.686   6.336  15.057  0.5874 -0.1840 -0.4678
  162DOPC  H12Y19637   6.585   6.181  15.063  0.7013 -0.8467  0.5359
  162DOPC  C31319638   6.775   6.167  14.955  0.4229  0.0578 -0.1331
  162DOPC  H13X19639   6.878   6.209  14.954  1.4798 -1.9929 -4.5717
  162DOPC  H13Y19640   6.790   6.057  14.953  0.0292 -0.0043 -1.8954
  162DOPC  C31419641   6.718   6.204  14.814 -0.4961 -0.6653 -0.0884
  162DOPC  H14X19642   6.609   6.189  14.828 -0.9714  1.6544 -0.7482
  162DOPC  H14Y19643   6.731   6.314  14.797 -0.1752 -0.7872 -0.6638
  162DOPC  C31519644   6.783   6.117  14.702  0.0063  0.3670 -0.1049
  162DOPC  H15X19645   6.746   6.015  14.726  1.2100  0.3049  1.6626
  162DOPC  H15Y19646   6.891   6.105  14.722 -0.1812 -2.7823 -0.4866
  162DOPC  C31619647   6.737   6.163  14.563  0.2243 -0.6688  0.7953
  162DOPC  H16X19648   6.642   6.108  14.545 -0.5068  0.4833  1.0390
  162DOPC  H16Y19649   6.724   6.272  14.548 -0.5323 -1.0503 -1.8929
  162DOPC  C31719650   6.827   6.117  14.448 -0.5613  0.3357 -0.3643
  162DOPC  H17X19651   6.930   6.106  14.489 -1.0009  0.6325  0.8667
  162DOPC  H17Y19652   6.785   6.020  14.413  0.2818 -0.5562  0.9583
  162DOPC  C31819653   6.831   6.218  14.333 -0.3992  0.2234  0.1649
  162DOPC  H18X19654   6.898   6.177  14.255 -0.0710  1.0677 -0.0029
  162DOPC  H18Y19655   6.732   6.231  14.284  0.7329 -1.1818 -2.7195
  162DOPC  H18Z19656   6.868   6.319  14.358  2.8912 -0.9439  0.5251
  163DOPC     N19657   6.198   4.412  16.936  0.2859  0.4631 -0.0532
  163DOPC   C1219658   6.168   4.432  16.792  0.1687  0.1920  0.0951
  163DOPC  H12A19659   6.164   4.538  16.773 -0.4698 -0.0515 -1.2617
  163DOPC  H12B19660   6.071   4.391  16.767  0.0039  0.5201  0.1961
  163DOPC   C1319661   6.332   4.467  16.971 -0.7086 -0.5157 -0.2789
  163DOPC  H13A19662   6.400   4.399  16.923 -3.7485 -1.7511 -3.1724
  163DOPC  H13B19663   6.346   4.567  16.931  1.7447 -0.3340  0.8391
  163DOPC  H13C19664   6.357   4.480  17.076 -1.6323  2.0273 -0.2926
  163DOPC   C1419665   6.183   4.275  16.969  0.7948 -0.0208  0.0962
  163DOPC  H14A19666   6.240   4.216  16.900 -0.8576  0.5777 -1.8749
  163DOPC  H14B19667   6.221   4.250  17.067  1.1338 -2.6363 -0.6167
  163DOPC  H14C19668   6.081   4.243  16.954  0.6600  0.5365 -0.1785
  163DOPC   C1519669   6.091   4.492  17.014 -0.1645  0.0925  0.4683
  163DOPC  H15A19670   5.990   4.458  16.995 -0.3421 -0.4057  2.1350
  163DOPC  H15B19671   6.091   4.596  16.989 -1.2611 -0.4619 -2.1023
  163DOPC  H15C19672   6.108   4.493  17.121 -0.8093 -0.5236  0.5863
  163DOPC   C1119673   6.267   4.359  16.696 -0.3234  0.0387  0.3388
  163DOPC  H11A19674   6.228   4.381  16.594  3.8521  1.5244 -1.1420
  163DOPC  H11B19675   6.363   4.414  16.705 -1.3552  1.9285  0.2136
  163DOPC     P19676   6.413   4.148  16.639 -0.4055  0.2302 -0.3676
  163DOPC   O1319677   6.431   4.006  16.680  0.1651  0.6428  0.2311
  163DOPC   O1419678   6.540   4.222  16.634  0.3334  0.1757  0.0963
  163DOPC   O1219679   6.285   4.214  16.712 -0.1908 -0.1932  0.4783
  163DOPC   O1119680   6.357   4.145  16.497  0.2279  0.0552  0.0444
  163DOPC    C119681   6.256   4.059  16.443 -0.3697 -0.2874 -0.1601
  163DOPC    HA19682   6.169   4.077  16.509 -0.6789 -0.6637 -0.4633
  163DOPC    HB19683   6.281   3.953  16.462  0.0946 -0.3097 -0.8549
  163DOPC    C219684   6.237   4.071  16.293  0.5815  0.1138  0.2100
  163DOPC    HS19685   6.157   4.001  16.262  2.2287 -1.4850 -0.5475
  163DOPC   O2119686   6.355   4.033  16.214  0.5509 -0.4690 -0.4133
  163DOPC   C2119687   6.392   3.905  16.189  0.8079  0.0781 -0.2115
  163DOPC   O2219688   6.342   3.809  16.247 -0.3460 -0.0470  0.0543
  163DOPC   C2219689   6.517   3.893  16.102 -0.3846  0.9054  0.8803
  163DOPC   H2R19690   6.585   3.819  16.150 -0.8419 -1.2945 -1.6064
  163DOPC   H2S19691   6.566   3.992  16.112  1.3295  0.0520  1.2299
  163DOPC    C319692   6.190   4.218  16.266 -0.1796  0.1031  0.1076
  163DOPC    HX19693   6.253   4.283  16.332  0.0459 -0.2479  0.2403
  163DOPC    HY19694   6.085   4.229  16.299  0.3182  0.5496  1.6528
  163DOPC   O3119695   6.213   4.252  16.131 -0.4380 -0.1986  0.5399
  163DOPC   C3119696   6.127   4.210  16.046 -0.2367  0.9738  0.1849
  163DOPC   O3219697   6.025   4.142  16.069 -0.1199 -0.0892 -0.2500
  163DOPC   C3219698   6.165   4.256  15.907 -0.4068 -0.5187 -0.1677
  163DOPC   H2X19699   6.142   4.365  15.906  1.4905 -0.0824 -0.8529
  163DOPC   H2Y19700   6.275   4.241  15.898  0.2215  1.2500  2.9612
  163DOPC   C2319701   6.507   3.854  15.949 -0.1941  0.1367 -0.0880
  163DOPC   H3R19702   6.469   3.942  15.893  1.8425  1.1955  0.0883
  163DOPC   H3S19703   6.433   3.771  15.941  0.5655 -0.6627  0.8639
  163DOPC   C2419704   6.642   3.807  15.901 -0.5319  0.0311 -0.0905
  163DOPC   H4R19705   6.682   3.720  15.957  0.4679  0.2984 -0.3531
  163DOPC   H4S19706   6.706   3.898  15.909 -0.3865  0.2296 -2.7239
  163DOPC   C2519707   6.653   3.779  15.749  0.4661  0.0366  0.2858
  163DOPC   H5R19708   6.640   3.874  15.693 -1.5098  0.1785  0.8755
  163DOPC   H5S19709   6.577   3.708  15.708 -0.1261  1.7438 -1.7486
  163DOPC   C2619710   6.774   3.697  15.709  0.3118 -0.2047  0.0099
  163DOPC   H6R19711   6.847   3.737  15.782 -0.3198  1.0615 -0.0419
  163DOPC   H6S19712   6.813   3.736  15.613  0.8556 -2.0434 -0.5703
  163DOPC   C2719713   6.749   3.542  15.708  0.4821  0.3657  0.6590
  163DOPC   H7R19714   6.665   3.523  15.638  0.5088  1.1478  0.4037
  163DOPC   H7S19715   6.713   3.516  15.809  0.3360  2.2338  1.1271
  163DOPC   C2819716   6.868   3.460  15.661 -0.7588  0.6410 -0.4672
  163DOPC   H8R19717   6.940   3.446  15.745  0.3659 -1.1660 -1.6633
  163DOPC   H8S19718   6.911   3.520  15.579 -1.3491  2.1643  0.2923
  163DOPC   C2919719   6.835   3.320  15.614  0.6805  0.2352  0.3750
  163DOPC   H9R19720   6.816   3.249  15.696 -0.4766  0.8139  0.6265
  163DOPC  C21019721   6.800   3.280  15.487  0.4727 -1.1909 -0.5054
  163DOPC  H10R19722   6.780   3.173  15.470  0.6174 -0.8870 -3.0458
  163DOPC  C21119723   6.793   3.367  15.365 -0.6896 -0.1632 -0.2611
  163DOPC  H11R19724   6.792   3.475  15.388 -2.4631  0.0866 -1.3875
  163DOPC  H11S19725   6.695   3.341  15.321 -1.2370 -0.1550  0.9169
  163DOPC  C21219726   6.900   3.344  15.261  0.2315  0.5715 -0.8242
  163DOPC  H12R19727   6.877   3.245  15.217  0.9643 -0.6188  1.3134
  163DOPC  H12S19728   7.004   3.355  15.301  0.2674  0.1050 -0.7836
  163DOPC  C21319729   6.878   3.444  15.141 -0.0134  0.0706 -0.3602
  163DOPC  H13R19730   6.949   3.528  15.157  0.2271 -0.3332  0.8079
  163DOPC  H13S19731   6.778   3.489  15.158 -0.5492 -1.4731  0.8698
  163DOPC  C21419732   6.900   3.382  15.002 -0.1038 -0.4000  0.6382
  163DOPC  H14R19733   6.834   3.293  14.993 -0.6230 -0.1020  1.4009
  163DOPC  H14S19734   7.003   3.342  14.987  0.1120  0.5867 -0.7877
  163DOPC  C21519735   6.871   3.480  14.892  0.0483 -0.0697 -0.4272
  163DOPC  H15R19736   6.916   3.581  14.905 -1.2602  0.4518  0.3083
  163DOPC  H15S19737   6.763   3.502  14.907 -0.1555 -0.1222 -1.6956
  163DOPC  C21619738   6.884   3.422  14.751 -0.4001  0.6401  0.0639
  163DOPC  H16R19739   6.974   3.360  14.731 -1.6608 -1.1235 -0.3896
  163DOPC  H16S19740   6.874   3.493  14.666  1.2246  1.3337  0.4194
  163DOPC  C21719741   6.764   3.325  14.725  0.1376  0.0351 -0.1610
  163DOPC  H17R19742   6.674   3.387  14.740 -0.6249 -1.1193  0.1507
  163DOPC  H17S19743   6.754   3.243  14.799  0.3644  1.3735  1.4065
  163DOPC  C21819744   6.755   3.290  14.577  0.0110  0.3019  0.4702
  163DOPC  H18R19745   6.687   3.204  14.559  0.1862  0.4794 -1.2056
  163DOPC  H18S19746   6.851   3.263  14.527  0.7857  2.4653  0.6863
  163DOPC  H18T19747   6.718   3.370  14.509  2.2944 -0.9700 -2.5181
  163DOPC   C3319748   6.090   4.172  15.799 -0.1784 -0.3815 -0.0362
  163DOPC   H3X19749   5.982   4.196  15.808  0.1413  1.1902 -0.1540
  163DOPC   H3Y19750   6.098   4.064  15.824  4.4144  0.2084  2.0287
  163DOPC   C3419751   6.145   4.202  15.664 -0.5288 -0.4885  0.1935
  163DOPC   H4X19752   6.244   4.151  15.661 -0.1341  0.1158  1.8375
  163DOPC   H4Y19753   6.162   4.312  15.666 -0.8101 -0.4213 -0.4903
  163DOPC   C3519754   6.057   4.143  15.555  0.0744 -0.0218 -0.6778
  163DOPC   H5X19755   5.959   4.196  15.549  0.0162  0.0104  0.3681
  163DOPC   H5Y19756   6.036   4.038  15.586  0.1946  0.3073  0.5839
  163DOPC   C3619757   6.127   4.137  15.422  0.0712 -0.8858  0.8968
  163DOPC   H6X19758   6.164   4.236  15.388 -1.3172 -0.3479  0.8841
  163DOPC   H6Y19759   6.215   4.070  15.430  1.4024  0.5641 -0.7936
  163DOPC   C3719760   6.040   4.063  15.313 -0.7456 -0.2765  0.4193
  163DOPC   H7X19761   6.012   3.965  15.356 -3.4548  0.2360  0.0264
  163DOPC   H7Y19762   5.945   4.121  15.311 -0.8601 -0.4699 -0.4953
  163DOPC   C3819763   6.121   4.044  15.189 -0.7098 -0.0592  0.0002
  163DOPC   H8X19764   6.208   3.984  15.223  0.0408  1.0664  0.1513
  163DOPC   H8Y19765   6.165   4.138  15.148 -0.4183  0.0846  0.6182
  163DOPC   C3919766   6.044   3.971  15.091  0.8746  0.2982  0.4614
  163DOPC   H9X19767   5.963   3.912  15.136  0.2604  0.4599 -0.3921
  163DOPC  C31019768   6.068   3.950  14.960  0.6473 -0.4866  0.5987
  163DOPC  H10X19769   5.998   3.903  14.889  1.7361 -2.7202  0.8953
  163DOPC  C31119770   6.183   4.016  14.883  0.2383 -0.0189 -0.1084
  163DOPC  H11X19771   6.270   3.977  14.940 -0.4672  1.3090  1.9961
  163DOPC  H11Y19772   6.179   4.126  14.895  0.7441 -0.0154  0.0525
  163DOPC  C31219773   6.182   3.960  14.737  0.2838 -0.1043 -0.4545
  163DOPC  H12X19774   6.182   3.849  14.729 -0.4003 -0.0653 -1.0732
  163DOPC  H12Y19775   6.285   3.989  14.707  0.5507 -1.3001 -0.7609
  163DOPC  C31319776   6.077   4.028  14.654  0.0275  0.1389  0.1925
  163DOPC  H13X19777   5.973   4.000  14.682 -0.5037  3.1799  1.7512
  163DOPC  H13Y19778   6.080   4.138  14.668 -1.0295  0.0648  1.2382
  163DOPC  C31419779   6.109   4.000  14.502 -0.1273 -0.8103 -0.9384
  163DOPC  H14X19780   6.220   3.994  14.501 -0.0723 -0.2802 -2.6929
  163DOPC  H14Y19781   6.066   3.904  14.467  0.1691 -1.1430 -0.3995
  163DOPC  C31519782   6.068   4.108  14.401 -0.6729  0.4299  0.2750
  163DOPC  H15X19783   6.108   4.081  14.300  0.4130 -3.6654  1.5909
  163DOPC  H15Y19784   6.109   4.206  14.433 -1.4719  0.8086  0.1724
  163DOPC  C31619785   5.917   4.133  14.393  0.2483 -0.4315  0.0680
  163DOPC  H16X19786   5.861   4.039  14.373 -0.9629  0.3461 -0.2852
  163DOPC  H16Y19787   5.872   4.169  14.488  0.0251 -0.1237 -0.1567
  163DOPC  C31719788   5.885   4.232  14.276  0.7634  0.0379 -0.1112
  163DOPC  H17X19789   5.907   4.176  14.183  0.9915  0.1008 -0.0931
  163DOPC  H17Y19790   5.775   4.250  14.270  0.8286  0.0859 -1.8451
  163DOPC  C31819791   5.956   4.365  14.273 -0.4240  0.5789 -0.0356
  163DOPC  H18X19792   5.904   4.435  14.205 -0.5758  1.4262  0.9281
  163DOPC  H18Y19793   5.950   4.408  14.375 -0.8852  0.5267 -0.0416
  163DOPC  H18Z19794   6.064   4.361  14.248 -0.7383 -1.7827 -1.3086
  164DOPC     N19795   1.084   2.180  17.181  0.5561  0.0287 -0.5283
  164DOPC   C1219796   0.943   2.248  17.171 -0.0292  0.1982 -0.2058
  164DOPC  H12A19797   0.951   2.351  17.140 -0.6246  0.8073  1.5487
  164DOPC  H12B19798   0.903   2.255  17.271 -0.9112 -0.3238 -0.5137
  164DOPC   C1319799   1.174   2.263  17.254 -0.4194 -1.2867 -0.0222
  164DOPC  H13A19800   1.269   2.212  17.258 -0.4286 -1.4568 -1.3942
  164DOPC  H13B19801   1.206   2.352  17.202  1.2811 -2.8999 -1.8986
  164DOPC  H13C19802   1.140   2.288  17.353  0.6382 -0.7076  0.2126
  164DOPC   C1419803   1.148   2.165  17.045  0.5297  0.4781 -0.2948
  164DOPC  H14A19804   1.202   2.254  17.015 -0.3342  0.5610 -1.6953
  164DOPC  H14B19805   1.214   2.080  17.051 -0.3714 -0.4281 -2.2396
  164DOPC  H14C19806   1.072   2.142  16.972  1.1299  1.3701 -1.2341
  164DOPC   C1519807   1.076   2.039  17.240  0.3410  0.6037 -0.3600
  164DOPC  H15A19808   1.174   1.996  17.226  0.1827  0.1423 -0.0770
  164DOPC  H15B19809   1.011   1.974  17.183 -0.3783 -0.7060  1.8320
  164DOPC  H15C19810   1.031   2.039  17.338 -1.2157  2.1546 -1.0146
  164DOPC   C1119811   0.842   2.191  17.067 -0.0110  0.0925 -0.5941
  164DOPC  H11A19812   0.817   2.084  17.079 -1.8451  0.4173 -1.2248
  164DOPC  H11B19813   0.742   2.234  17.092 -0.7965 -0.8865 -1.9765
  164DOPC     P19814   0.869   2.370  16.887 -0.0447  0.2582 -0.0997
  164DOPC   O1319815   0.994   2.420  16.833  0.5383 -0.2659  0.6347
  164DOPC   O1419816   0.815   2.448  17.002  0.0422  0.7485 -0.2588
  164DOPC   O1219817   0.888   2.216  16.933  0.1054 -0.4899 -0.4196
  164DOPC   O1119818   0.769   2.359  16.768  0.4788  0.2177 -0.0781
  164DOPC    C119819   0.721   2.239  16.711  0.7218 -0.3633  0.3313
  164DOPC    HA19820   0.613   2.224  16.735  0.4129  1.2461  0.0227
  164DOPC    HB19821   0.774   2.149  16.750 -0.5321 -0.3025  2.3614
  164DOPC    C219822   0.719   2.235  16.554  0.0390  0.4043  0.2921
  164DOPC    HS19823   0.659   2.144  16.537 -0.6696  0.5009  2.0499
  164DOPC   O2119824   0.858   2.235  16.496  0.5829 -0.2432  0.1405
  164DOPC   C2119825   0.903   2.112  16.491  1.1899  0.8514 -0.4821
  164DOPC   O2219826   0.846   2.015  16.543 -0.1292 -0.1314  0.3567
  164DOPC   C2219827   1.037   2.112  16.415 -0.4251 -0.1760  0.6819
  164DOPC   H2R19828   1.102   2.043  16.473  0.6533 -2.2557 -2.6956
  164DOPC   H2S19829   1.093   2.208  16.421  2.5347 -1.3551 -3.3609
  164DOPC    C319830   0.634   2.347  16.493  0.0230 -0.2412 -0.2771
  164DOPC    HX19831   0.683   2.444  16.518  0.8766 -0.9754  0.9555
  164DOPC    HY19832   0.528   2.348  16.528 -0.2222 -0.8966 -0.9836
  164DOPC   O3119833   0.632   2.326  16.349 -0.6691  0.2551  0.5317
  164DOPC   C3119834   0.594   2.434  16.284  0.1064  0.3093 -0.0629
  164DOPC   O3219835   0.557   2.536  16.341  0.3593  0.2769  0.6346
  164DOPC   C3219836   0.601   2.419  16.128 -0.6579  0.0191 -0.3803
  164DOPC   H2X19837   0.661   2.330  16.098 -1.2565 -0.6217  0.2736
  164DOPC   H2Y19838   0.496   2.403  16.096 -0.9822  0.2882  0.5044
  164DOPC   C2319839   1.025   2.070  16.262  0.0410 -0.1333 -0.2778
  164DOPC   H3R19840   0.952   1.988  16.248 -1.1765  0.9956 -0.6912
  164DOPC   H3S19841   1.118   2.018  16.230  1.7235  1.8298  1.1586
  164DOPC   C2419842   1.008   2.186  16.165 -0.2942  0.3880  0.6524
  164DOPC   H4R19843   1.086   2.264  16.180 -0.9062  1.1318  0.0594
  164DOPC   H4S19844   0.909   2.224  16.197  0.2884  0.9703  1.8274
  164DOPC   C2519845   0.992   2.144  16.015 -0.2543  0.5549 -0.9150
  164DOPC   H5R19846   0.916   2.065  15.998 -0.1570 -0.1306  1.4882
  164DOPC   H5S19847   1.088   2.105  15.975  0.5178  0.5534  0.8439
  164DOPC   C2619848   0.947   2.271  15.938  0.0600  0.9400 -0.0930
  164DOPC   H6R19849   1.033   2.342  15.932  0.3600  0.6804  0.8575
  164DOPC   H6S19850   0.865   2.314  16.000 -1.1068  0.1243 -1.0451
  164DOPC   C2719851   0.889   2.244  15.799 -0.2701  0.1036  0.2896
  164DOPC   H7R19852   0.848   2.336  15.752  0.1824 -0.4190 -1.1929
  164DOPC   H7S19853   0.802   2.175  15.809 -0.9301  1.0631  1.3989
  164DOPC   C2819854   0.992   2.187  15.701  0.2742  0.2917 -0.4037
  164DOPC   H8R19855   1.050   2.103  15.745  1.2400  0.1731 -1.8401
  164DOPC   H8S19856   1.071   2.260  15.675  1.3583 -0.7329 -0.1105
  164DOPC   C2919857   0.919   2.147  15.578 -0.0331  0.1732  0.6670
  164DOPC   H9R19858   0.838   2.076  15.599 -0.0481 -0.1212 -0.3332
  164DOPC  C21019859   0.917   2.192  15.452 -0.4891  0.7957 -0.1874
  164DOPC  H10R19860   0.853   2.146  15.375 -0.3712 -0.1090  0.2453
  164DOPC  C21119861   1.006   2.308  15.401 -0.4739 -0.0081 -1.5856
  164DOPC  H11R19862   1.054   2.355  15.489  0.4763 -1.1186 -1.4862
  164DOPC  H11S19863   0.945   2.383  15.347 -1.0912 -1.3659 -2.8400
  164DOPC  C21219864   1.104   2.264  15.294 -0.0456 -0.7956 -0.3828
  164DOPC  H12R19865   1.186   2.196  15.324 -0.2735  0.2840  3.2248
  164DOPC  H12S19866   1.145   2.363  15.265 -0.4030 -0.4083  0.4007
  164DOPC  C21319867   1.044   2.199  15.178  0.4095 -0.6329  0.1800
  164DOPC  H13R19868   0.966   2.255  15.122  2.1689 -0.3708 -2.1386
  164DOPC  H13S19869   1.012   2.094  15.195 -0.2330 -0.5793 -0.6223
  164DOPC  C21419870   1.149   2.167  15.067 -0.0134 -0.6497 -0.3667
  164DOPC  H14R19871   1.227   2.102  15.110  1.3290  1.3200  0.3086
  164DOPC  H14S19872   1.193   2.268  15.055 -3.6322  0.9826 -1.3735
  164DOPC  C21519873   1.099   2.106  14.932  0.1818 -0.1107  0.5906
  164DOPC  H15R19874   0.995   2.073  14.954 -0.1156  0.6357  0.3287
  164DOPC  H15S19875   1.162   2.016  14.912  2.9122  1.7239  0.4194
  164DOPC  C21619876   1.115   2.206  14.818 -0.3142 -0.0526  0.1255
  164DOPC  H16R19877   1.224   2.228  14.813 -0.1791 -0.9367 -1.9829
  164DOPC  H16S19878   1.061   2.300  14.844  2.9345  2.1881 -0.6213
  164DOPC  C21719879   1.069   2.149  14.682  0.2354 -0.4052  0.5915
  164DOPC  H17R19880   0.958   2.158  14.675 -0.0702 -2.1154  2.1978
  164DOPC  H17S19881   1.105   2.044  14.683 -1.1005 -0.9233 -0.8818
  164DOPC  C21819882   1.128   2.211  14.559  0.1971 -0.1063  0.2860
  164DOPC  H18R19883   1.091   2.165  14.465 -0.1689 -1.5933  1.1142
  164DOPC  H18S19884   1.239   2.213  14.550  0.2281 -1.2880  0.1961
  164DOPC  H18T19885   1.099   2.318  14.564 -2.0846 -0.7045  0.9674
  164DOPC   C3319886   0.635   2.562  16.075 -0.8099  0.7969 -0.1974
  164DOPC   H3X19887   0.720   2.610  16.128 -1.9293  0.3678  2.0930
  164DOPC   H3Y19888   0.542   2.618  16.099  0.3673  2.9149 -0.2699
  164DOPC   C3419889   0.676   2.562  15.926  0.7699  0.6449  0.8305
  164DOPC   H4X19890   0.762   2.500  15.894  2.0921  2.9587 -0.3619
  164DOPC   H4Y19891   0.710   2.666  15.906 -1.1614  0.9696 -1.2171
  164DOPC   C3519892   0.553   2.521  15.836 -0.3754 -0.5025  0.3550
  164DOPC   H5X19893   0.464   2.577  15.872 -0.2600  0.1936 -0.4057
  164DOPC   H5Y19894   0.520   2.417  15.853 -3.4506  0.4334  0.7894
  164DOPC   C3619895   0.577   2.541  15.686 -0.1494 -0.5606  0.7626
  164DOPC   H6X19896   0.579   2.651  15.668  1.0910 -0.3391  2.0726
  164DOPC   H6Y19897   0.681   2.510  15.663 -0.6272 -1.0159 -0.9156
  164DOPC   C3719898   0.466   2.481  15.609  0.3019  0.4482  0.8138
  164DOPC   H7X19899   0.470   2.371  15.624 -0.0318  0.4550  0.9703
  164DOPC   H7Y19900   0.370   2.514  15.655 -0.5255 -0.2092 -0.3684
  164DOPC   C3819901   0.456   2.512  15.464  0.4786 -0.4999 -0.0056
  164DOPC   H8X19902   0.458   2.622  15.453  1.9378 -0.5395 -0.2451
  164DOPC   H8Y19903   0.355   2.482  15.428  0.1562  1.1337 -0.5499
  164DOPC   C3919904   0.574   2.463  15.380 -0.2667 -0.2967 -0.3881
  164DOPC   H9X19905   0.676   2.465  15.421 -1.1924  1.4345  2.0659
  164DOPC  C31019906   0.549   2.405  15.264 -0.2199 -0.2757 -0.4166
  164DOPC  H10X19907   0.637   2.366  15.210 -0.3735 -0.0503 -0.8319
  164DOPC  C31119908   0.418   2.374  15.195  0.2166 -0.5432  0.3610
  164DOPC  H11X19909   0.331   2.430  15.236  0.8212  1.0408 -0.3990
  164DOPC  H11Y19910   0.385   2.269  15.199 -1.0090 -0.1492  1.2382
  164DOPC  C31219911   0.428   2.412  15.049 -0.9027  0.2441 -0.5499
  164DOPC  H12X19912   0.498   2.343  14.998 -0.3851 -0.1532  0.6539
  164DOPC  H12Y19913   0.464   2.516  15.033 -0.1050  0.0694  0.0706
  164DOPC  C31319914   0.296   2.397  14.989 -0.6604 -0.5724  0.8826
  164DOPC  H13X19915   0.241   2.311  15.032 -1.2465 -0.3788  0.5389
  164DOPC  H13Y19916   0.232   2.487  14.999  0.1044  0.6590 -3.3143
  164DOPC  C31419917   0.296   2.375  14.833 -0.2265 -0.1016  0.7604
  164DOPC  H14X19918   0.198   2.341  14.794  1.0902 -0.2588 -2.7303
  164DOPC  H14Y19919   0.365   2.297  14.795 -0.3736  1.5000 -3.2832
  164DOPC  C31519920   0.323   2.515  14.769  0.1688 -0.2288  0.8298
  164DOPC  H15X19921   0.415   2.554  14.819  1.1277 -0.9406 -0.3257
  164DOPC  H15Y19922   0.236   2.578  14.797  0.3903  0.9830 -1.0084
  164DOPC  C31619923   0.344   2.506  14.616 -0.0267  0.0277 -0.5336
  164DOPC  H16X19924   0.410   2.417  14.605  1.0681  0.6585  0.6590
  164DOPC  H16Y19925   0.249   2.476  14.568 -0.2613 -1.1723  0.6496
  164DOPC  C31719926   0.406   2.627  14.553  0.0814 -0.3609  0.0949
  164DOPC  H17X19927   0.401   2.627  14.442  0.0166 -1.3420  0.0889
  164DOPC  H17Y19928   0.343   2.715  14.578 -1.0003 -1.1695  0.2971
  164DOPC  C31819929   0.555   2.666  14.593  0.6025 -0.3634 -0.0424
  164DOPC  H18X19930   0.626   2.597  14.543 -0.5016 -1.3956 -0.2453
  164DOPC  H18Y19931   0.575   2.771  14.563 -0.0892 -0.1541  0.2182
  164DOPC  H18Z19932   0.566   2.658  14.703  1.1505  0.7561 -0.0012
  165DOPC     N19933   4.091   0.007  16.601 -0.4141 -0.5919  0.8386
  165DOPC   C1219934   4.137  -0.035  16.458  0.5869 -0.4854 -0.4334
  165DOPC  H12A19935   4.088  -0.127  16.430  1.5304 -1.0639 -0.2125
  165DOPC  H12B19936   4.243  -0.046  16.471  0.5929  0.3806  0.3658
  165DOPC   C1319937   4.192   0.110  16.650  0.0370 -0.0854  0.3867
  165DOPC  H13A19938   4.293   0.071  16.648 -0.6534 -1.9754  0.1481
  165DOPC  H13B19939   4.192   0.194  16.582 -1.1540 -0.0990  0.3487
  165DOPC  H13C19940   4.158   0.155  16.742 -0.2448 -0.3484  0.4094
  165DOPC   C1419941   4.106  -0.114  16.692 -0.3647 -0.1157  0.2797
  165DOPC  H14A19942   4.036  -0.186  16.653  0.1340 -0.0760 -0.7401
  165DOPC  H14B19943   4.205  -0.158  16.685 -1.2306 -1.9747 -1.3979
  165DOPC  H14C19944   4.084  -0.097  16.796  1.2758 -1.3414  0.8699
  165DOPC   C1519945   3.953   0.065  16.598  0.5490 -0.2768 -0.1262
  165DOPC  H15A19946   3.919   0.091  16.697  0.0273 -2.0123  0.1953
  165DOPC  H15B19947   3.883  -0.010  16.563 -0.0811  0.8039 -1.2450
  165DOPC  H15C19948   3.936   0.150  16.534 -2.5276 -1.0407 -0.4654
  165DOPC   C1119949   4.109   0.070  16.338 -0.0004  1.1536 -0.7541
  165DOPC  H11A19950   4.142   0.025  16.243 -0.8131  0.1607 -0.5787
  165DOPC  H11B19951   3.999   0.088  16.339 -0.1938 -0.0014 -0.1593
  165DOPC     P19952   4.114   0.332  16.351  0.2960 -0.3363  0.2851
  165DOPC   O1319953   4.212   0.423  16.409  0.4006  0.1198 -0.6141
  165DOPC   O1419954   3.976   0.325  16.408 -0.0154  0.2511  0.2706
  165DOPC   O1219955   4.186   0.192  16.350 -0.3318 -0.2189 -0.2076
  165DOPC   O1119956   4.094   0.351  16.196  0.0795 -0.0266 -0.0358
  165DOPC    C119957   4.169   0.291  16.088  0.6943 -0.4560 -0.5195
  165DOPC    HA19958   4.099   0.314  16.004 -0.0214  1.6551  0.5839
  165DOPC    HB19959   4.185   0.182  16.104  2.5183 -0.1398  0.0050
  165DOPC    C219960   4.308   0.346  16.062  0.0178 -0.1349 -0.2842
  165DOPC    HS19961   4.367   0.323  16.153  1.2550 -0.5352 -1.1498
  165DOPC   O2119962   4.300   0.488  16.033 -0.1385 -0.0265  0.0745
  165DOPC   C2119963   4.416   0.553  16.029  0.4663  0.3464 -0.2442
  165DOPC   O2219964   4.525   0.503  16.061  0.7503 -0.4202 -0.7511
  165DOPC   C2219965   4.403   0.702  16.007  0.2124  0.7361 -0.7642
  165DOPC   H2R19966   4.397   0.751  16.107 -1.1163  2.9954 -1.8708
  165DOPC   H2S19967   4.307   0.718  15.955  0.4972  1.7252 -1.0009
  165DOPC    C319968   4.381   0.253  15.961 -0.3421  0.0511 -0.9079
  165DOPC    HX19969   4.369   0.147  15.992  1.5521 -0.7439 -2.6683
  165DOPC    HY19970   4.489   0.275  15.976 -0.0941 -0.6597 -1.5768
  165DOPC   O3119971   4.342   0.270  15.829  0.9796  0.3698 -0.2658
  165DOPC   C3119972   4.437   0.283  15.739 -0.1267  0.3667  0.9457
  165DOPC   O3219973   4.557   0.297  15.757  0.5486  0.4174  0.1677
  165DOPC   C3219974   4.365   0.304  15.602 -0.0929 -0.3065 -0.2919
  165DOPC   H2X19975   4.295   0.219  15.588 -0.4015 -0.3236  1.1946
  165DOPC   H2Y19976   4.322   0.406  15.596 -2.3618 -1.2525 -1.4570
  165DOPC   C2319977   4.519   0.756  15.929 -0.0902  0.2334  1.0627
  165DOPC   H3R19978   4.616   0.752  15.983  1.3541 -3.3998 -1.4383
  165DOPC   H3S19979   4.504   0.863  15.903 -0.0512  0.1988  0.9015
  165DOPC   C2419980   4.549   0.680  15.804 -0.2389 -0.0676 -0.0144
  165DOPC   H4R19981   4.450   0.666  15.756 -0.9064 -1.0057  1.5549
  165DOPC   H4S19982   4.596   0.581  15.821 -0.5821 -0.3298 -0.5841
  165DOPC   C2519983   4.640   0.761  15.710 -1.0606 -0.0730 -0.4256
  165DOPC   H5R19984   4.720   0.810  15.771 -0.5370 -2.6102  1.0555
  165DOPC   H5S19985   4.579   0.844  15.669 -1.4193  0.1075  0.4586
  165DOPC   C2619986   4.714   0.686  15.600  0.0129  0.7913  0.0415
  165DOPC   H6R19987   4.748   0.582  15.619  0.6820  1.0320  0.1897
  165DOPC   H6S19988   4.807   0.735  15.565  1.3448 -1.8766 -0.4292
  165DOPC   C2719989   4.618   0.669  15.478  0.1386 -0.0240 -0.5769
  165DOPC   H7R19990   4.517   0.633  15.510  1.2138 -2.2199  0.5762
  165DOPC   H7S19991   4.663   0.589  15.416  1.6707 -0.3362  0.8656
  165DOPC   C2819992   4.609   0.794  15.388  0.3758 -0.1897 -0.5650
  165DOPC   H8R19993   4.715   0.820  15.365  0.5203 -1.5145 -1.4604
  165DOPC   H8S19994   4.568   0.878  15.448  0.3046 -0.4179 -0.2924
  165DOPC   C2919995   4.523   0.760  15.271  0.1762 -0.1932  0.3502
  165DOPC   H9R19996   4.417   0.758  15.300  0.2003 -0.2405  0.4333
  165DOPC  C21019997   4.553   0.736  15.142  0.0336  0.6159  0.9242
  165DOPC  H10R19998   4.475   0.721  15.067  0.9036 -0.8660  0.2731
  165DOPC  C21119999   4.693   0.728  15.083 -0.9692 -0.1848 -0.6819
  165DOPC  H11R20000   4.725   0.623  15.072 -1.3326 -0.4450  0.6313
  165DOPC  H11S20001   4.762   0.779  15.153 -0.1558 -2.0055 -0.1145
  165DOPC  C21220002   4.722   0.800  14.945  0.1536  0.6235 -0.2612
  165DOPC  H12R20003   4.832   0.798  14.933  0.1577 -1.8588 -0.2722
  165DOPC  H12S20004   4.691   0.907  14.936 -1.4188  0.0245 -3.7273
  165DOPC  C21320005   4.674   0.719  14.822 -0.0649 -0.6786  0.4504
  165DOPC  H13R20006   4.564   0.701  14.828 -0.0256 -1.2638 -0.3773
  165DOPC  H13S20007   4.732   0.624  14.824  1.9160  0.4828  2.0655
  165DOPC  C21420008   4.703   0.802  14.692  0.2971 -0.4571 -0.1351
  165DOPC  H14R20009   4.811   0.829  14.692  0.3053 -0.4333  1.0769
  165DOPC  H14S20010   4.647   0.896  14.710 -1.5643 -1.7814  1.4329
  165DOPC  C21520011   4.650   0.732  14.571  0.2885  0.0355  1.0177
  165DOPC  H15R20012   4.669   0.804  14.488  2.4187 -0.7313  0.7829
  165DOPC  H15S20013   4.541   0.714  14.577  0.2787 -0.8694 -1.0190
  165DOPC  C21620014   4.720   0.601  14.527  0.3670 -0.0527 -0.2508
  165DOPC  H16R20015   4.707   0.531  14.612  0.6154 -1.4751 -1.3514
  165DOPC  H16S20016   4.829   0.616  14.518  0.5105  1.3642  2.6583
  165DOPC  C21720017   4.677   0.542  14.394 -0.1038 -0.6938 -0.1714
  165DOPC  H17R20018   4.571   0.511  14.407 -0.1284 -0.5510 -0.0240
  165DOPC  H17S20019   4.723   0.443  14.378 -1.6205 -1.2753 -1.2167
  165DOPC  C21820020   4.694   0.623  14.263 -0.6244 -0.0402  0.1810
  165DOPC  H18R20021   4.624   0.709  14.267  1.0925  1.3823  0.6745
  165DOPC  H18S20022   4.657   0.562  14.177 -4.3991  1.2644  0.6935
  165DOPC  H18T20023   4.796   0.642  14.223 -0.2351 -0.9460  0.6911
  165DOPC   C3320024   4.472   0.293  15.490  0.1314  0.1554 -0.4661
  165DOPC   H3X20025   4.528   0.197  15.490 -2.5346 -1.5216  0.8594
  165DOPC   H3Y20026   4.541   0.379  15.506 -3.0861  2.9482 -0.4420
  165DOPC   C3420027   4.412   0.305  15.352  0.3459  0.1913 -0.0742
  165DOPC   H4X20028   4.377   0.409  15.333 -0.7508 -0.3472 -1.0957
  165DOPC   H4Y20029   4.326   0.236  15.346 -1.5158  2.1373  2.3341
  165DOPC   C3520030   4.518   0.281  15.246  0.5549  0.3573 -0.4446
  165DOPC   H5X20031   4.548   0.175  15.255 -1.5831 -0.2902 -0.4192
  165DOPC   H5Y20032   4.602   0.354  15.252  0.3032  0.5795  0.5333
  165DOPC   C3620033   4.477   0.316  15.101  0.2338  0.6148 -0.1176
  165DOPC   H6X20034   4.389   0.254  15.072  0.1232 -0.9133  3.0769
  165DOPC   H6Y20035   4.446   0.422  15.111  1.4483  1.1110 -1.3519
  165DOPC   C3720036   4.578   0.309  14.996  0.8585  0.2115  0.0058
  165DOPC   H7X20037   4.606   0.205  14.969  1.6638  0.7619 -1.4301
  165DOPC   H7Y20038   4.669   0.357  15.038  1.6733 -1.6408  0.4315
  165DOPC   C3820039   4.531   0.395  14.877  1.0931 -0.7625 -0.3980
  165DOPC   H8X20040   4.619   0.394  14.809  1.3149 -1.8212 -0.1083
  165DOPC   H8Y20041   4.516   0.494  14.926  2.8233 -0.8405  0.3420
  165DOPC   C3920042   4.406   0.347  14.804  0.2072  0.0744 -0.1039
  165DOPC   H9X20043   4.426   0.267  14.732 -0.4956 -2.2783  2.1581
  165DOPC  C31020044   4.273   0.381  14.823  0.2593 -0.3350 -0.0915
  165DOPC  H10X20045   4.195   0.335  14.760  0.6005 -1.2486  0.1427
  165DOPC  C31120046   4.206   0.481  14.915 -0.2544  0.4251 -0.5534
  165DOPC  H11X20047   4.167   0.576  14.873 -0.6496  0.2655 -0.5460
  165DOPC  H11Y20048   4.272   0.509  15.001 -0.1749 -0.5467 -0.2877
  165DOPC  C31220049   4.084   0.415  14.993  0.1766  0.7950 -0.5168
  165DOPC  H12X20050   4.131   0.335  15.053  0.9853  1.2996 -0.4608
  165DOPC  H12Y20051   4.011   0.368  14.923  0.1924 -0.5411  0.3225
  165DOPC  C31320052   4.019   0.517  15.087 -0.4598 -0.9226 -0.0633
  165DOPC  H13X20053   4.014   0.620  15.045  2.6088 -1.1301 -1.1876
  165DOPC  H13Y20054   3.917   0.484  15.114 -1.0297  0.5980 -0.2706
  165DOPC  C31420055   4.103   0.514  15.213 -0.1802 -0.6257 -0.0890
  165DOPC  H14X20056   4.127   0.412  15.251 -0.6888  0.0900  2.3148
  165DOPC  H14Y20057   4.196   0.569  15.190 -1.6539  2.0735 -0.1023
  165DOPC  C31520058   4.038   0.577  15.326 -0.1667 -0.3510  0.0735
  165DOPC  H15X20059   3.936   0.533  15.333 -0.4628  0.4074  0.7445
  165DOPC  H15Y20060   4.024   0.687  15.313 -0.5004 -0.1803  1.6383
  165DOPC  C31620061   4.109   0.546  15.461  0.2811 -0.1516 -0.2552
  165DOPC  H16X20062   4.147   0.442  15.454  0.1276 -0.1058 -2.3998
  165DOPC  H16Y20063   4.198   0.611  15.465  2.0208 -2.3553 -1.1736
  165DOPC  C31720064   4.022   0.538  15.593 -0.0003 -0.2421 -0.1339
  165DOPC  H17X20065   3.977   0.639  15.598 -0.9170 -0.6276 -0.4083
  165DOPC  H17Y20066   3.933   0.476  15.568 -1.2690  2.0525 -1.6015
  165DOPC  C31820067   4.071   0.488  15.725 -0.1767  0.1585 -0.5912
  165DOPC  H18X20068   4.113   0.385  15.724 -1.1798 -0.2963  0.9005
  165DOPC  H18Y20069   4.145   0.560  15.765 -2.0891  1.2291  1.2051
  165DOPC  H18Z20070   3.988   0.495  15.799 -0.7536  0.0697 -1.2207
  166DOPC     N20071   5.496   3.547  16.430  0.1166 -0.1677 -0.8566
  166DOPC   C1220072   5.450   3.418  16.497 -0.7732 -0.4605 -0.3327
  166DOPC  H12A20073   5.345   3.430  16.518 -0.5061 -0.3807  1.0645
  166DOPC  H12B20074   5.508   3.399  16.587  0.8563  2.7105 -0.5719
  166DOPC   C1320075   5.444   3.649  16.519  0.3106  0.2392  0.0818
  166DOPC  H13A20076   5.488   3.637  16.617 -1.3206  0.3533  0.8633
  166DOPC  H13B20077   5.465   3.751  16.488  0.7524  0.5303  1.3091
  166DOPC  H13C20078   5.339   3.642  16.542  0.1791 -3.1777 -1.0633
  166DOPC   C1420079   5.455   3.562  16.286  0.6270 -0.0677 -0.4640
  166DOPC  H14A20080   5.354   3.597  16.272  0.0217 -1.2417  0.7405
  166DOPC  H14B20081   5.524   3.632  16.241  1.7333  0.4953  1.9276
  166DOPC  H14C20082   5.467   3.467  16.237 -0.5533  0.2607 -1.4356
  166DOPC   C1520083   5.647   3.532  16.444 -0.3121  0.2948 -0.3261
  166DOPC  H15A20084   5.693   3.623  16.407 -0.9780 -0.2860 -2.7676
  166DOPC  H15B20085   5.671   3.455  16.372  1.1126  1.1347 -0.7899
  166DOPC  H15C20086   5.678   3.492  16.539 -0.4404 -0.9464 -0.7933
  166DOPC   C1120087   5.453   3.280  16.421 -0.3574 -0.4897 -0.2101
  166DOPC  H11A20088   5.397   3.197  16.469 -0.3451 -1.6296 -2.0560
  166DOPC  H11B20089   5.393   3.300  16.330 -1.1724  0.1786  0.4658
  166DOPC     P20090   5.672   3.162  16.500 -0.1357  0.2174  0.1027
  166DOPC   O1320091   5.622   3.026  16.533  0.2224  0.0711 -0.5930
  166DOPC   O1420092   5.699   3.263  16.610  0.2179 -0.4101 -0.2384
  166DOPC   O1220093   5.583   3.230  16.389  0.1999  0.0804 -0.4486
  166DOPC   O1120094   5.815   3.138  16.433  0.3419  0.6113 -0.1575
  166DOPC    C120095   5.825   3.097  16.299 -0.1821  0.2317  0.0451
  166DOPC    HA20096   5.729   3.054  16.262  0.4023 -2.3195  1.2582
  166DOPC    HB20097   5.906   3.022  16.287  0.8953  1.4414 -0.4822
  166DOPC    C220098   5.868   3.217  16.213 -0.5853  0.5290  0.1520
  166DOPC    HS20099   5.799   3.303  16.222  1.1662  2.2919 -2.1566
  166DOPC   O2120100   5.874   3.175  16.079  0.4843 -0.4461 -0.2211
  166DOPC   C2120101   5.808   3.241  15.985 -0.2879 -0.5001  0.0535
  166DOPC   O2220102   5.725   3.330  16.004  0.4033  0.2346  0.4133
  166DOPC   C2220103   5.840   3.194  15.840  0.2710 -0.1998 -0.3534
  166DOPC   H2R20104   5.799   3.271  15.771  0.3837 -0.2466 -0.4716
  166DOPC   H2S20105   5.785   3.101  15.817 -1.5222  0.8639 -0.5827
  166DOPC    C320106   6.010   3.266  16.256 -0.0595 -0.7497 -0.0598
  166DOPC    HX20107   6.092   3.192  16.243 -1.8655 -2.3504 -3.3456
  166DOPC    HY20108   5.996   3.275  16.366 -0.0677  0.3747 -0.1353
  166DOPC   O3120109   6.048   3.391  16.186 -0.0178  0.3152 -0.2215
  166DOPC   C3120110   6.005   3.505  16.244  0.0917 -0.3994 -0.1840
  166DOPC   O3220111   5.946   3.504  16.353  0.3183  0.2633  0.4492
  166DOPC   C3220112   6.053   3.622  16.152 -0.0069  0.4654 -0.2396
  166DOPC   H2X20113   6.146   3.640  16.209  0.6120 -1.3796 -0.6149
  166DOPC   H2Y20114   6.066   3.583  16.049  0.2261 -2.2429  0.7457
  166DOPC   C2320115   5.990   3.197  15.797  0.2565  0.0710  0.5028
  166DOPC   H3R20116   6.059   3.152  15.870 -1.1800  0.9159  2.4917
  166DOPC   H3S20117   6.006   3.307  15.786 -2.7416  0.5379 -0.2505
  166DOPC   C2420118   6.021   3.127  15.663  0.0068 -0.0843  0.4419
  166DOPC   H4R20119   5.948   3.044  15.644  0.6563 -0.3506 -1.0186
  166DOPC   H4S20120   6.125   3.088  15.660  0.2472  0.5741 -2.0386
  166DOPC   C2520121   6.006   3.211  15.542 -0.4825 -0.5095  0.9036
  166DOPC   H5R20122   6.086   3.288  15.537 -0.5368 -0.5163 -1.2117
  166DOPC   H5S20123   5.907   3.260  15.543  0.0817  0.6551  1.5997
  166DOPC   C2620124   6.010   3.146  15.398 -0.1762 -0.6068 -0.3321
  166DOPC   H6R20125   5.928   3.072  15.383 -0.0707 -0.6714 -0.5993
  166DOPC   H6S20126   6.101   3.085  15.381  0.3921 -0.1446  0.9173
  166DOPC   C2720127   5.996   3.256  15.291  0.5199  0.3457 -0.3921
  166DOPC   H7R20128   6.069   3.339  15.296 -0.5174  1.1990  1.5569
  166DOPC   H7S20129   5.899   3.305  15.313  0.1334 -0.9508  1.0452
  166DOPC   C2820130   5.975   3.201  15.147  0.1321 -0.3429  0.4695
  166DOPC   H8R20131   5.903   3.260  15.087 -1.2097 -2.9967 -0.6457
  166DOPC   H8S20132   5.916   3.108  15.158  0.0499 -0.5035 -1.1554
  166DOPC   C2920133   6.097   3.165  15.064 -0.2745 -0.0554  0.1238
  166DOPC   H9R20134   6.192   3.166  15.120  0.0627  0.9866 -0.4298
  166DOPC  C21020135   6.095   3.139  14.933  0.0986  0.1222  0.0576
  166DOPC  H10R20136   6.186   3.104  14.882 -0.1084 -1.9507  0.9722
  166DOPC  C21120137   5.976   3.139  14.841 -0.1424 -0.3104 -0.3255
  166DOPC  H11R20138   6.007   3.202  14.755 -2.7432 -1.0362 -1.8878
  166DOPC  H11S20139   5.886   3.187  14.885 -0.3447 -1.2443  0.3121
  166DOPC  C21220140   5.931   3.001  14.793  0.3210  0.3810 -0.1579
  166DOPC  H12R20141   5.887   2.948  14.880 -0.6773  0.4300 -0.6194
  166DOPC  H12S20142   6.019   2.942  14.759  0.5258  1.3987 -1.4718
  166DOPC  C21320143   5.832   3.001  14.674 -0.2549 -0.0782 -0.9063
  166DOPC  H13R20144   5.746   3.056  14.717  2.0321  2.1567  1.1236
  166DOPC  H13S20145   5.809   2.894  14.652 -2.3666  0.2341 -0.4228
  166DOPC  C21420146   5.898   3.061  14.549  0.3070  0.5720 -0.2842
  166DOPC  H14R20147   6.005   3.033  14.543  0.0688 -0.5859  0.5360
  166DOPC  H14S20148   5.902   3.171  14.561  2.5500  0.4642  0.3265
  166DOPC  C21520149   5.846   3.018  14.409 -0.1762  0.0331  0.2021
  166DOPC  H15R20150   5.756   3.083  14.394 -0.0239  0.2169  0.0739
  166DOPC  H15S20151   5.822   2.912  14.429  1.9804 -0.7834 -1.2004
  166DOPC  C21620152   5.942   3.028  14.294 -0.1778  0.2566  0.0802
  166DOPC  H16R20153   6.014   2.944  14.301 -0.6635 -0.2224 -0.5004
  166DOPC  H16S20154   5.996   3.126  14.296  0.4908 -0.1169  0.4325
  166DOPC  C21720155   5.877   3.019  14.151  0.4418 -0.4440 -1.3907
  166DOPC  H17R20156   5.955   3.010  14.072  0.9515 -2.1381 -0.7442
  166DOPC  H17S20157   5.827   3.117  14.135 -0.0231 -0.7458 -1.8236
  166DOPC  C21820158   5.771   2.911  14.136  0.3456 -0.1489 -1.0604
  166DOPC  H18R20159   5.690   2.924  14.211  0.6049 -0.7158 -0.6677
  166DOPC  H18S20160   5.827   2.816  14.155 -0.6934 -0.5562  0.1197
  166DOPC  H18T20161   5.739   2.904  14.030 -1.3338 -1.0254 -0.5299
  166DOPC   C3320162   5.955   3.747  16.150  0.1820  0.4448  0.2870
  166DOPC   H3X20163   6.026   3.830  16.170  1.8383 -0.4708 -1.5125
  166DOPC   H3Y20164   5.875   3.729  16.225  0.5137  0.9796  0.7834
  166DOPC   C3420165   5.901   3.775  16.008 -0.0553  0.1845 -0.6791
  166DOPC   H4X20166   5.986   3.790  15.938  0.4531 -2.5332 -0.7799
  166DOPC   H4Y20167   5.846   3.871  16.007 -1.6363 -0.7040 -1.4977
  166DOPC   C3520168   5.800   3.666  15.974 -0.7107  0.6727  0.0087
  166DOPC   H5X20169   5.703   3.669  16.029 -0.8324 -0.6689 -0.1012
  166DOPC   H5Y20170   5.840   3.567  16.005 -1.9607  1.1273  3.6442
  166DOPC   C3620171   5.766   3.661  15.829  0.2282  0.5708  0.1868
  166DOPC   H6X20172   5.697   3.574  15.824  1.3741 -0.5003  2.1027
  166DOPC   H6Y20173   5.705   3.743  15.786  0.8212 -0.4654 -2.8890
  166DOPC   C3720174   5.885   3.632  15.735 -0.1799 -0.4024 -0.1606
  166DOPC   H7X20175   5.946   3.723  15.716 -0.5155 -0.4435 -1.6177
  166DOPC   H7Y20176   5.959   3.569  15.788  1.3280  1.4882  0.1039
  166DOPC   C3820177   5.848   3.574  15.599 -0.3813 -0.1606  0.1426
  166DOPC   H8X20178   5.798   3.480  15.630  0.0509 -0.1939  0.7661
  166DOPC   H8Y20179   5.941   3.559  15.541 -1.7972  1.1696 -2.6364
  166DOPC   C3920180   5.754   3.658  15.521  0.2196 -0.1818  0.4074
  166DOPC   H9X20181   5.669   3.704  15.574  0.4476 -1.4962  1.9880
  166DOPC  C31020182   5.774   3.697  15.394 -0.3064  0.6765  0.2997
  166DOPC  H10X20183   5.694   3.748  15.339  0.0755  1.1933  0.2208
  166DOPC  C31120184   5.883   3.649  15.302 -0.3271  0.3155  1.3472
  166DOPC  H11X20185   5.948   3.566  15.337  0.5782 -0.5135 -1.8966
  166DOPC  H11Y20186   5.956   3.732  15.301 -1.0201  0.9706  2.9751
  166DOPC  C31220187   5.842   3.621  15.156  0.2916 -0.5939  0.1863
  166DOPC  H12X20188   5.792   3.703  15.100  1.4364 -0.6447 -0.9553
  166DOPC  H12Y20189   5.769   3.538  15.140 -1.5314  1.1264 -0.8329
  166DOPC  C31320190   5.959   3.600  15.056 -0.0720 -0.2307  0.2907
  166DOPC  H13X20191   6.023   3.689  15.045  1.2075 -1.3512 -2.1185
  166DOPC  H13Y20192   6.024   3.514  15.085  1.8833  0.6477 -1.2728
  166DOPC  C31420193   5.898   3.560  14.921 -0.7088  0.1471 -0.4009
  166DOPC  H14X20194   5.828   3.475  14.936 -0.2906  0.1056  1.4651
  166DOPC  H14Y20195   5.830   3.641  14.885 -2.9669 -1.5093 -0.0914
  166DOPC  C31520196   5.995   3.525  14.812 -0.2267  0.2026  0.5479
  166DOPC  H15X20197   6.034   3.424  14.836  0.6581  0.5438  0.5941
  166DOPC  H15Y20198   6.074   3.603  14.802  2.8501 -2.6342  1.1100
  166DOPC  C31620199   5.925   3.512  14.677 -1.0044  0.1878 -0.7314
  166DOPC  H16X20200   5.845   3.437  14.693 -0.4593  0.0479  1.6423
  166DOPC  H16Y20201   5.879   3.608  14.647 -2.0675 -0.7518 -2.3016
  166DOPC  C31720202   6.035   3.477  14.574  0.0735  0.0682  0.0898
  166DOPC  H17X20203   6.121   3.548  14.582  2.2235 -2.1591 -1.6745
  166DOPC  H17Y20204   6.080   3.383  14.612  2.1208  0.7501 -0.4730
  166DOPC  C31820205   5.969   3.469  14.436 -0.4760 -0.1044  0.4424
  166DOPC  H18X20206   5.895   3.387  14.446  0.1696 -0.7245  0.2219
  166DOPC  H18Y20207   5.917   3.563  14.409 -2.5783 -1.4433 -0.4806
  166DOPC  H18Z20208   6.039   3.455  14.351  0.9110  1.0844  1.3518
  167DOPC     N20209   5.997   3.278  16.793  0.7681 -0.4315  0.7244
  167DOPC   C1220210   5.954   3.133  16.777  1.2017 -0.0490  0.4186
  167DOPC  H12A20211   5.865   3.130  16.715  1.6529 -1.4549 -0.2179
  167DOPC  H12B20212   5.928   3.085  16.870  0.2968  1.1841  0.8283
  167DOPC   C1320213   6.119   3.297  16.882 -0.4830  0.2486 -0.1577
  167DOPC  H13A20214   6.130   3.400  16.914  0.5774  0.3184 -0.6801
  167DOPC  H13B20215   6.109   3.234  16.968  1.5597 -0.7597 -0.5927
  167DOPC  H13C20216   6.207   3.255  16.834  0.2134  0.6109  0.7643
  167DOPC   C1420217   5.880   3.359  16.859  0.4338  0.1527 -0.2330
  167DOPC  H14A20218   5.874   3.335  16.964  0.3110  1.3874  0.0519
  167DOPC  H14B20219   5.861   3.462  16.833 -1.3855 -0.4756 -1.6481
  167DOPC  H14C20220   5.789   3.314  16.822 -0.0608 -0.4881  1.6961
  167DOPC   C1520221   6.031   3.344  16.658 -0.3565  0.4626  0.2187
  167DOPC  H15A20222   6.108   3.285  16.610  0.5599  2.1251 -0.4400
  167DOPC  H15B20223   6.067   3.446  16.666  1.7804 -0.1421 -0.9749
  167DOPC  H15C20224   5.946   3.344  16.591  0.1962  0.0143 -0.4999
  167DOPC   C1120225   6.051   3.055  16.695 -0.2788  0.3752  0.2385
  167DOPC  H11A20226   6.015   2.950  16.682  2.3087 -0.3342 -2.1913
  167DOPC  H11B20227   6.060   3.098  16.593  0.8381  4.4572  1.8441
  167DOPC     P20228   6.225   2.940  16.866 -0.0546 -0.4315 -0.1401
  167DOPC   O1320229   6.111   2.902  16.952  0.0976 -0.8409  0.8700
  167DOPC   O1420230   6.354   2.975  16.939  0.1446 -0.1642 -0.5630
  167DOPC   O1220231   6.183   3.047  16.753  0.1261  0.6074 -0.0896
  167DOPC   O1120232   6.259   2.814  16.773  0.9162 -0.3156 -0.2663
  167DOPC    C120233   6.371   2.823  16.683 -0.0948 -0.4877 -0.0640
  167DOPC    HA20234   6.461   2.770  16.722  1.7612  1.5388 -1.4097
  167DOPC    HB20235   6.408   2.925  16.661 -0.6053 -0.5469 -1.2396
  167DOPC    C220236   6.342   2.763  16.545  0.1381  0.0176  0.1394
  167DOPC    HS20237   6.355   2.653  16.559 -4.1828 -0.6106  0.7581
  167DOPC   O2120238   6.428   2.820  16.444 -0.1130  0.1836 -0.5167
  167DOPC   C2120239   6.513   2.731  16.388 -0.5992  0.3139 -0.5021
  167DOPC   O2220240   6.521   2.611  16.410  0.6233  0.1245  0.1023
  167DOPC   C2220241   6.588   2.804  16.277 -0.5022  0.1110 -0.0606
  167DOPC   H2R20242   6.646   2.723  16.228  1.5861  0.1200  2.1980
  167DOPC   H2S20243   6.653   2.881  16.324  1.2130  0.2331 -2.4433
  167DOPC    C320244   6.192   2.779  16.501 -0.1389  0.0815 -0.0617
  167DOPC    HX20245   6.165   2.887  16.498 -2.4521 -0.2023  3.9694
  167DOPC    HY20246   6.128   2.738  16.581 -0.8662  0.2069 -0.5712
  167DOPC   O3120247   6.169   2.706  16.371  0.0084  0.1596 -0.4051
  167DOPC   C3120248   6.146   2.781  16.270  0.4488 -0.2652  0.0729
  167DOPC   O3220249   6.184   2.894  16.252  0.1993  0.5382 -0.5120
  167DOPC   C3220250   6.069   2.706  16.169 -0.4382  0.7782 -0.1269
  167DOPC   H2X20251   6.108   2.604  16.149  0.0463  0.8826  0.2704
  167DOPC   H2Y20252   5.963   2.703  16.202 -0.2314  2.1392  0.7391
  167DOPC   C2320253   6.491   2.864  16.175  0.6037 -0.1124  0.2800
  167DOPC   H3R20254   6.424   2.931  16.234 -1.1207 -0.1169 -1.5476
  167DOPC   H3S20255   6.430   2.778  16.139 -0.5729  0.5516  0.6276
  167DOPC   C2420256   6.548   2.936  16.058  0.0473  0.7132  0.7596
  167DOPC   H4R20257   6.627   2.867  16.019  0.5488  1.3258  0.6768
  167DOPC   H4S20258   6.595   3.033  16.084 -1.4584  1.3073  1.3320
  167DOPC   C2520259   6.445   2.966  15.946  0.0333 -0.2840 -0.9042
  167DOPC   H5R20260   6.367   3.037  15.981  0.7503  1.1000 -1.9839
  167DOPC   H5S20261   6.398   2.867  15.928 -0.2848 -0.2945 -0.0453
  167DOPC   C2620262   6.517   3.014  15.822  0.0402  0.0519  0.4748
  167DOPC   H6R20263   6.590   2.936  15.790 -0.0214  0.9474 -2.0637
  167DOPC   H6S20264   6.587   3.096  15.847  0.0653  0.0594  0.3794
  167DOPC   C2720265   6.429   3.032  15.698 -0.5420 -0.1963  0.4448
  167DOPC   H7R20266   6.337   3.085  15.730 -2.1086 -1.3252 -1.8951
  167DOPC   H7S20267   6.388   2.940  15.652  0.8387 -0.8276  0.4217
  167DOPC   C2820268   6.495   3.107  15.586 -0.5801  0.5198  0.0245
  167DOPC   H8R20269   6.559   3.032  15.535 -0.7323  0.8259 -0.6286
  167DOPC   H8S20270   6.555   3.188  15.633  3.0690 -0.4598 -2.4737
  167DOPC   C2920271   6.412   3.176  15.489 -0.3674 -0.5388  0.1771
  167DOPC   H9R20272   6.366   3.269  15.526  2.2628  0.6546  0.6303
  167DOPC  C21020273   6.383   3.123  15.370  0.2962 -0.3144  1.2692
  167DOPC  H10R20274   6.322   3.188  15.305  0.2116 -0.1044  1.5544
  167DOPC  C21120275   6.438   3.003  15.302  0.0435  0.4421  0.3810
  167DOPC  H11R20276   6.360   2.943  15.250 -0.1918 -0.4285  1.7081
  167DOPC  H11S20277   6.473   2.926  15.374 -0.4027 -0.1795 -0.0562
  167DOPC  C21220278   6.569   3.020  15.216  0.6616  0.3923 -0.4770
  167DOPC  H12R20279   6.637   3.089  15.272  0.5801  0.6323 -0.6706
  167DOPC  H12S20280   6.621   2.923  15.201 -1.3219 -1.3071  2.5780
  167DOPC  C21320281   6.550   3.093  15.080  1.0247  0.0853  0.4534
  167DOPC  H13R20282   6.656   3.114  15.053  1.3590  0.0284  1.6529
  167DOPC  H13S20283   6.494   3.189  15.090  0.8917  0.5475 -3.4064
  167DOPC  C21420284   6.467   3.004  14.984  0.2647 -0.3000  0.4081
  167DOPC  H14R20285   6.363   2.979  15.015 -0.0484  1.3063  0.7496
  167DOPC  H14S20286   6.524   2.910  14.969 -0.4351 -0.6371 -0.2157
  167DOPC  C21520287   6.457   3.067  14.842 -0.1887 -0.4567 -0.3285
  167DOPC  H15R20288   6.556   3.117  14.831 -0.8367  0.2829 -4.1636
  167DOPC  H15S20289   6.384   3.151  14.840  0.0798 -0.2298 -1.8414
  167DOPC  C21620290   6.432   2.967  14.734 -0.2407  0.2709  0.2681
  167DOPC  H16R20291   6.336   2.922  14.768  0.3078 -1.2222 -0.0554
  167DOPC  H16S20292   6.503   2.882  14.718  1.0235  1.1866  0.8511
  167DOPC  C21720293   6.412   3.023  14.598 -0.3802 -0.5516 -0.9318
  167DOPC  H17R20294   6.380   2.945  14.526 -0.3167 -0.6968 -0.8017
  167DOPC  H17S20295   6.513   3.056  14.565 -0.6667  0.5943 -0.7239
  167DOPC  C21820296   6.299   3.128  14.593  0.1088 -0.3448  0.8697
  167DOPC  H18R20297   6.344   3.212  14.649  0.4703  0.8315 -1.0985
  167DOPC  H18S20298   6.204   3.085  14.633 -1.6499  0.6478 -1.9088
  167DOPC  H18T20299   6.280   3.156  14.487 -0.5882  1.5349  1.4609
  167DOPC   C3320300   6.068   2.787  16.034 -0.1136  0.3211 -0.1765
  167DOPC   H3X20301   6.168   2.831  16.016 -0.2650  1.0282  0.6615
  167DOPC   H3Y20302   5.997   2.873  16.039  0.5765  0.8996 -0.1467
  167DOPC   C3420303   6.049   2.695  15.915 -0.1114  0.1511  0.6800
  167DOPC   H4X20304   5.955   2.637  15.916 -0.0310 -0.0200 -0.2317
  167DOPC   H4Y20305   6.129   2.618  15.911  1.0346  1.3379 -1.7419
  167DOPC   C3520306   6.084   2.766  15.780  0.0840 -0.2639 -0.2072
  167DOPC   H5X20307   6.182   2.818  15.788  0.4011 -0.9724  0.7565
  167DOPC   H5Y20308   6.013   2.851  15.777  1.3785  0.8645  0.1007
  167DOPC   C3620309   6.085   2.678  15.657 -0.4151  0.2911 -0.5578
  167DOPC   H6X20310   6.144   2.585  15.676 -1.7243 -0.2400  1.2169
  167DOPC   H6Y20311   5.984   2.639  15.630 -0.8254 -2.3567  3.7982
  167DOPC   C3720312   6.159   2.762  15.549  0.4010 -0.1786 -0.3839
  167DOPC   H7X20313   6.110   2.860  15.534 -0.0423 -0.5162 -1.2089
  167DOPC   H7Y20314   6.263   2.777  15.585  0.2188  0.8906 -0.2753
  167DOPC   C3820315   6.162   2.694  15.408 -0.2935  0.0979 -0.2353
  167DOPC   H8X20316   6.219   2.600  15.428 -1.8305 -0.6277  0.8985
  167DOPC   H8Y20317   6.228   2.755  15.343 -1.0644  1.7299  0.4541
  167DOPC   C3920318   6.031   2.655  15.344  0.0376 -0.7213  0.5297
  167DOPC   H9X20319   5.966   2.584  15.397  0.8457 -0.7260  1.5691
  167DOPC  C31020320   5.983   2.713  15.230  1.0385 -0.2450  0.4724
  167DOPC  H10X20321   5.887   2.678  15.189  1.2899  0.4740 -0.7936
  167DOPC  C31120322   6.042   2.828  15.155  0.2409  1.5562  0.8788
  167DOPC  H11X20323   6.096   2.890  15.230  0.4402  0.4023  1.7034
  167DOPC  H11Y20324   5.963   2.894  15.113 -1.5945  0.7259  2.8985
  167DOPC  C31220325   6.130   2.765  15.048  0.3843 -0.0007  0.1735
  167DOPC  H12X20326   6.211   2.695  15.077 -0.2866 -0.9125 -0.1227
  167DOPC  H12Y20327   6.188   2.851  15.006  0.0778 -0.9729 -2.4015
  167DOPC  C31320328   6.052   2.686  14.941 -0.6742 -0.5274 -0.6611
  167DOPC  H13X20329   6.026   2.588  14.987  1.1755 -0.8717 -0.2474
  167DOPC  H13Y20330   5.959   2.742  14.919  1.1777  2.9448 -0.2842
  167DOPC  C31420331   6.132   2.666  14.811 -0.2084 -0.3957  0.0077
  167DOPC  H14X20332   6.180   2.760  14.777  0.4093 -0.0377  1.7221
  167DOPC  H14Y20333   6.212   2.591  14.830 -1.6866 -1.8767  0.5790
  167DOPC  C31520334   6.037   2.630  14.699  0.2405  0.5031 -0.0204
  167DOPC  H15X20335   5.967   2.714  14.680 -1.7866 -0.6685  1.8143
  167DOPC  H15Y20336   5.963   2.547  14.708 -0.0186  0.6115 -1.0156
  167DOPC  C31620337   6.099   2.588  14.566 -0.1898 -0.1303 -0.0297
  167DOPC  H16X20338   6.173   2.656  14.520  0.0315 -1.1674 -1.2585
  167DOPC  H16Y20339   6.143   2.487  14.579 -0.2959 -0.1234  0.4323
  167DOPC  C31720340   5.995   2.576  14.455 -0.1282 -0.5367 -0.1790
  167DOPC  H17X20341   5.905   2.524  14.493 -0.7926 -0.7551 -1.9421
  167DOPC  H17Y20342   5.948   2.674  14.430 -3.5689 -1.8213  0.6702
  167DOPC  C31820343   6.047   2.522  14.324  0.1245  0.5215  0.2016
  167DOPC  H18X20344   6.064   2.413  14.321  0.1750  0.4991 -3.4491
  167DOPC  H18Y20345   5.973   2.560  14.249  0.5062 -0.6353 -0.7897
  167DOPC  H18Z20346   6.143   2.574  14.303 -0.4034  1.4030 -0.0881
  168DOPC     N20347   0.729   1.572  16.658 -0.9345  0.5561  0.1387
  168DOPC   C1220348   0.870   1.512  16.676 -0.4760  0.1718 -0.5326
  168DOPC  H12A20349   0.944   1.582  16.713  1.2528 -3.5156  3.8824
  168DOPC  H12B20350   0.901   1.467  16.582  0.4492  0.7784 -0.5302
  168DOPC   C1320351   0.739   1.694  16.569 -0.3912 -0.4771  0.2566
  168DOPC  H13A20352   0.795   1.774  16.615  1.9540 -1.1394 -1.2215
  168DOPC  H13B20353   0.793   1.670  16.479  1.7149 -0.9174  1.5620
  168DOPC  H13C20354   0.637   1.721  16.547 -0.3989 -0.8973 -0.2358
  168DOPC   C1420355   0.670   1.612  16.790  0.5338 -0.0207  0.2321
  168DOPC  H14A20356   0.570   1.653  16.784  0.1607 -0.9728 -0.3547
  168DOPC  H14B20357   0.656   1.522  16.848  0.2473 -1.5230 -2.0241
  168DOPC  H14C20358   0.741   1.684  16.827  1.5047  0.0209 -1.5897
  168DOPC   C1520359   0.644   1.468  16.596 -0.3779  0.3187  0.9614
  168DOPC  H15A20360   0.680   1.448  16.496  0.2064 -1.2202  1.4478
  168DOPC  H15B20361   0.539   1.492  16.606 -0.7845 -0.7298 -0.4626
  168DOPC  H15C20362   0.660   1.377  16.651 -0.4954  0.5997  1.4692
  168DOPC   C1120363   0.875   1.394  16.775  0.0831  0.6554  0.1646
  168DOPC  H11A20364   0.979   1.376  16.810 -0.2875 -3.9398 -0.5201
  168DOPC  H11B20365   0.817   1.418  16.867  1.3559  2.0325  0.6673
  168DOPC     P20366   0.925   1.155  16.684 -0.1273 -0.3743 -0.4814
  168DOPC   O1320367   0.957   1.082  16.810  0.0267 -0.1195 -0.3889
  168DOPC   O1420368   1.044   1.206  16.604  0.5549 -0.7085 -0.4267
  168DOPC   O1220369   0.830   1.272  16.714  0.0109 -0.4074 -0.5662
  168DOPC   O1120370   0.839   1.058  16.600 -0.3572  0.6880 -0.7217
  168DOPC    C120371   0.732   1.085  16.509 -0.2046 -0.1260 -0.0904
  168DOPC    HA20372   0.684   1.180  16.539  1.9177  0.3891  1.9863
  168DOPC    HB20373   0.650   1.011  16.503 -0.2895  0.0686 -1.5856
  168DOPC    C220374   0.790   1.105  16.369 -0.6178 -0.0713  1.1168
  168DOPC    HS20375   0.832   1.206  16.351 -0.8827  0.1399  1.6390
  168DOPC   O2120376   0.682   1.069  16.281 -0.2988  0.3144  0.2815
  168DOPC   C2120377   0.598   1.163  16.261 -0.6354  0.5229  0.5419
  168DOPC   O2220378   0.599   1.277  16.309 -0.5056 -0.2252  0.0964
  168DOPC   C2220379   0.499   1.114  16.151  0.2541  0.5786 -0.3426
  168DOPC   H2R20380   0.405   1.074  16.195  0.2356 -0.0701 -0.9592
  168DOPC   H2S20381   0.544   1.030  16.094 -0.4652 -1.0848  1.3982
  168DOPC    C320382   0.912   1.011  16.342  0.3303  0.1133 -0.0768
  168DOPC    HX20383   0.874   0.914  16.380 -2.2620  0.4092 -1.6748
  168DOPC    HY20384   1.001   1.033  16.404 -0.6812  0.0393  1.4479
  168DOPC   O3120385   0.946   1.015  16.199  0.5387 -0.0290 -0.0068
  168DOPC   C3120386   1.029   1.109  16.158  0.1258 -1.0020 -0.6075
  168DOPC   O3220387   1.065   1.206  16.225 -0.2504  0.2898  0.6157
  168DOPC   C3220388   1.051   1.099  16.001 -0.2744  0.7750 -0.2417
  168DOPC   H2X20389   1.128   1.019  15.998 -1.5516 -0.4726 -1.4939
  168DOPC   H2Y20390   0.956   1.075  15.948 -0.1252 -0.7253  0.1278
  168DOPC   C2320391   0.480   1.225  16.041  0.4607 -0.0264  0.8200
  168DOPC   H3R20392   0.456   1.321  16.091 -1.0945 -0.4675  0.9834
  168DOPC   H3S20393   0.391   1.195  15.981  0.3895 -2.4244  1.9804
  168DOPC   C2420394   0.605   1.246  15.946  0.1109 -0.2365 -0.4968
  168DOPC   H4R20395   0.699   1.272  16.000  0.4512 -2.8988  0.2964
  168DOPC   H4S20396   0.587   1.331  15.877 -2.0206  0.5732  0.9569
  168DOPC   C2520397   0.630   1.132  15.844  0.4548 -0.2554 -0.3920
  168DOPC   H5R20398   0.533   1.098  15.802  0.2432 -1.7510  1.1787
  168DOPC   H5S20399   0.690   1.049  15.888  0.4935 -0.4030 -0.7221
  168DOPC   C2620400   0.713   1.186  15.721 -0.0976 -0.7214 -1.0392
  168DOPC   H6R20401   0.798   1.244  15.762  0.4851 -2.1855 -0.0983
  168DOPC   H6S20402   0.646   1.253  15.664 -1.9949 -0.5895  1.1904
  168DOPC   C2720403   0.762   1.075  15.623  0.3543  0.8104  0.2231
  168DOPC   H7R20404   0.671   1.014  15.601  2.0394 -1.7936  0.1189
  168DOPC   H7S20405   0.819   1.008  15.690  2.3282  2.0536 -0.1239
  168DOPC   C2820406   0.832   1.118  15.492 -0.2658 -0.5832  0.4182
  168DOPC   H8R20407   0.890   1.037  15.443  1.2630  0.0373  1.1229
  168DOPC   H8S20408   0.915   1.186  15.521 -0.4388 -0.2887  0.2280
  168DOPC   C2920409   0.725   1.178  15.400  0.2539  0.5128  0.2530
  168DOPC   H9R20410   0.670   1.262  15.445  1.2618  1.2567  0.1333
  168DOPC  C21020411   0.694   1.144  15.271  0.5602 -0.6338  0.6552
  168DOPC  H10R20412   0.597   1.182  15.236 -0.2674 -2.1309  1.2324
  168DOPC  C21120413   0.779   1.058  15.181 -0.5686  0.5521  0.2404
  168DOPC  H11R20414   0.735   0.956  15.173 -1.7739  0.8505  2.3519
  168DOPC  H11S20415   0.882   1.058  15.222  0.0985  0.0812 -1.3702
  168DOPC  C21220416   0.786   1.133  15.042  0.1757 -0.0207 -0.3056
  168DOPC  H12R20417   0.838   1.230  15.061 -1.4185  0.9629 -0.7577
  168DOPC  H12S20418   0.685   1.148  14.998  0.7253 -1.2263 -2.0829
  168DOPC  C21320419   0.882   1.053  14.948 -0.0236 -0.3406  0.0409
  168DOPC  H13R20420   0.845   0.949  14.934  1.9343 -0.9105 -1.4602
  168DOPC  H13S20421   0.981   1.043  14.998  0.3152 -0.8113 -0.7002
  168DOPC  C21420422   0.906   1.103  14.808 -0.3124  0.2135 -0.5253
  168DOPC  H14R20423   0.968   1.195  14.818  1.1372 -0.9510  2.4536
  168DOPC  H14S20424   0.811   1.138  14.763 -0.2699  0.8222 -0.1508
  168DOPC  C21520425   0.994   1.010  14.719  0.3747 -0.3518  0.1462
  168DOPC  H15R20426   0.955   0.906  14.725 -0.3228 -0.0757  0.5787
  168DOPC  H15S20427   1.098   1.020  14.756 -0.2784  2.0570  1.5017
  168DOPC  C21620428   0.987   1.064  14.575 -0.0493  0.7413 -0.0629
  168DOPC  H16R20429   1.023   1.167  14.554  0.4158  0.4781 -0.5746
  168DOPC  H16S20430   0.880   1.064  14.544  0.2530 -0.4950 -1.2205
  168DOPC  C21720431   1.057   0.973  14.477 -0.7585  0.7726  0.2754
  168DOPC  H17R20432   1.047   0.866  14.505 -0.8812  0.4022 -1.1275
  168DOPC  H17S20433   1.165   0.998  14.488 -0.3501 -0.5460 -0.4906
  168DOPC  C21820434   1.006   0.992  14.343  0.2431 -0.0137 -0.5674
  168DOPC  H18R20435   1.020   1.095  14.304  0.1560  0.9296  1.7919
  168DOPC  H18S20436   0.895   0.985  14.335  0.2123 -0.2807  0.0822
  168DOPC  H18T20437   1.043   0.918  14.268  0.9008 -0.9212  0.6222
  168DOPC   C3320438   1.118   1.210  15.934  0.3784 -0.0291  0.0727
  168DOPC   H3X20439   1.218   1.225  15.980  0.6917  0.8503 -0.8673
  168DOPC   H3Y20440   1.061   1.304  15.942  0.4402  0.3473 -2.8755
  168DOPC   C3420441   1.152   1.158  15.788  0.5065  0.0289 -0.5169
  168DOPC   H4X20442   1.052   1.132  15.747 -1.0798  1.6900  1.9456
  168DOPC   H4Y20443   1.219   1.070  15.794  0.6222  0.0054 -1.9504
  168DOPC   C3520444   1.218   1.259  15.687 -0.0886 -0.4822  0.5646
  168DOPC   H5X20445   1.318   1.297  15.715 -0.8271  2.3460 -0.2923
  168DOPC   H5Y20446   1.146   1.343  15.684 -0.4390 -0.6839  2.4426
  168DOPC   C3620447   1.227   1.196  15.551  0.5215  0.0175  0.0041
  168DOPC   H6X20448   1.302   1.115  15.550 -0.0007 -0.4817  0.7663
  168DOPC   H6Y20449   1.129   1.146  15.533  0.8146 -0.2824 -0.8355
  168DOPC   C3720450   1.264   1.306  15.450  0.3440  0.6565 -0.1671
  168DOPC   H7X20451   1.200   1.395  15.469  2.5945  2.3810 -0.1942
  168DOPC   H7Y20452   1.374   1.323  15.450  0.6319 -0.9697  1.0996
  168DOPC   C3820453   1.222   1.283  15.303 -0.0533 -0.2372  0.2904
  168DOPC   H8X20454   1.223   1.382  15.252  2.4921  0.6644  1.8700
  168DOPC   H8Y20455   1.121   1.239  15.308  0.3457 -1.0835  1.1148
  168DOPC   C3920456   1.328   1.196  15.237  0.3805 -0.5971 -0.2347
  168DOPC   H9X20457   1.392   1.136  15.303  0.0288 -0.6744  0.0406
  168DOPC  C31020458   1.349   1.178  15.104  0.2655  0.4257  0.0684
  168DOPC  H10X20459   1.424   1.101  15.080 -0.3321  0.2607 -1.3444
  168DOPC  C31120460   1.275   1.249  14.991  0.4487 -0.1838  0.4302
  168DOPC  H11X20461   1.237   1.352  15.012  0.9558  0.0948  0.0167
  168DOPC  H11Y20462   1.181   1.197  14.962  0.7692  0.6315 -2.3878
  168DOPC  C31220463   1.364   1.266  14.867  0.0809 -0.0468  0.2691
  168DOPC  H12X20464   1.425   1.175  14.850  1.2523  0.9647 -1.1787
  168DOPC  H12Y20465   1.440   1.344  14.890 -0.3943  0.2328  0.9421
  168DOPC  C31320466   1.293   1.299  14.734 -0.1734 -0.2327 -0.8502
  168DOPC  H13X20467   1.211   1.230  14.707 -2.2612  1.2375  1.3386
  168DOPC  H13Y20468   1.252   1.398  14.764  3.9798  1.1975  0.9245
  168DOPC  C31420469   1.389   1.332  14.615  0.8069  0.2045 -0.3113
  168DOPC  H14X20470   1.487   1.286  14.639  1.0109 -0.0332 -1.5151
  168DOPC  H14Y20471   1.347   1.297  14.518  1.8859 -2.4876  0.1270
  168DOPC  C31520472   1.408   1.485  14.587 -0.0184 -0.6840 -0.4376
  168DOPC  H15X20473   1.438   1.529  14.685 -0.6336  1.4565 -1.1684
  168DOPC  H15Y20474   1.308   1.526  14.564 -0.2338 -1.9534 -1.8752
  168DOPC  C31620475   1.507   1.517  14.477 -0.4510 -0.6809 -0.3124
  168DOPC  H16X20476   1.472   1.469  14.383  0.3911 -0.3173 -0.8223
  168DOPC  H16Y20477   1.502   1.624  14.449  0.1127 -0.4480  0.4423
  168DOPC  C31720478   1.655   1.460  14.503  0.4395 -0.0765 -0.5233
  168DOPC  H17X20479   1.641   1.352  14.526 -1.2607  0.0675 -0.7113
  168DOPC  H17Y20480   1.707   1.485  14.408  0.9506  0.9914  0.0201
  168DOPC  C31820481   1.723   1.518  14.619  0.4666  0.2751  0.4152
  168DOPC  H18X20482   1.826   1.478  14.634  1.1106  0.8253 -2.1325
  168DOPC  H18Y20483   1.716   1.628  14.608 -2.1465  0.0039 -1.3591
  168DOPC  H18Z20484   1.659   1.497  14.708  1.6250  0.9334  1.4468
  169DOPC     N20485   6.369   2.260  16.994 -0.0810 -0.3546  0.2776
  169DOPC   C1220486   6.505   2.183  16.993 -0.1416 -0.3779  0.4295
  169DOPC  H12A20487   6.501   2.106  17.069 -0.5429 -0.8239 -0.0335
  169DOPC  H12B20488   6.592   2.241  17.020 -0.7678  0.9316 -0.2628
  169DOPC   C1320489   6.360   2.333  17.126  0.0676 -0.3100 -0.3021
  169DOPC  H13A20490   6.281   2.407  17.126  0.4417  0.1014 -1.3248
  169DOPC  H13B20491   6.335   2.264  17.206  0.1030 -1.0154 -0.8951
  169DOPC  H13C20492   6.454   2.381  17.149 -0.2668 -0.1718  0.8339
  169DOPC   C1420493   6.259   2.162  16.986 -0.9132  0.5001 -0.4467
  169DOPC  H14A20494   6.162   2.208  16.972  0.2833  3.3425 -0.1297
  169DOPC  H14B20495   6.263   2.090  16.906 -1.9979 -1.6942  1.3555
  169DOPC  H14C20496   6.244   2.104  17.076  0.6277 -1.1047 -1.1627
  169DOPC   C1520497   6.365   2.354  16.878  1.0969 -0.6075  0.3434
  169DOPC  H15A20498   6.439   2.432  16.887  0.3169  0.2873 -0.6724
  169DOPC  H15B20499   6.265   2.395  16.870  1.4668 -0.1162 -2.6283
  169DOPC  H15C20500   6.383   2.313  16.780  1.7729  2.3617 -0.9002
  169DOPC   C1120501   6.542   2.111  16.863  0.1556 -0.5100 -1.1269
  169DOPC  H11A20502   6.452   2.058  16.827 -1.9993  1.6111  0.7723
  169DOPC  H11B20503   6.568   2.187  16.787  2.8944  3.8484  3.5319
  169DOPC     P20504   6.792   2.049  16.847  0.1822 -0.3480 -0.3756
  169DOPC   O1320505   6.879   1.945  16.903  0.2573  0.5384  0.1454
  169DOPC   O1420506   6.836   2.190  16.871 -0.5325 -0.4111 -0.2431
  169DOPC   O1220507   6.643   2.020  16.890 -0.0023  0.8617 -0.2911
  169DOPC   O1120508   6.789   2.035  16.691 -0.6156 -0.2642 -1.2695
  169DOPC    C120509   6.751   2.136  16.606 -0.1201  0.1420  0.0840
  169DOPC    HA20510   6.749   2.233  16.659  1.3910  0.3303 -0.1682
  169DOPC    HB20511   6.650   2.111  16.566 -0.8586  3.2235 -0.1737
  169DOPC    C220512   6.849   2.132  16.479  0.0997  0.6199 -0.0365
  169DOPC    HS20513   6.938   2.184  16.522 -0.0589  0.4952  0.4512
  169DOPC   O2120514   6.779   2.197  16.371 -0.0829  0.3209 -0.3476
  169DOPC   C2120515   6.830   2.310  16.340  0.5505 -0.6972  0.2794
  169DOPC   O2220516   6.901   2.386  16.401 -1.0741 -0.2660 -0.1186
  169DOPC   C2220517   6.780   2.341  16.198 -0.3268  0.1211  0.1405
  169DOPC   H2R20518   6.671   2.358  16.208 -0.3657  0.4172 -0.7120
  169DOPC   H2S20519   6.805   2.261  16.125 -0.3164  0.5989 -0.3908
  169DOPC    C320520   6.891   1.991  16.434  0.6061 -0.3884  0.8771
  169DOPC    HX20521   6.795   1.942  16.408  0.5674  0.5234 -0.8228
  169DOPC    HY20522   6.935   1.940  16.523  2.9407 -1.7219 -0.9380
  169DOPC   O3120523   6.977   1.993  16.320 -0.3672  0.1866  0.0068
  169DOPC   C3120524   7.092   1.938  16.324 -0.2264  0.7338 -0.3022
  169DOPC   O3220525   7.138   1.867  16.419 -0.4535 -0.0010 -0.1844
  169DOPC   C3220526   7.161   1.983  16.194 -0.3569 -0.1912 -0.0009
  169DOPC   H2X20527   7.188   2.090  16.212 -0.6255  0.2155 -1.8534
  169DOPC   H2Y20528   7.259   1.934  16.181  0.6194  1.6866 -0.1414
  169DOPC   C2320529   6.844   2.474  16.138 -0.4234  0.5319  0.9659
  169DOPC   H3R20530   6.949   2.469  16.173 -0.2925 -0.3405  0.4655
  169DOPC   H3S20531   6.809   2.565  16.192  0.9866  1.9784 -0.4225
  169DOPC   C2420532   6.851   2.489  15.982 -0.3855  0.2697 -0.2460
  169DOPC   H4R20533   6.876   2.392  15.935  0.4849  1.1941 -1.7667
  169DOPC   H4S20534   6.934   2.557  15.952 -1.3595  0.8683 -1.7148
  169DOPC   C2520535   6.721   2.532  15.917 -0.5616 -0.3416  0.6235
  169DOPC   H5R20536   6.692   2.631  15.960  1.4358 -0.1651  1.7285
  169DOPC   H5S20537   6.647   2.462  15.959 -0.3580  0.0290  1.6232
  169DOPC   C2620538   6.713   2.542  15.763 -0.5918  0.4191 -0.4953
  169DOPC   H6R20539   6.720   2.438  15.723  0.2347  0.5411 -0.6905
  169DOPC   H6S20540   6.797   2.602  15.723 -0.9290  0.9901 -0.3490
  169DOPC   C2720541   6.579   2.608  15.720  0.0463  0.1830  0.0995
  169DOPC   H7R20542   6.598   2.710  15.760  0.6355 -0.2544  0.9513
  169DOPC   H7S20543   6.510   2.552  15.786  2.0380 -0.6324  1.5988
  169DOPC   C2820544   6.538   2.592  15.572  0.2222 -0.1171  0.7759
  169DOPC   H8R20545   6.430   2.613  15.562  0.2145  0.2515  1.5221
  169DOPC   H8S20546   6.554   2.484  15.553 -0.0831  0.3955 -3.2316
  169DOPC   C2920547   6.627   2.677  15.485  0.1761 -0.4328 -0.0829
  169DOPC   H9R20548   6.663   2.773  15.525 -1.3895  0.0914  0.1656
  169DOPC  C21020549   6.680   2.636  15.372 -0.1394  0.1612 -0.3331
  169DOPC  H10R20550   6.758   2.700  15.329  1.6843 -0.2115  2.2235
  169DOPC  C21120551   6.659   2.502  15.306 -0.4566 -1.0381 -0.2300
  169DOPC  H11R20552   6.570   2.448  15.345 -0.2524 -1.7903 -0.7904
  169DOPC  H11S20553   6.750   2.441  15.323 -0.0103 -0.0243  1.1368
  169DOPC  C21220554   6.652   2.518  15.152 -0.3543  1.0493  0.5630
  169DOPC  H12R20555   6.674   2.418  15.109  0.6546  1.9260 -1.0768
  169DOPC  H12S20556   6.736   2.587  15.127  0.2594  0.0878 -0.0779
  169DOPC  C21320557   6.513   2.573  15.099  0.8737 -0.0826 -0.3995
  169DOPC  H13R20558   6.491   2.672  15.144 -2.0840  0.2194 -2.2558
  169DOPC  H13S20559   6.435   2.504  15.136 -0.8624  1.2122 -1.5157
  169DOPC  C21420560   6.518   2.582  14.944  0.0959 -0.0459 -0.4492
  169DOPC  H14R20561   6.577   2.673  14.918 -1.3291  1.2334  0.5960
  169DOPC  H14S20562   6.418   2.586  14.895  0.2997 -0.7688 -0.9336
  169DOPC  C21520563   6.597   2.470  14.878 -0.0529 -0.4812  0.2186
  169DOPC  H15R20564   6.577   2.365  14.909  1.6991 -0.7032  0.6762
  169DOPC  H15S20565   6.704   2.474  14.906  0.4892 -0.0266 -1.8151
  169DOPC  C21620566   6.592   2.474  14.722 -0.0787 -0.4067  0.4970
  169DOPC  H16R20567   6.612   2.373  14.682 -1.7490 -1.2601  1.7193
  169DOPC  H16S20568   6.677   2.540  14.694 -0.1913 -0.0790  0.9198
  169DOPC  C21720569   6.465   2.524  14.663 -0.1453  0.2384 -0.0530
  169DOPC  H17R20570   6.431   2.620  14.707 -4.9573 -2.4531  2.9738
  169DOPC  H17S20571   6.391   2.448  14.696 -1.1818  2.4538  3.2123
  169DOPC  C21820572   6.464   2.529  14.508 -0.6909  0.1085  0.7315
  169DOPC  H18R20573   6.365   2.564  14.473 -1.6628  0.1718  3.3579
  169DOPC  H18S20574   6.488   2.429  14.467  1.4587  0.5652  0.7452
  169DOPC  H18T20575   6.544   2.599  14.476  0.5019 -2.2532 -1.8257
  169DOPC   C3320576   7.086   1.965  16.067  0.4256 -0.0422  0.0031
  169DOPC   H3X20577   6.993   2.027  16.068  0.6760  0.3486 -0.4385
  169DOPC   H3Y20578   7.062   1.860  16.039 -0.2616  0.4627 -1.3999
  169DOPC   C3420579   7.163   2.024  15.945  0.5441 -0.0050  0.3256
  169DOPC   H4X20580   7.251   1.958  15.925 -0.0408 -0.4177 -0.9978
  169DOPC   H4Y20581   7.208   2.124  15.961  1.6792 -0.3075 -0.8125
  169DOPC   C3520582   7.079   2.029  15.818  0.2508 -0.3792  1.1438
  169DOPC   H5X20583   6.997   2.100  15.839  0.2275 -0.5898  1.7828
  169DOPC   H5Y20584   7.039   1.927  15.796  0.7869 -0.3474 -0.0501
  169DOPC   C3620585   7.175   2.061  15.704 -0.4028  0.4853 -0.3634
  169DOPC   H6X20586   7.230   2.152  15.737 -0.7594  0.4430  0.3735
  169DOPC   H6Y20587   7.252   1.981  15.712  0.2429  1.2396  1.7864
  169DOPC   C3720588   7.109   2.083  15.571  0.3413  0.4821 -0.6544
  169DOPC   H7X20589   7.008   2.127  15.591  0.3020 -0.3271  1.1606
  169DOPC   H7Y20590   7.164   2.162  15.515  0.5966  1.1832  0.5367
  169DOPC   C3820591   7.094   1.963  15.477 -0.0704  0.4627  0.3501
  169DOPC   H8X20592   7.028   1.893  15.533  0.1134 -0.8820 -1.0362
  169DOPC   H8Y20593   7.186   1.901  15.479 -1.3382 -1.5239  0.8939
  169DOPC   C3920594   7.040   1.986  15.341  0.0484 -0.3385  0.3346
  169DOPC   H9X20595   6.932   2.003  15.354  0.1040 -0.5689  1.1661
  169DOPC  C31020596   7.097   2.003  15.215  0.6185  0.7117  0.1732
  169DOPC  H10X20597   7.032   2.021  15.128  0.5332  1.8144  0.4547
  169DOPC  C31120598   7.242   2.005  15.190 -0.6712  0.0840 -0.7121
  169DOPC  H11X20599   7.298   1.994  15.286  0.8010  1.3070 -1.3924
  169DOPC  H11Y20600   7.271   2.108  15.160 -1.8708  0.8580  0.6745
  169DOPC  C31220601   7.284   1.886  15.101 -0.3213 -0.3414 -0.2845
  169DOPC  H12X20602   7.251   1.791  15.149 -0.6746  0.8578  2.0217
  169DOPC  H12Y20603   7.394   1.877  15.103 -0.3768 -1.0536 -0.1463
  169DOPC  C31320604   7.237   1.890  14.957 -1.0825  0.0631 -0.4771
  169DOPC  H13X20605   7.285   1.804  14.907 -2.3713  0.3812 -2.3829
  169DOPC  H13Y20606   7.127   1.872  14.961 -1.1506 -0.0385 -2.0831
  169DOPC  C31420607   7.274   2.013  14.877 -0.1133 -0.6381  0.0362
  169DOPC  H14X20608   7.231   2.107  14.918  0.8514 -0.3995  0.5210
  169DOPC  H14Y20609   7.382   2.038  14.874 -0.5883  1.5251 -1.9378
  169DOPC  C31520610   7.222   2.004  14.731 -0.5040 -0.5869  0.1203
  169DOPC  H15X20611   7.227   2.104  14.682 -0.0602 -0.1553  1.0255
  169DOPC  H15Y20612   7.115   1.974  14.734 -0.4881 -0.6026  0.8902
  169DOPC  C31620613   7.276   1.886  14.651 -0.6125  0.0212 -0.2040
  169DOPC  H16X20614   7.386   1.884  14.665 -0.2454 -1.0927 -2.6559
  169DOPC  H16Y20615   7.245   1.790  14.697  0.0981  0.2486  0.7844
  169DOPC  C31720616   7.231   1.888  14.505  0.9668 -0.2532  0.5565
  169DOPC  H17X20617   7.263   1.983  14.459  0.8883 -0.5297 -0.0827
  169DOPC  H17Y20618   7.276   1.803  14.449 -0.5973 -2.0287  1.8713
  169DOPC  C31820619   7.075   1.871  14.501 -0.0497 -0.0180  0.7001
  169DOPC  H18X20620   7.018   1.966  14.511  0.5764  0.4938 -0.5072
  169DOPC  H18Y20621   7.037   1.852  14.399  1.3184 -1.5309  0.4358
  169DOPC  H18Z20622   7.040   1.785  14.563  0.0672  0.3369  1.2670
  170DOPC     N20623   5.376   0.862  17.182  0.4426 -0.3648  0.5756
  170DOPC   C1220624   5.401   0.903  17.036  0.6049  0.4007  0.0117
  170DOPC  H12A20625   5.316   0.957  16.997  0.6973  0.5765  0.0552
  170DOPC  H12B20626   5.401   0.814  16.975  0.0543  0.3763  0.0426
  170DOPC   C1320627   5.347   0.984  17.265 -1.2816 -0.2399 -0.3662
  170DOPC  H13A20628   5.351   0.962  17.370  0.0176  1.3521 -0.0376
  170DOPC  H13B20629   5.415   1.068  17.257 -1.0775 -0.2479  1.0147
  170DOPC  H13C20630   5.250   1.020  17.232 -0.7144 -0.3840 -2.3258
  170DOPC   C1420631   5.491   0.783  17.236 -0.4535 -0.4363 -0.0506
  170DOPC  H14A20632   5.483   0.754  17.340  0.0453  0.5291  0.2626
  170DOPC  H14B20633   5.510   0.689  17.186 -0.3059 -0.2373 -0.3669
  170DOPC  H14C20634   5.584   0.836  17.220  1.2826 -2.4816  2.2598
  170DOPC   C1520635   5.255   0.768  17.190  0.0863 -0.6467 -0.3121
  170DOPC  H15A20636   5.163   0.822  17.177  0.6164  0.4967  0.6097
  170DOPC  H15B20637   5.259   0.717  17.285 -0.1862  0.5051  0.3277
  170DOPC  H15C20638   5.253   0.699  17.106 -1.0729  2.1354 -2.7285
  170DOPC   C1120639   5.533   0.985  17.009  0.1504 -0.4504 -0.7465
  170DOPC  H11A20640   5.522   1.036  16.911 -0.6898 -0.8947 -0.8899
  170DOPC  H11B20641   5.528   1.074  17.075 -0.4402  0.6347 -2.1969
  170DOPC     P20642   5.724   0.832  16.925  0.1100 -0.1324  0.1557
  170DOPC   O1320643   5.654   0.704  16.905  0.5326  1.0274 -0.5014
  170DOPC   O1420644   5.869   0.819  16.957 -0.4628  0.2671  0.0951
  170DOPC   O1220645   5.658   0.913  17.039 -0.2578 -0.9451  0.5597
  170DOPC   O1120646   5.702   0.924  16.798  0.5706 -0.1964  0.3579
  170DOPC    C120647   5.787   1.033  16.765 -0.0469 -0.2844 -0.1041
  170DOPC    HA20648   5.862   1.046  16.845 -1.7851  0.6057  1.4455
  170DOPC    HB20649   5.725   1.124  16.749 -1.9969 -1.7928 -1.6756
  170DOPC    C220650   5.864   1.019  16.634 -0.7441  0.4133  0.4616
  170DOPC    HS20651   5.936   1.103  16.631 -1.2223  0.8127 -1.6205
  170DOPC   O2120652   5.777   1.014  16.525  0.1480 -0.1223 -0.1141
  170DOPC   C2120653   5.738   1.137  16.477  0.5408  0.3223 -0.2463
  170DOPC   O2220654   5.779   1.245  16.517 -0.0978 -0.5348  0.5030
  170DOPC   C2220655   5.638   1.112  16.367  0.3287  0.5095 -0.4969
  170DOPC   H2R20656   5.541   1.079  16.409  1.3533 -1.4193  0.4984
  170DOPC   H2S20657   5.677   1.028  16.304  1.7266  0.3891  0.4840
  170DOPC    C320658   5.943   0.887  16.632 -0.0227  0.2902  0.4353
  170DOPC    HX20659   5.888   0.791  16.644  0.9067 -0.4003 -0.6186
  170DOPC    HY20660   6.003   0.901  16.724  2.0159  3.1055 -1.1679
  170DOPC   O3120661   6.024   0.875  16.513 -0.1497  0.5441 -0.1657
  170DOPC   C3120662   6.150   0.839  16.526  0.8087 -0.1249 -0.6250
  170DOPC   O3220663   6.203   0.804  16.633  0.5707  0.3310 -0.0670
  170DOPC   C3220664   6.229   0.867  16.395 -0.2833 -0.4912  0.0002
  170DOPC   H2X20665   6.164   0.898  16.311 -0.8340  3.3839  1.6745
  170DOPC   H2Y20666   6.302   0.948  16.416 -2.1721  1.2610 -0.0046
  170DOPC   C2320667   5.624   1.223  16.256  0.2290 -0.5730  0.4194
  170DOPC   H3R20668   5.720   1.230  16.200 -0.2365 -0.9155 -0.4440
  170DOPC   H3S20669   5.621   1.324  16.303 -3.0650 -1.1178  1.6478
  170DOPC   C2420670   5.503   1.208  16.165 -0.2051  0.0950 -0.0251
  170DOPC   H4R20671   5.499   1.299  16.102  1.7782  0.5357  0.4334
  170DOPC   H4S20672   5.413   1.208  16.231 -0.2357 -4.2759  0.2625
  170DOPC   C2520673   5.493   1.077  16.085  0.5281 -0.4447  0.1536
  170DOPC   H5R20674   5.394   1.092  16.035  0.8495  1.4306  0.0110
  170DOPC   H5S20675   5.492   0.995  16.159  2.2223 -0.3617  0.2964
  170DOPC   C2620676   5.611   1.050  15.993  0.8638 -0.1614 -0.3784
  170DOPC   H6R20677   5.713   1.029  16.032 -0.1959 -0.5464  2.3284
  170DOPC   H6S20678   5.620   1.149  15.942 -3.3171 -0.1348 -1.4018
  170DOPC   C2720679   5.567   0.954  15.888 -0.1498  0.0378 -0.1802
  170DOPC   H7R20680   5.520   0.876  15.951  3.3684 -0.5844  1.9190
  170DOPC   H7S20681   5.649   0.899  15.837  0.2705  2.5510 -2.4856
  170DOPC   C2820682   5.464   0.998  15.776  0.2256  0.4517 -0.1546
  170DOPC   H8R20683   5.360   1.009  15.813  0.5810  0.6166  0.8208
  170DOPC   H8S20684   5.470   0.909  15.710  0.9398 -0.2633  0.8324
  170DOPC   C2920685   5.506   1.134  15.717  0.2748 -0.0499 -0.4020
  170DOPC   H9R20686   5.480   1.222  15.778  0.3211 -0.9704  1.0139
  170DOPC  C21020687   5.579   1.153  15.602 -0.5170 -0.1128  0.5746
  170DOPC  H10R20688   5.586   1.258  15.569 -2.4935 -0.5020 -1.3460
  170DOPC  C21120689   5.638   1.060  15.500  0.3490 -0.0567 -0.3084
  170DOPC  H11R20690   5.597   0.957  15.505 -1.4828  0.6291 -0.5087
  170DOPC  H11S20691   5.749   1.051  15.508  0.3896  0.0166 -0.7987
  170DOPC  C21220692   5.606   1.102  15.352 -0.5192  0.3936  0.2881
  170DOPC  H12R20693   5.632   1.209  15.335 -0.0426  0.4077  1.0742
  170DOPC  H12S20694   5.496   1.097  15.339 -0.5732  2.4734 -0.4944
  170DOPC  C21320695   5.688   1.015  15.252 -0.5362 -0.3127 -0.2019
  170DOPC  H13R20696   5.666   0.907  15.262  0.3779 -0.3131  2.5487
  170DOPC  H13S20697   5.797   1.024  15.275 -0.7595 -3.6143  3.0613
  170DOPC  C21420698   5.669   1.063  15.103 -0.1454 -0.3867  0.6341
  170DOPC  H14R20699   5.727   1.154  15.074  0.5784 -1.1106 -0.2824
  170DOPC  H14S20700   5.564   1.071  15.068  0.1681  0.5198 -0.1506
  170DOPC  C21520701   5.736   0.951  15.017  0.0985  0.4818  0.5246
  170DOPC  H15R20702   5.691   0.856  15.052 -3.2377  1.0433 -1.7175
  170DOPC  H15S20703   5.845   0.955  15.038  0.4659  0.2981 -1.1850
  170DOPC  C21620704   5.706   0.974  14.857  0.6530  0.5564 -0.5505
  170DOPC  H16R20705   5.611   1.031  14.848 -0.1042 -0.5744  0.0038
  170DOPC  H16S20706   5.681   0.875  14.813  0.7062 -0.1484  0.9385
  170DOPC  C21720707   5.806   1.046  14.777  0.7972 -0.0989 -0.7681
  170DOPC  H17R20708   5.763   1.059  14.675 -2.9372  0.1561  0.6859
  170DOPC  H17S20709   5.898   0.986  14.764  1.7262 -0.2183  4.3919
  170DOPC  C21820710   5.842   1.185  14.827  0.5488  0.2520 -0.0113
  170DOPC  H18R20711   5.747   1.242  14.825  0.3506  0.0180  1.4983
  170DOPC  H18S20712   5.917   1.229  14.759  0.8684  0.3011  0.3654
  170DOPC  H18T20713   5.877   1.190  14.933  0.6468  0.4774 -0.0545
  170DOPC   C3320714   6.319   0.742  16.362 -0.0408  0.2012  0.3726
  170DOPC   H3X20715   6.261   0.649  16.345  1.2827 -0.5220 -0.2804
  170DOPC   H3Y20716   6.378   0.724  16.455 -2.4201 -0.0360  1.9370
  170DOPC   C3420717   6.402   0.767  16.239 -0.0445  0.5147  0.7526
  170DOPC   H4X20718   6.481   0.689  16.239 -2.3990 -2.0527 -0.1538
  170DOPC   H4Y20719   6.449   0.866  16.225 -1.9101  1.3070 -0.2011
  170DOPC   C3520720   6.311   0.741  16.118 -0.2750 -0.3861 -0.5129
  170DOPC   H5X20721   6.225   0.812  16.120  1.3571  1.6830 -0.8254
  170DOPC   H5Y20722   6.266   0.640  16.107  0.7188 -0.8465 -0.4734
  170DOPC   C3620723   6.378   0.771  15.985 -0.5652  0.5044  0.8111
  170DOPC   H6X20724   6.418   0.874  15.978 -0.1799  0.2344 -2.1003
  170DOPC   H6Y20725   6.465   0.703  15.977 -2.1775 -1.5051 -0.5617
  170DOPC   C3720726   6.286   0.742  15.863  0.3289  0.0401 -0.1962
  170DOPC   H7X20727   6.253   0.636  15.856  1.5933 -0.3977  0.1507
  170DOPC   H7Y20728   6.195   0.802  15.882 -1.2552 -2.5441  0.8956
  170DOPC   C3820729   6.345   0.791  15.730  0.0638  0.8536 -0.1530
  170DOPC   H8X20730   6.414   0.874  15.756  2.2356 -1.0945  0.5693
  170DOPC   H8Y20731   6.259   0.821  15.665  0.9375 -2.3286 -3.0622
  170DOPC   C3920732   6.427   0.687  15.659  0.0676  0.9160  0.6538
  170DOPC   H9X20733   6.465   0.599  15.712  0.1187 -0.6128 -1.7783
  170DOPC  C31020734   6.496   0.722  15.548  0.5732  0.8058 -1.0384
  170DOPC  H10X20735   6.582   0.666  15.508  1.0942  2.4591 -2.3828
  170DOPC  C31120736   6.460   0.848  15.474  0.2508 -0.2317 -0.5617
  170DOPC  H11X20737   6.555   0.880  15.425 -0.0341 -0.4382 -1.2602
  170DOPC  H11Y20738   6.420   0.935  15.531  0.0486 -1.7095  1.6680
  170DOPC  C31220739   6.371   0.811  15.354  0.2498 -0.3403  0.4022
  170DOPC  H12X20740   6.354   0.913  15.314 -1.2271 -0.7953 -0.2035
  170DOPC  H12Y20741   6.272   0.763  15.371 -0.5784  0.3731 -2.0215
  170DOPC  C31320742   6.448   0.750  15.237  0.2393  0.9282  0.6011
  170DOPC  H13X20743   6.556   0.765  15.260  0.2978 -0.2171  1.1317
  170DOPC  H13Y20744   6.435   0.640  15.232  1.0453  0.8780 -1.0137
  170DOPC  C31420745   6.418   0.817  15.101 -0.2174 -0.1739 -0.2922
  170DOPC  H14X20746   6.309   0.838  15.096 -0.3990 -0.5512  1.5170
  170DOPC  H14Y20747   6.486   0.904  15.089  1.1996 -1.2577 -0.3199
  170DOPC  C31520748   6.455   0.718  14.985  0.3862  0.2650 -0.4298
  170DOPC  H15X20749   6.408   0.624  15.021  1.3189  0.6501  2.0181
  170DOPC  H15Y20750   6.564   0.694  14.990  0.2325 -0.4303 -0.2978
  170DOPC  C31620751   6.432   0.772  14.847 -0.0944  0.1466 -0.2246
  170DOPC  H16X20752   6.323   0.790  14.834 -0.3558 -1.6788 -0.8262
  170DOPC  H16Y20753   6.489   0.867  14.842  0.4650 -0.1658  0.2053
  170DOPC  C31720754   6.475   0.661  14.746 -0.1800  0.6298 -0.8755
  170DOPC  H17X20755   6.579   0.634  14.775  0.2439  0.5441 -2.4120
  170DOPC  H17Y20756   6.431   0.560  14.763 -0.9098  0.4919 -3.2360
  170DOPC  C31820757   6.471   0.703  14.605 -0.0405 -0.4967  0.0897
  170DOPC  H18X20758   6.462   0.614  14.540 -1.8543 -0.8351  0.7556
  170DOPC  H18Y20759   6.370   0.744  14.583 -0.4909 -0.2561  2.3655
  170DOPC  H18Z20760   6.554   0.772  14.578  0.6177 -1.5957 -0.7898
  171DOPC     N20761   3.861   4.557  11.769 -0.4795  0.2468 -0.1714
  171DOPC   C1220762   3.968   4.567  11.667 -0.4751 -0.1498 -0.0285
  171DOPC  H12A20763   3.973   4.670  11.634 -3.0482  0.3114  0.7935
  171DOPC  H12B20764   3.947   4.512  11.576 -0.4253  1.6169 -1.1599
  171DOPC   C1320765   3.834   4.411  11.793  0.0921 -0.5040 -0.1654
  171DOPC  H13A20766   3.926   4.359  11.814  1.3878  0.3240 -3.2099
  171DOPC  H13B20767   3.781   4.377  11.880  4.0808 -0.7787  2.3847
  171DOPC  H13C20768   3.776   4.368  11.713  1.0612  0.3404 -1.3786
  171DOPC   C1420769   3.732   4.627  11.724 -0.1995  0.5135  0.3057
  171DOPC  H14A20770   3.660   4.628  11.804  0.1140  0.3069  0.5951
  171DOPC  H14B20771   3.755   4.731  11.704  0.2718  0.1332 -1.3317
  171DOPC  H14C20772   3.698   4.576  11.635  0.6277  0.4216  0.0346
  171DOPC   C1520773   3.898   4.618  11.904  0.1151 -0.1267  0.6605
  171DOPC  H15A20774   3.907   4.725  11.894 -3.5373  0.5249  2.4000
  171DOPC  H15B20775   3.993   4.579  11.937 -0.3932 -2.4676 -0.3808
  171DOPC  H15C20776   3.812   4.616  11.971 -1.2896 -0.1871 -1.0676
  171DOPC   C1120777   4.113   4.515  11.707 -0.3131 -0.1758  0.5156
  171DOPC  H11A20778   4.173   4.517  11.614 -1.9947  0.1362 -0.6176
  171DOPC  H11B20779   4.157   4.590  11.776 -0.1266  3.2477 -2.9227
  171DOPC     P20780   4.222   4.342  11.850  0.0574  0.4809 -0.3511
  171DOPC   O1320781   4.284   4.450  11.930  0.1030 -0.1811 -0.0194
  171DOPC   O1420782   4.313   4.266  11.759  0.2618 -0.8599  0.5638
  171DOPC   O1220783   4.109   4.383  11.756 -0.5214  0.2124  0.5118
  171DOPC   O1120784   4.135   4.249  11.948 -0.2773 -0.0737 -0.1475
  171DOPC    C120785   4.200   4.218  12.077  0.5284  0.0219  0.6178
  171DOPC    HA20786   4.311   4.219  12.072  0.4751  1.3000 -0.9017
  171DOPC    HB20787   4.160   4.117  12.100 -0.6684  0.4866  0.6258
  171DOPC    C220788   4.143   4.310  12.189  0.5088 -0.6933  0.4993
  171DOPC    HS20789   4.203   4.403  12.185  0.2737 -0.5887 -1.6207
  171DOPC   O2120790   4.152   4.240  12.317 -0.5289  0.5942  0.3907
  171DOPC   C2120791   4.225   4.297  12.408 -0.0251  0.1824  0.0614
  171DOPC   O2220792   4.280   4.400  12.398  0.7135  0.1807  0.1563
  171DOPC   C2220793   4.255   4.195  12.520  0.5431  0.7293  0.4112
  171DOPC   H2R20794   4.366   4.199  12.520  0.5566  0.8287 -1.0169
  171DOPC   H2S20795   4.215   4.099  12.481 -2.4142  1.0827  2.2611
  171DOPC    C320796   3.990   4.343  12.163  0.2520  0.5450 -0.1509
  171DOPC    HX20797   3.937   4.245  12.159 -3.1247  2.0847  1.8340
  171DOPC    HY20798   3.985   4.395  12.065 -1.4202  2.6164  0.9471
  171DOPC   O3120799   3.930   4.410  12.273  0.1747 -0.3656  0.6532
  171DOPC   C3120800   3.955   4.534  12.289  0.7094 -0.2826 -0.5407
  171DOPC   O3220801   4.032   4.601  12.223  0.0846 -0.1770  0.1166
  171DOPC   C3220802   3.880   4.575  12.427 -0.9217  0.0898 -0.4953
  171DOPC   H2X20803   3.870   4.684  12.412  0.8267  0.0167 -2.7768
  171DOPC   H2Y20804   3.777   4.535  12.439 -0.2328 -1.8207 -0.5822
  171DOPC   C2320805   4.196   4.232  12.659  0.3095 -0.0878 -0.1497
  171DOPC   H3R20806   4.086   4.240  12.650  0.2034 -1.5811 -0.4416
  171DOPC   H3S20807   4.227   4.338  12.669 -1.6745  0.5830 -0.6862
  171DOPC   C2420808   4.233   4.143  12.783 -0.5449  0.0128 -0.9355
  171DOPC   H4R20809   4.342   4.153  12.802 -0.8881  0.6528  0.9473
  171DOPC   H4S20810   4.216   4.034  12.768  4.9841 -1.0662 -1.4108
  171DOPC   C2520811   4.143   4.175  12.914  0.0766  0.7075 -0.4256
  171DOPC   H5R20812   4.050   4.119  12.890 -0.1953  0.0736  1.8660
  171DOPC   H5S20813   4.122   4.284  12.919  0.0341  0.7113 -0.6668
  171DOPC   C2620814   4.209   4.137  13.052 -0.3351  0.2038  0.4244
  171DOPC   H6R20815   4.304   4.194  13.058 -0.4102  0.1343  2.9509
  171DOPC   H6S20816   4.234   4.029  13.047  1.0583  0.5580 -0.7981
  171DOPC   C2720817   4.121   4.163  13.174 -0.0736 -0.5296  0.1497
  171DOPC   H7R20818   4.015   4.134  13.155  0.7043 -1.8644 -2.7506
  171DOPC   H7S20819   4.110   4.272  13.195 -0.2187 -0.7385  1.1706
  171DOPC   C2820820   4.180   4.074  13.287  0.4070  0.2811  0.5541
  171DOPC   H8R20821   4.273   4.124  13.322 -0.2382  0.0926  2.7072
  171DOPC   H8S20822   4.195   3.971  13.247 -1.9277 -0.5523  1.6307
  171DOPC   C2920823   4.083   4.073  13.408  0.3380  0.7215  0.2727
  171DOPC   H9R20824   3.989   4.129  13.405  0.1189  0.3259 -1.4716
  171DOPC  C21020825   4.125   4.026  13.525 -0.1686  0.0426  0.2158
  171DOPC  H10R20826   4.062   4.014  13.614 -0.1763 -1.8720 -0.0156
  171DOPC  C21120827   4.255   3.957  13.560 -0.2932 -0.0345 -0.1276
  171DOPC  H11R20828   4.314   3.954  13.465 -1.2204  1.8356 -0.8216
  171DOPC  H11S20829   4.238   3.850  13.585  0.3387 -0.3176 -0.8574
  171DOPC  C21220830   4.357   4.019  13.660 -0.2618  0.4748  0.6252
  171DOPC  H12R20831   4.405   4.111  13.620  0.9172 -0.0603  0.7510
  171DOPC  H12S20832   4.447   3.955  13.675  0.6257  1.8883  1.6825
  171DOPC  C21320833   4.303   4.044  13.802  0.0284  0.3496 -1.0591
  171DOPC  H13R20834   4.252   3.954  13.841  1.8620 -0.7691 -1.1343
  171DOPC  H13S20835   4.233   4.130  13.809 -0.5845 -0.2400  0.7773
  171DOPC  C21420836   4.417   4.078  13.895 -0.2738 -0.1397  0.1939
  171DOPC  H14R20837   4.475   4.156  13.842 -2.8848  1.7148 -0.1176
  171DOPC  H14S20838   4.487   3.992  13.907 -1.4504 -0.9964  1.2079
  171DOPC  C21520839   4.370   4.115  14.035  0.2293  0.4144 -0.1034
  171DOPC  H15R20840   4.346   4.020  14.087  1.7766  0.6433  1.1151
  171DOPC  H15S20841   4.271   4.165  14.024 -0.3884 -1.2348 -3.2463
  171DOPC  C21620842   4.483   4.174  14.116  0.8117  0.0167  0.0817
  171DOPC  H16R20843   4.506   4.275  14.073 -4.0741  1.7457  0.9493
  171DOPC  H16S20844   4.566   4.100  14.118  1.0654 -0.0194 -3.6498
  171DOPC  C21720845   4.437   4.191  14.260 -0.6086 -0.1738  0.4545
  171DOPC  H17R20846   4.419   4.091  14.305 -0.7258 -1.2693 -1.8855
  171DOPC  H17S20847   4.329   4.217  14.265 -0.6747 -0.5893  1.3416
  171DOPC  C21820848   4.514   4.300  14.335  0.5653 -0.5726  0.5740
  171DOPC  H18R20849   4.463   4.348  14.422  0.0979  0.6201 -0.3357
  171DOPC  H18S20850   4.534   4.391  14.275 -0.9680  0.7247  1.8964
  171DOPC  H18T20851   4.616   4.264  14.361  2.5221  2.6451 -1.8115
  171DOPC   C3320852   3.969   4.564  12.555 -0.0149 -0.1216 -0.1843
  171DOPC   H3X20853   4.058   4.630  12.556  1.4780 -1.8364 -3.2946
  171DOPC   H3Y20854   4.010   4.462  12.571  1.3587  0.7021  1.8479
  171DOPC   C3420855   3.876   4.595  12.678 -0.2160  0.1856 -0.1964
  171DOPC   H4X20856   3.772   4.555  12.683 -1.0326  1.9530 -1.7525
  171DOPC   H4Y20857   3.850   4.702  12.663 -2.4442 -0.6094 -2.7289
  171DOPC   C3520858   3.953   4.566  12.804  0.0900 -0.4339 -0.0775
  171DOPC   H5X20859   4.044   4.628  12.798  2.3794 -3.6208 -1.0442
  171DOPC   H5Y20860   3.981   4.458  12.800 -0.8834 -0.6910 -0.3342
  171DOPC   C3620861   3.879   4.609  12.937 -0.1947  0.6497  0.9844
  171DOPC   H6X20862   3.850   4.716  12.935 -0.7291  0.4864 -0.4240
  171DOPC   H6Y20863   3.789   4.548  12.957  0.8916 -0.9763  1.1751
  171DOPC   C3720864   3.975   4.587  13.057  1.1142  0.0558 -0.4611
  171DOPC   H7X20865   3.982   4.476  13.064  0.7650 -0.0608 -1.6980
  171DOPC   H7Y20866   4.073   4.638  13.044 -0.2159  2.8409 -0.1802
  171DOPC   C3820867   3.921   4.638  13.191  0.0119 -0.0532 -0.1672
  171DOPC   H8X20868   3.910   4.747  13.206  2.0931  0.1115  0.5013
  171DOPC   H8Y20869   4.000   4.611  13.264  1.2489 -1.2026 -1.8435
  171DOPC   C3920870   3.793   4.583  13.248  0.2281  0.7455 -0.6447
  171DOPC   H9X20871   3.708   4.586  13.179  0.3376  0.2782 -0.8034
  171DOPC  C31020872   3.763   4.546  13.376  0.4098  0.8971  0.1327
  171DOPC  H10X20873   3.663   4.504  13.396  0.4346  0.0671 -1.3316
  171DOPC  C31120874   3.862   4.542  13.488  0.6782 -0.1238 -0.6989
  171DOPC  H11X20875   3.813   4.536  13.588 -0.1631 -1.8033 -1.1830
  171DOPC  H11Y20876   3.917   4.639  13.485 -0.2388  0.3895 -3.9744
  171DOPC  C31220877   3.956   4.424  13.484 -0.1283 -0.3262 -0.8169
  171DOPC  H12X20878   4.005   4.417  13.385  0.4077 -0.5069 -0.5382
  171DOPC  H12Y20879   3.901   4.329  13.500 -2.0646  0.9485  0.6261
  171DOPC  C31320880   4.081   4.433  13.578  0.5758  0.6527  0.5279
  171DOPC  H13X20881   4.146   4.351  13.541 -0.9092  0.2611 -1.4177
  171DOPC  H13Y20882   4.131   4.530  13.560 -0.7620  1.1662 -0.6992
  171DOPC  C31420883   4.038   4.434  13.718  0.0282  0.5354 -0.9409
  171DOPC  H14X20884   3.953   4.506  13.724  0.6895  1.2748 -0.2361
  171DOPC  H14Y20885   3.993   4.338  13.752  2.7208  0.0686  1.7834
  171DOPC  C31520886   4.152   4.463  13.818 -0.9533  0.1333  0.1356
  171DOPC  H15X20887   4.203   4.555  13.783  2.0634 -0.8316  1.7120
  171DOPC  H15Y20888   4.223   4.378  13.809 -0.4332  0.5119  0.6118
  171DOPC  C31620889   4.103   4.465  13.963  0.0128  0.6031 -0.0366
  171DOPC  H16X20890   4.046   4.561  13.971  0.1244  0.7113 -0.5039
  171DOPC  H16Y20891   4.040   4.375  13.980  0.1710  0.5678  0.3740
  171DOPC  C31720892   4.214   4.481  14.067 -0.4083 -0.1967 -0.2938
  171DOPC  H17X20893   4.293   4.403  14.072 -1.1717 -0.9387  0.5761
  171DOPC  H17Y20894   4.258   4.583  14.058 -0.5148 -0.1899 -0.7629
  171DOPC  C31820895   4.140   4.480  14.205 -0.1818  1.0784 -0.0619
  171DOPC  H18X20896   4.055   4.551  14.201 -2.1340 -1.1962 -2.6899
  171DOPC  H18Y20897   4.112   4.375  14.225 -1.5111  1.4661  0.2355
  171DOPC  H18Z20898   4.219   4.512  14.276  1.0966  0.6991 -1.2543
  172DOPC     N20899   2.187   5.367  11.608 -0.2211 -0.0854 -0.5455
  172DOPC   C1220900   2.185   5.396  11.758 -0.4538  0.1317  1.0191
  172DOPC  H12A20901   2.084   5.418  11.790 -0.9763 -2.1985  1.1380
  172DOPC  H12B20902   2.243   5.484  11.779 -2.6440  1.7228  0.8321
  172DOPC   C1320903   2.131   5.230  11.577  0.2718 -0.2347  0.3904
  172DOPC  H13A20904   2.124   5.213  11.470 -4.5124  2.4365  0.0027
  172DOPC  H13B20905   2.187   5.143  11.609  0.4163 -1.9923 -3.9616
  172DOPC  H13C20906   2.034   5.228  11.624 -0.2056 -1.1210 -0.5912
  172DOPC   C1420907   2.333   5.368  11.560  0.8809 -0.0362 -0.4529
  172DOPC  H14A20908   2.384   5.285  11.606  1.6492 -0.2928 -1.7408
  172DOPC  H14B20909   2.340   5.368  11.453  1.3551  2.1368 -0.4717
  172DOPC  H14C20910   2.385   5.459  11.586 -0.5508  1.3960 -2.3375
  172DOPC   C1520911   2.109   5.466  11.526 -1.1020 -0.0121 -0.7973
  172DOPC  H15A20912   2.151   5.565  11.531  0.7533 -0.8179  0.8411
  172DOPC  H15B20913   2.006   5.473  11.556 -1.0436 -0.4504 -0.4840
  172DOPC  H15C20914   2.115   5.437  11.422 -2.2279 -1.4925 -0.4754
  172DOPC   C1120915   2.226   5.276  11.851  0.3328  0.0235 -0.3798
  172DOPC  H11A20916   2.220   5.315  11.955 -0.7411  1.3742 -0.9153
  172DOPC  H11B20917   2.144   5.201  11.851 -0.3981  0.3833  4.9234
  172DOPC     P20918   2.388   5.079  11.789 -0.0754  0.2800  0.0788
  172DOPC   O1320919   2.442   5.089  11.647 -0.2217 -0.9699  0.0028
  172DOPC   O1420920   2.274   4.992  11.817 -0.4636  0.2951 -0.4676
  172DOPC   O1220921   2.358   5.227  11.825 -0.9528 -0.1508  0.4826
  172DOPC   O1120922   2.514   5.044  11.886 -0.8980 -0.3315 -0.5014
  172DOPC    C120923   2.610   5.143  11.919  0.0373  0.7551 -0.3009
  172DOPC    HA20924   2.562   5.227  11.973  0.3290  0.6279  0.1613
  172DOPC    HB20925   2.649   5.197  11.830 -0.3361 -1.7973 -2.1267
  172DOPC    C220926   2.727   5.084  12.000  0.2200 -1.0412 -0.4309
  172DOPC    HS20927   2.780   5.013  11.933 -0.8677 -2.8517  0.5223
  172DOPC   O2120928   2.667   5.000  12.108 -0.5139 -0.2964 -0.8445
  172DOPC   C2120929   2.763   4.923  12.160  0.6597  1.1124 -0.5376
  172DOPC   O2220930   2.875   4.910  12.113 -0.1880 -0.1015  0.2493
  172DOPC   C2220931   2.710   4.830  12.263 -0.3624  0.0064 -0.0919
  172DOPC   H2R20932   2.698   4.727  12.223  0.4117 -0.6755  1.3725
  172DOPC   H2S20933   2.616   4.876  12.301  0.1021  1.7767 -0.9842
  172DOPC    C320934   2.819   5.200  12.057  0.4082  0.7858  0.3832
  172DOPC    HX20935   2.873   5.240  11.968  0.7663 -1.8416 -0.6694
  172DOPC    HY20936   2.898   5.165  12.126  0.3824  0.9838  0.5138
  172DOPC   O3120937   2.739   5.303  12.126 -0.1491 -0.1141 -0.0673
  172DOPC   C3120938   2.740   5.291  12.261 -0.8051  0.2642  0.5606
  172DOPC   O3220939   2.766   5.192  12.321  0.1400 -0.1644 -0.5383
  172DOPC   C3220940   2.705   5.427  12.320 -0.2615  0.2099  0.0882
  172DOPC   H2X20941   2.665   5.501  12.248 -1.6759 -0.0154  0.6082
  172DOPC   H2Y20942   2.631   5.402  12.400  0.3289  1.6253  1.1158
  172DOPC   C2320943   2.813   4.811  12.384  0.3660 -0.1843 -0.2709
  172DOPC   H3R20944   2.818   4.908  12.438  1.4655 -0.5667  0.3444
  172DOPC   H3S20945   2.910   4.779  12.342  1.1078 -0.2199  1.4043
  172DOPC   C2420946   2.762   4.703  12.483  0.9046 -0.0362  0.5618
  172DOPC   H4R20947   2.762   4.610  12.422  0.0030 -0.4366  1.1549
  172DOPC   H4S20948   2.660   4.727  12.520  0.6434 -0.8660  0.3874
  172DOPC   C2520949   2.873   4.670  12.589 -0.6232 -0.4024  0.8537
  172DOPC   H5R20950   2.884   4.751  12.665  3.1087  2.1069 -1.9991
  172DOPC   H5S20951   2.966   4.668  12.529 -1.8144 -2.4209 -1.0560
  172DOPC   C2620952   2.859   4.537  12.651 -0.0829 -0.1019  0.5118
  172DOPC   H6R20953   2.951   4.515  12.709  1.7255  1.3482 -1.6746
  172DOPC   H6S20954   2.856   4.453  12.578 -1.5509  0.1538  0.2344
  172DOPC   C2720955   2.742   4.524  12.755  0.4618 -0.1921  0.5780
  172DOPC   H7R20956   2.719   4.415  12.755  1.5454 -0.4551 -0.7574
  172DOPC   H7S20957   2.660   4.586  12.713  0.6086  0.9251  1.9013
  172DOPC   C2820958   2.768   4.564  12.903 -0.7153  0.0429  0.5053
  172DOPC   H8R20959   2.673   4.581  12.958  0.7711  2.8683  2.4807
  172DOPC   H8S20960   2.817   4.663  12.896 -0.5051  0.0136  1.5154
  172DOPC   C2920961   2.858   4.477  12.988 -0.8159 -0.2180 -0.0358
  172DOPC   H9R20962   2.912   4.398  12.934  1.4217  0.1852  1.4577
  172DOPC  C21020963   2.882   4.506  13.115 -0.0110  0.6009 -0.8860
  172DOPC  H10R20964   2.929   4.426  13.174 -1.0161  1.7718  1.6750
  172DOPC  C21120965   2.822   4.619  13.193  0.0456  0.3049 -0.1742
  172DOPC  H11R20966   2.792   4.698  13.121  0.4291  1.1654  0.5817
  172DOPC  H11S20967   2.900   4.671  13.252  0.1898  0.8434 -0.8254
  172DOPC  C21220968   2.697   4.561  13.269  0.4058 -0.3338  0.3502
  172DOPC  H12R20969   2.625   4.510  13.202 -1.8234 -0.6637  2.8390
  172DOPC  H12S20970   2.644   4.653  13.303 -0.3597 -1.3050  1.8422
  172DOPC  C21320971   2.737   4.475  13.389  0.8664  0.1146 -0.2549
  172DOPC  H13R20972   2.783   4.379  13.360  1.3948  0.7570 -1.5914
  172DOPC  H13S20973   2.652   4.462  13.460  1.6725 -0.8699  0.5707
  172DOPC  C21420974   2.842   4.552  13.481  0.1964 -0.2816  0.0507
  172DOPC  H14R20975   2.836   4.662  13.476  0.3793 -0.3238 -2.0289
  172DOPC  H14S20976   2.942   4.524  13.440 -0.4315 -2.2623 -0.2324
  172DOPC  C21520977   2.831   4.517  13.632 -0.3145  0.0941  0.3928
  172DOPC  H15R20978   2.852   4.408  13.639  1.3803  0.2520 -1.4307
  172DOPC  H15S20979   2.729   4.549  13.662  0.7043  2.2159  1.8648
  172DOPC  C21620980   2.932   4.591  13.721  0.1686  0.5637 -0.1898
  172DOPC  H16R20981   2.934   4.700  13.700  1.0405  1.2244  2.7699
  172DOPC  H16S20982   3.027   4.534  13.726 -0.3268 -0.1957  1.6046
  172DOPC  C21720983   2.886   4.582  13.872  0.3894  0.1371 -0.3753
  172DOPC  H17R20984   2.857   4.478  13.893 -1.8253  0.7000 -0.4200
  172DOPC  H17S20985   2.791   4.635  13.894  0.2509 -0.2305 -0.0844
  172DOPC  C21820986   2.988   4.639  13.974 -0.2442  0.0240 -0.6183
  172DOPC  H18R20987   3.008   4.748  13.972  0.5242 -0.0381  1.5176
  172DOPC  H18S20988   3.085   4.592  13.946 -0.0235  0.2855 -0.3032
  172DOPC  H18T20989   2.958   4.613  14.077 -1.6310  3.1993 -0.1101
  172DOPC   C3320990   2.817   5.507  12.400  0.1069 -0.2828  0.2263
  172DOPC   H3X20991   2.760   5.588  12.449 -1.7210 -0.3984 -1.5642
  172DOPC   H3Y20992   2.890   5.545  12.326 -1.0637  0.1861 -0.7206
  172DOPC   C3420993   2.860   5.427  12.525  0.5126 -0.5123  0.8153
  172DOPC   H4X20994   2.899   5.330  12.488 -1.0796 -0.1464 -2.1295
  172DOPC   H4Y20995   2.773   5.402  12.591 -1.3697 -0.8913 -1.6470
  172DOPC   C3520996   2.981   5.498  12.592  0.7582 -0.0117  1.3336
  172DOPC   H5X20997   2.949   5.600  12.625  0.6791  0.6659 -0.6932
  172DOPC   H5Y20998   3.062   5.510  12.518 -0.8249  0.8715 -0.3441
  172DOPC   C3620999   3.027   5.426  12.716  0.1182 -0.1538 -0.2832
  172DOPC   H6X21000   2.943   5.401  12.785  0.0643  0.7432 -0.0103
  172DOPC   H6Y21001   3.065   5.328  12.680  0.6351  1.0118 -3.2098
  172DOPC   C3721002   3.136   5.512  12.788  0.0490 -0.1606  0.5173
  172DOPC   H7X21003   3.226   5.526  12.723 -1.0871 -1.9932 -1.5966
  172DOPC   H7Y21004   3.111   5.618  12.811  3.4333  0.5044  1.6923
  172DOPC   C3821005   3.174   5.452  12.924  0.2418  0.7290 -0.5010
  172DOPC   H8X21006   3.201   5.345  12.911  3.6020  1.3279  0.7154
  172DOPC   H8Y21007   3.086   5.450  12.992  0.5232  0.5763 -0.1367
  172DOPC   C3921008   3.295   5.522  12.990  0.1074 -0.3756  0.2429
  172DOPC   H9X21009   3.371   5.554  12.917  1.5548 -1.0718  1.3856
  172DOPC  C31021010   3.308   5.565  13.114  0.4236 -1.0838 -0.0549
  172DOPC  H10X21011   3.400   5.612  13.152 -0.6797  0.8696  0.3737
  172DOPC  C31121012   3.223   5.537  13.234  0.0771  0.2793 -0.6191
  172DOPC  H11X21013   3.159   5.448  13.219  0.4990  0.2265 -2.3343
  172DOPC  H11Y21014   3.153   5.622  13.246  1.4649  1.1256  2.3940
  172DOPC  C31221015   3.290   5.545  13.374 -0.0543  0.9781 -0.4283
  172DOPC  H12X21016   3.356   5.631  13.394  1.8636 -0.3122 -0.9391
  172DOPC  H12Y21017   3.339   5.446  13.387 -0.8515  0.8956  3.0953
  172DOPC  C31321018   3.188   5.535  13.490  0.5445 -0.2394  0.8160
  172DOPC  H13X21019   3.122   5.623  13.477  0.0556 -0.4656  1.6726
  172DOPC  H13Y21020   3.130   5.441  13.477 -2.4786  1.7385 -1.5075
  172DOPC  C31421021   3.250   5.553  13.625 -0.8663 -0.1814 -0.3803
  172DOPC  H14X21022   3.315   5.465  13.642 -0.6259 -0.2225 -1.4310
  172DOPC  H14Y21023   3.314   5.644  13.620 -1.1654 -0.0263 -1.9350
  172DOPC  C31521024   3.134   5.552  13.727  0.0408  0.3611  0.1052
  172DOPC  H15X21025   3.072   5.460  13.731  1.2805 -0.4746  1.8211
  172DOPC  H15Y21026   3.069   5.640  13.711  0.0386  0.5359  1.0183
  172DOPC  C31621027   3.176   5.574  13.876 -0.2332 -0.3520  0.2474
  172DOPC  H16X21028   3.090   5.575  13.946  0.2083  1.3714  0.8305
  172DOPC  H16Y21029   3.241   5.489  13.904  1.3851  0.9890  0.7286
  172DOPC  C31721030   3.245   5.710  13.896 -0.5813  0.0148  0.8842
  172DOPC  H17X21031   3.349   5.716  13.856 -1.0525  0.7593 -0.2691
  172DOPC  H17Y21032   3.177   5.786  13.852 -0.0521 -0.7173 -1.3348
  172DOPC  C31821033   3.263   5.744  14.044 -0.7818 -0.4565  0.0940
  172DOPC  H18X21034   3.159   5.748  14.084 -0.6305  2.2560  0.4353
  172DOPC  H18Y21035   3.323   5.670  14.101  2.9239  1.7238 -0.6723
  172DOPC  H18Z21036   3.300   5.847  14.061  2.3399 -1.6379  1.1496
  173DOPC     N21037   2.533   3.754  11.823  0.0296  0.4684  0.0170
  173DOPC   C1221038   2.563   3.848  11.937 -0.4635 -0.4625 -0.2616
  173DOPC  H12A21039   2.644   3.811  11.998  0.5753  0.6577 -0.8993
  173DOPC  H12B21040   2.481   3.868  12.004 -0.2514  1.7142 -0.5955
  173DOPC   C1321041   2.508   3.619  11.889 -0.5589  0.0853 -0.1041
  173DOPC  H13A21042   2.482   3.543  11.817  0.1736 -0.2838  0.0105
  173DOPC  H13B21043   2.595   3.578  11.937 -1.3988  0.9189  2.2669
  173DOPC  H13C21044   2.420   3.617  11.952 -0.4619 -1.7814  0.0334
  173DOPC   C1421045   2.641   3.752  11.723 -0.1402  0.0703 -0.4440
  173DOPC  H14A21046   2.737   3.723  11.763 -0.0212  1.1393  0.0767
  173DOPC  H14B21047   2.618   3.685  11.641 -1.8230 -0.3673  0.3418
  173DOPC  H14C21048   2.654   3.846  11.673  1.3752 -1.0264 -2.2655
  173DOPC   C1521049   2.407   3.794  11.765  0.4825 -0.4102  0.0124
  173DOPC  H15A21050   2.338   3.822  11.843 -2.0232 -1.6448 -1.6193
  173DOPC  H15B21051   2.359   3.725  11.697 -0.1685 -0.8619  0.9243
  173DOPC  H15C21052   2.426   3.881  11.704 -0.7955 -0.1885 -0.0960
  173DOPC   C1121053   2.598   3.995  11.892 -0.7882 -0.3928 -0.2011
  173DOPC  H11A21054   2.652   4.039  11.979 -1.6511 -1.7048  1.0398
  173DOPC  H11B21055   2.671   3.999  11.808 -0.4348 -0.6126  0.0908
  173DOPC     P21056   2.373   4.096  11.985 -0.5352  0.3079 -0.4096
  173DOPC   O1321057   2.316   3.978  12.046 -0.0502  0.1840 -0.4317
  173DOPC   O1421058   2.282   4.201  11.928  0.1100  0.2939  0.1301
  173DOPC   O1221059   2.476   4.059  11.870 -0.5566 -0.4463  0.6806
  173DOPC   O1121060   2.466   4.162  12.096  0.5852 -0.2344  1.0679
  173DOPC    C121061   2.539   4.287  12.079 -0.6344 -0.0466 -0.2578
  173DOPC    HA21062   2.530   4.328  11.976 -0.8996 -1.0386 -0.6405
  173DOPC    HB21063   2.646   4.266  12.099  0.0055  0.9817 -2.3437
  173DOPC    C221064   2.486   4.387  12.189 -0.5311  0.1285 -0.4347
  173DOPC    HS21065   2.553   4.476  12.192 -0.8403  0.3695  2.9710
  173DOPC   O2121066   2.489   4.326  12.318 -0.3928 -0.7006 -0.0615
  173DOPC   C2121067   2.607   4.311  12.380  0.2403  0.6846 -0.2586
  173DOPC   O2221068   2.712   4.363  12.353 -0.3420  0.4247  0.1082
  173DOPC   C2221069   2.575   4.204  12.497 -0.0000 -0.7275  0.2960
  173DOPC   H2R21070   2.487   4.144  12.465 -0.8946 -0.1059  1.5217
  173DOPC   H2S21071   2.544   4.273  12.578  0.3391 -0.0576 -0.1293
  173DOPC    C321072   2.347   4.442  12.139  0.9061  0.2246 -0.0234
  173DOPC    HX21073   2.268   4.364  12.133  0.8586  0.3334 -1.1655
  173DOPC    HY21074   2.363   4.478  12.035 -0.6571  1.4887  0.1290
  173DOPC   O3121075   2.314   4.557  12.220 -0.1905  0.1032  0.5149
  173DOPC   C3121076   2.210   4.540  12.299 -0.4211 -0.4038  1.0838
  173DOPC   O3221077   2.145   4.437  12.311  0.3496  0.9279 -0.2367
  173DOPC   C3221078   2.184   4.677  12.361  0.2621  0.1508 -0.3408
  173DOPC   H2X21079   2.279   4.734  12.355 -0.5690  1.5240 -1.0921
  173DOPC   H2Y21080   2.109   4.730  12.298 -0.9189 -0.4773  0.4823
  173DOPC   C2321081   2.694   4.107  12.541 -0.3476  0.1000 -0.4136
  173DOPC   H3R21082   2.790   4.162  12.547 -1.0321  1.3825 -0.6670
  173DOPC   H3S21083   2.702   4.039  12.453 -3.6773  0.4426 -1.1203
  173DOPC   C2421084   2.665   4.013  12.656  0.1048  0.1709 -0.3213
  173DOPC   H4R21085   2.745   3.938  12.667 -0.1024 -0.1367 -0.9063
  173DOPC   H4S21086   2.563   3.968  12.658  0.3115 -0.3042  1.5607
  173DOPC   C2521087   2.651   4.090  12.787 -0.2687  0.5774  0.1786
  173DOPC   H5R21088   2.550   4.130  12.814  1.0995  4.4822  0.1224
  173DOPC   H5S21089   2.724   4.173  12.791 -0.0531  0.3536  1.5248
  173DOPC   C2621090   2.700   4.011  12.915 -0.7388  0.9020  0.8234
  173DOPC   H6R21091   2.800   3.967  12.896 -0.2458  1.6457  1.6108
  173DOPC   H6S21092   2.622   3.937  12.944 -0.2920  0.0702 -0.0545
  173DOPC   C2721093   2.728   4.111  13.029  0.2595 -0.3855 -0.5268
  173DOPC   H7R21094   2.633   4.167  13.044  0.5603  0.0678 -0.3087
  173DOPC   H7S21095   2.810   4.181  13.001  1.0075 -1.1946 -0.4043
  173DOPC   C2821096   2.773   4.060  13.167  0.4969  0.0894 -0.3579
  173DOPC   H8R21097   2.774   4.149  13.233  0.8498 -2.3756  3.3111
  173DOPC   H8S21098   2.873   4.012  13.171 -0.3812 -1.9722 -1.3667
  173DOPC   C2921099   2.670   3.966  13.234  0.7616  0.8932 -0.2700
  173DOPC   H9R21100   2.653   3.874  13.177  2.1022 -0.3762  1.2765
  173DOPC  C21021101   2.586   4.005  13.331 -0.2575  0.4514  0.1844
  173DOPC  H10R21102   2.501   3.943  13.366  1.8336 -2.4664  0.4553
  173DOPC  C21121103   2.602   4.131  13.406  0.8194 -0.6718  0.2687
  173DOPC  H11R21104   2.583   4.212  13.332 -2.4714 -0.9123  0.6899
  173DOPC  H11S21105   2.703   4.155  13.444  0.8072 -2.2037  1.3656
  173DOPC  C21221106   2.508   4.141  13.532 -0.0195  0.3792  0.1517
  173DOPC  H12R21107   2.401   4.120  13.510 -0.1318 -0.8444  1.6835
  173DOPC  H12S21108   2.528   4.238  13.582  0.8706  0.1477  0.2669
  173DOPC  C21321109   2.553   4.038  13.631 -0.3457  0.8045  0.3172
  173DOPC  H13R21110   2.663   4.049  13.632 -0.2751  0.4268 -1.0739
  173DOPC  H13S21111   2.533   3.935  13.594 -0.6170  0.8707  0.2760
  173DOPC  C21421112   2.498   4.056  13.773 -0.2980 -0.0907 -0.2651
  173DOPC  H14R21113   2.389   4.035  13.765  0.1959 -3.2189  0.2247
  173DOPC  H14S21114   2.508   4.160  13.811  0.6139 -0.7751  1.4789
  173DOPC  C21521115   2.568   3.973  13.876  0.9381 -0.2127 -0.3846
  173DOPC  H15R21116   2.677   3.980  13.857  0.7996  0.9401 -0.8102
  173DOPC  H15S21117   2.552   3.863  13.864 -3.8948  0.1167  0.7112
  173DOPC  C21621118   2.535   4.017  14.014  0.5361  0.1959 -0.4035
  173DOPC  H16R21119   2.567   3.941  14.088  1.8695  2.0668  1.0414
  173DOPC  H16S21120   2.425   4.026  14.023  0.4052 -2.0245  0.8709
  173DOPC  C21721121   2.598   4.151  14.063 -0.2135  0.7951 -0.0746
  173DOPC  H17R21122   2.550   4.189  14.156 -0.8194  0.6060 -0.3094
  173DOPC  H17S21123   2.575   4.228  13.986  2.6718  0.9965 -0.8483
  173DOPC  C21821124   2.753   4.157  14.075 -0.7255  0.6384 -0.4310
  173DOPC  H18R21125   2.790   4.060  14.037  0.2793  0.9767 -0.3383
  173DOPC  H18S21126   2.767   4.173  14.185  0.4374  2.7230 -0.8313
  173DOPC  H18T21127   2.801   4.243  14.023  3.6617 -0.9529  0.5839
  173DOPC   C3321128   2.127   4.664  12.499  0.3647 -0.0200 -0.1838
  173DOPC   H3X21129   2.035   4.603  12.505 -0.1700  0.7932  0.0388
  173DOPC   H3Y21130   2.107   4.770  12.527  0.0148 -0.1528  0.0688
  173DOPC   C3421131   2.229   4.619  12.612  0.1395 -0.3033 -0.6927
  173DOPC   H4X21132   2.331   4.659  12.597  0.3681  0.1339  1.6935
  173DOPC   H4Y21133   2.213   4.509  12.606 -1.2679 -0.1278 -0.5895
  173DOPC   C3521134   2.184   4.673  12.757 -0.3733  0.2926  0.0875
  173DOPC   H5X21135   2.086   4.628  12.784 -0.5746  1.9569  2.4329
  173DOPC   H5Y21136   2.172   4.782  12.744  1.1645  0.4729  0.0339
  173DOPC   C3621137   2.294   4.627  12.857 -0.3798  0.9562  0.0838
  173DOPC   H6X21138   2.301   4.518  12.873  1.0152  0.9503 -0.4616
  173DOPC   H6Y21139   2.390   4.649  12.807 -1.6320 -0.0422 -2.9890
  173DOPC   C3721140   2.305   4.717  12.978  0.4713 -0.3052 -0.0898
  173DOPC   H7X21141   2.394   4.685  13.036  1.2851 -0.6578 -1.4881
  173DOPC   H7Y21142   2.331   4.821  12.949  0.4709  0.1861  1.5400
  173DOPC   C3821143   2.178   4.715  13.072 -0.6584  0.2419 -0.0811
  173DOPC   H8X21144   2.086   4.727  13.010  0.2125 -1.3073 -1.7459
  173DOPC   H8Y21145   2.176   4.807  13.135 -0.4859  0.0063  0.2732
  173DOPC   C3921146   2.186   4.587  13.161 -0.3858  0.2129 -0.2265
  173DOPC   H9X21147   2.149   4.491  13.123  1.3980 -0.7686  0.3692
  173DOPC  C31021148   2.216   4.583  13.292  0.1510 -0.8250 -0.2652
  173DOPC  H10X21149   2.222   4.485  13.340 -1.7999 -0.6011  0.5228
  173DOPC  C31121150   2.267   4.710  13.361  0.2668  0.4228  0.4980
  173DOPC  H11X21151   2.184   4.753  13.422 -0.9356 -0.6592 -0.3210
  173DOPC  H11Y21152   2.299   4.792  13.294  2.1568 -1.3365 -0.8733
  173DOPC  C31221153   2.385   4.666  13.453 -0.0474  0.1390  0.0639
  173DOPC  H12X21154   2.438   4.757  13.489  0.9041 -0.5810  0.5186
  173DOPC  H12Y21155   2.455   4.611  13.385 -2.4724 -1.0072 -1.6611
  173DOPC  C31321156   2.357   4.592  13.583 -0.3956  0.6594 -0.6831
  173DOPC  H13X21157   2.292   4.506  13.557  1.7261 -1.4529  0.5721
  173DOPC  H13Y21158   2.453   4.553  13.624 -0.6480 -0.1881 -0.8724
  173DOPC  C31421159   2.282   4.668  13.686  0.8835  0.9305 -0.7644
  173DOPC  H14X21160   2.349   4.751  13.719  0.4722  1.0508 -0.2209
  173DOPC  H14Y21161   2.189   4.712  13.646  0.5942 -0.2990 -1.5077
  173DOPC  C31521162   2.241   4.569  13.802  0.2008  0.3304  0.6599
  173DOPC  H15X21163   2.335   4.515  13.828  0.1410  0.3430  0.9046
  173DOPC  H15Y21164   2.176   4.497  13.748 -0.0641 -0.8100  2.4318
  173DOPC  C31621165   2.175   4.627  13.931 -0.4893  0.4973 -0.0827
  173DOPC  H16X21166   2.226   4.722  13.956 -1.6436  1.4193 -1.0806
  173DOPC  H16Y21167   2.073   4.653  13.895 -0.4976  0.9300  0.2437
  173DOPC  C31721168   2.168   4.535  14.056  0.9500 -0.0513 -0.7721
  173DOPC  H17X21169   2.079   4.565  14.117 -0.0496 -1.1460 -1.6569
  173DOPC  H17Y21170   2.141   4.431  14.030 -0.7940 -1.0788  4.0228
  173DOPC  C31821171   2.294   4.527  14.142 -0.2389 -0.7211  0.2709
  173DOPC  H18X21172   2.264   4.507  14.248 -1.5579 -2.3111 -0.3526
  173DOPC  H18Y21173   2.362   4.448  14.102 -0.5517 -0.0242 -1.7310
  173DOPC  H18Z21174   2.346   4.625  14.139 -1.7767  0.1215  0.2798
  174DOPC     N21175   4.511   3.549  11.577 -0.1161 -0.1192 -0.4443
  174DOPC   C1221176   4.659   3.567  11.612 -0.0726  0.2748 -0.2834
  174DOPC  H12A21177   4.720   3.583  11.524  2.6729 -0.3009  1.4295
  174DOPC  H12B21178   4.705   3.481  11.658  1.7668  2.2070  1.6763
  174DOPC   C1321179   4.490   3.449  11.466  0.0832 -0.2843 -0.0502
  174DOPC  H13A21180   4.534   3.352  11.487  2.2899  0.7539  0.3708
  174DOPC  H13B21181   4.388   3.442  11.430 -0.0917 -1.7420  0.6603
  174DOPC  H13C21182   4.543   3.487  11.380  0.0925  1.3229  0.6422
  174DOPC   C1421183   4.455   3.684  11.529  0.0190  0.1368  0.2707
  174DOPC  H14A21184   4.502   3.716  11.437 -0.9553  0.9291  0.0254
  174DOPC  H14B21185   4.350   3.675  11.505 -0.5070  3.4158  0.8154
  174DOPC  H14C21186   4.468   3.764  11.600 -0.5295  1.9135 -1.5199
  174DOPC   C1521187   4.436   3.510  11.704  0.1174  0.0320 -0.3234
  174DOPC  H15A21188   4.450   3.407  11.733 -0.7021 -0.0307 -0.1181
  174DOPC  H15B21189   4.332   3.527  11.681 -0.1122 -1.1899 -0.2696
  174DOPC  H15C21190   4.472   3.558  11.793  1.2016 -1.1969 -0.0716
  174DOPC   C1121191   4.695   3.697  11.695 -0.0157  1.1427 -0.2009
  174DOPC  H11A21192   4.620   3.697  11.776 -0.0175 -1.8864 -0.0779
  174DOPC  H11B21193   4.797   3.686  11.738 -0.3861 -0.4241  0.3462
  174DOPC     P21194   4.823   3.855  11.521  0.2497 -0.0057 -0.0329
  174DOPC   O1321195   4.776   3.910  11.393  0.0503 -0.5966  0.3006
  174DOPC   O1421196   4.887   3.721  11.504 -0.0520  0.5128  0.0062
  174DOPC   O1221197   4.701   3.817  11.614  0.2353 -0.0556 -0.5611
  174DOPC   O1121198   4.916   3.950  11.605 -0.1586  0.0514 -0.5247
  174DOPC    C121199   4.875   4.044  11.697  0.1155 -0.7961 -0.2144
  174DOPC    HA21200   4.764   4.054  11.696  0.2304  0.9696  1.1417
  174DOPC    HB21201   4.915   4.145  11.676  0.1306 -0.1224  2.6641
  174DOPC    C221202   4.932   4.007  11.838  0.7499  0.0819 -0.4735
  174DOPC    HS21203   5.042   4.019  11.822  0.3246  1.5881 -2.7976
  174DOPC   O2121204   4.890   3.873  11.871  0.0385 -0.1307 -0.0396
  174DOPC   C2121205   4.972   3.812  11.956  0.4521  0.3113  0.1729
  174DOPC   O2221206   5.077   3.847  11.997 -0.3844  0.3839 -0.0377
  174DOPC   C2221207   4.909   3.678  12.005  0.3743 -0.0533  0.5118
  174DOPC   H2R21208   4.937   3.603  11.928  1.1191 -2.0671  2.6388
  174DOPC   H2S21209   4.799   3.696  12.007  0.0057 -1.1014 -3.1211
  174DOPC    C321210   4.871   4.102  11.941 -0.1348 -0.5767 -0.8331
  174DOPC    HX21211   4.761   4.091  11.942 -0.3685  1.2984  1.0617
  174DOPC    HY21212   4.896   4.202  11.901 -2.0789  0.3339  0.1100
  174DOPC   O3121213   4.926   4.081  12.075 -0.6483 -0.0761  0.2521
  174DOPC   C3121214   5.048   4.122  12.094  0.8063  0.3632 -1.6452
  174DOPC   O3221215   5.111   4.201  12.029 -0.2083 -0.2750 -0.3123
  174DOPC   C3221216   5.093   4.058  12.226 -0.0461 -0.9763  0.4073
  174DOPC   H2X21217   5.028   4.110  12.299  1.7865 -0.4887  1.7656
  174DOPC   H2Y21218   5.065   3.952  12.215  0.8556 -1.0455 -1.7737
  174DOPC   C2321219   4.966   3.624  12.137  0.3596 -0.0111  0.1305
  174DOPC   H3R21220   4.967   3.711  12.206  1.9645  0.4827 -0.4836
  174DOPC   H3S21221   5.070   3.591  12.115  0.2197 -0.8971  0.7315
  174DOPC   C2421222   4.899   3.499  12.188 -0.2152 -0.8424  0.6362
  174DOPC   H4R21223   4.973   3.446  12.251 -0.2378 -1.5610  0.0745
  174DOPC   H4S21224   4.884   3.434  12.099  1.2672 -0.5902  0.1716
  174DOPC   C2521225   4.762   3.519  12.256 -0.1071  0.5099 -0.2278
  174DOPC   H5R21226   4.707   3.422  12.259  1.6918 -0.5951 -1.3544
  174DOPC   H5S21227   4.695   3.579  12.189  1.4145  1.1571 -1.2197
  174DOPC   C2621228   4.751   3.588  12.390  0.6308 -0.6601  0.8526
  174DOPC   H6R21229   4.646   3.593  12.426  0.4584  0.9082  0.1982
  174DOPC   H6S21230   4.780   3.694  12.371 -1.2239 -0.2937 -0.1018
  174DOPC   C2721231   4.840   3.527  12.501  0.1564  0.6524  0.5457
  174DOPC   H7R21232   4.940   3.520  12.454 -0.7252  0.1809 -1.3398
  174DOPC   H7S21233   4.798   3.431  12.537 -2.2517  1.7206  0.8042
  174DOPC   C2821234   4.841   3.627  12.620  0.1776  0.1381 -0.7838
  174DOPC   H8R21235   4.733   3.643  12.641 -0.6610 -3.7071 -1.4496
  174DOPC   H8S21236   4.856   3.732  12.586 -1.3855  1.0241  1.0594
  174DOPC   C2921237   4.933   3.585  12.733 -0.0365 -0.5017  0.0619
  174DOPC   H9R21238   5.020   3.530  12.693 -0.4267 -0.3290 -1.0708
  174DOPC  C21021239   4.924   3.620  12.861  0.0548 -0.3002 -0.5345
  174DOPC  H10R21240   5.008   3.587  12.924  0.8979 -0.1169 -1.5356
  174DOPC  C21121241   4.810   3.694  12.923  0.4186 -0.7742 -0.5074
  174DOPC  H11R21242   4.728   3.704  12.849  0.8360  1.2949 -0.7455
  174DOPC  H11S21243   4.838   3.793  12.965  0.7251 -0.8349 -0.5658
  174DOPC  C21221244   4.755   3.610  13.045  1.4019 -0.0933  0.5135
  174DOPC  H12R21245   4.684   3.533  13.008  1.1726  1.4045 -2.4336
  174DOPC  H12S21246   4.683   3.680  13.094  0.7350 -2.1040  2.5566
  174DOPC  C21321247   4.864   3.558  13.145  0.1666  0.0897 -0.8704
  174DOPC  H13R21248   4.947   3.632  13.135  1.2437 -1.1902 -1.8297
  174DOPC  H13S21249   4.905   3.460  13.112  2.1507 -0.0318  1.6644
  174DOPC  C21421250   4.821   3.534  13.293  0.0068  0.0291  0.5895
  174DOPC  H14R21251   4.772   3.435  13.297  0.3528 -0.3273 -2.1097
  174DOPC  H14S21252   4.743   3.607  13.322 -0.9265 -0.4278 -0.6587
  174DOPC  C21521253   4.945   3.541  13.389  1.1817  0.0090  0.3681
  174DOPC  H15R21254   5.019   3.619  13.364  1.7445 -0.9639 -1.1472
  174DOPC  H15S21255   5.007   3.450  13.373  1.0159  0.0614 -0.6328
  174DOPC  C21621256   4.896   3.537  13.534 -0.2347  0.2735  0.5150
  174DOPC  H16R21257   4.846   3.440  13.556  2.1274 -1.6580 -1.8731
  174DOPC  H16S21258   4.834   3.625  13.561  0.1778  1.3405 -1.8189
  174DOPC  C21721259   5.015   3.521  13.634  0.5490  0.2557 -0.3434
  174DOPC  H17R21260   5.098   3.587  13.601  1.3085 -0.7030 -0.3825
  174DOPC  H17S21261   5.057   3.419  13.624 -1.0494 -0.5509  0.7798
  174DOPC  C21821262   4.983   3.550  13.782  0.0502  0.4818  0.0641
  174DOPC  H18R21263   4.903   3.478  13.811 -2.0297  1.8616 -1.8547
  174DOPC  H18S21264   4.928   3.647  13.788  0.0211  0.4989 -0.4758
  174DOPC  H18T21265   5.081   3.557  13.833 -0.8601  1.5588  1.7549
  174DOPC   C3321266   5.240   4.087  12.261 -0.1383  0.3592 -0.1193
  174DOPC   H3X21267   5.267   4.193  12.241  0.9492 -0.0706 -1.0625
  174DOPC   H3Y21268   5.311   4.027  12.201  0.1325 -1.2035  1.6479
  174DOPC   C3421269   5.265   4.053  12.410  0.3743  0.2838  0.1177
  174DOPC   H4X21270   5.201   4.100  12.487  1.1323 -0.4941  1.2429
  174DOPC   H4Y21271   5.366   4.093  12.433  1.3495 -1.9006 -0.1467
  174DOPC   C3521272   5.270   3.897  12.433  0.8557  0.0883 -0.5581
  174DOPC   H5X21273   5.351   3.859  12.366 -1.2777 -0.3937 -3.0205
  174DOPC   H5Y21274   5.179   3.839  12.406  1.0302 -1.2944  1.5720
  174DOPC   C3621275   5.301   3.868  12.579  0.6709  0.0492 -0.1551
  174DOPC   H6X21276   5.349   3.768  12.592  1.5140  0.5438  0.6438
  174DOPC   H6Y21277   5.377   3.935  12.624 -0.0365  0.3822  0.5603
  174DOPC   C3721278   5.177   3.866  12.672  0.1135  0.4804  0.6265
  174DOPC   H7X21279   5.129   3.966  12.676  5.7566  3.5840  1.0680
  174DOPC   H7Y21280   5.102   3.788  12.647  0.8318 -0.4038  1.1740
  174DOPC   C3821281   5.224   3.840  12.818  0.1856  0.5014  0.3360
  174DOPC   H8X21282   5.297   3.756  12.829  0.4686  0.8297  1.0310
  174DOPC   H8Y21283   5.128   3.797  12.854  0.9186  0.1879  2.0432
  174DOPC   C3921284   5.282   3.948  12.905  0.0922 -0.6623  0.2185
  174DOPC   H9X21285   5.379   3.990  12.874  0.0540 -0.5051  0.3070
  174DOPC  C31021286   5.248   3.977  13.028 -0.2237 -0.8746  0.5562
  174DOPC  H10X21287   5.296   4.058  13.084 -3.9680  2.9796 -1.2344
  174DOPC  C31121288   5.136   3.911  13.108  0.1965 -0.0918  0.6034
  174DOPC  H11X21289   5.088   3.838  13.039 -1.0705 -0.0618  1.4274
  174DOPC  H11Y21290   5.056   3.982  13.137 -0.8947 -1.2686  0.5900
  174DOPC  C31221291   5.167   3.823  13.231 -0.1403 -0.2650  0.3938
  174DOPC  H12X21292   5.206   3.722  13.208 -1.2139 -0.5465 -0.2081
  174DOPC  H12Y21293   5.070   3.808  13.283 -0.7810 -0.6553 -0.8843
  174DOPC  C31321294   5.250   3.885  13.341  0.1736  0.2973 -0.0065
  174DOPC  H13X21295   5.346   3.915  13.295 -0.5411  0.1047 -1.6876
  174DOPC  H13Y21296   5.208   3.981  13.378  0.7039  0.8267 -0.7494
  174DOPC  C31421297   5.278   3.793  13.461 -0.1965  0.5839 -0.3329
  174DOPC  H14X21298   5.179   3.756  13.494 -0.0765 -0.0942 -0.7124
  174DOPC  H14Y21299   5.333   3.700  13.436 -0.5365  0.3758 -0.3088
  174DOPC  C31521300   5.342   3.863  13.585  0.1845  0.4942 -0.5051
  174DOPC  H15X21301   5.268   3.938  13.620  1.0955  0.8164  0.7964
  174DOPC  H15Y21302   5.431   3.923  13.553 -0.4710  1.5319 -0.4236
  174DOPC  C31621303   5.367   3.758  13.700 -0.5381  0.2599  0.4888
  174DOPC  H16X21304   5.281   3.688  13.706  1.0847 -1.9562 -0.7751
  174DOPC  H16Y21305   5.459   3.701  13.675  0.6802  1.3645  2.2039
  174DOPC  C31721306   5.390   3.824  13.843 -0.2508 -0.2978  0.1313
  174DOPC  H17X21307   5.479   3.890  13.838 -0.0972 -0.5423 -0.4438
  174DOPC  H17Y21308   5.298   3.882  13.864 -0.7644 -0.2590 -1.9960
  174DOPC  C31821309   5.416   3.720  13.958 -0.1334  0.1473  0.6173
  174DOPC  H18X21310   5.428   3.775  14.054  1.9901 -1.2710  1.2441
  174DOPC  H18Y21311   5.329   3.652  13.963 -1.4419  1.7267  0.2508
  174DOPC  H18Z21312   5.503   3.656  13.932  0.0502  0.9340 -0.8152
  175DOPC     N21313   2.804   1.029  11.645  0.4537 -0.4026  0.0996
  175DOPC   C1221314   2.713   1.100  11.747  0.2637 -0.5027  0.1021
  175DOPC  H12A21315   2.614   1.072  11.714  0.6412 -0.9324 -0.6958
  175DOPC  H12B21316   2.720   1.207  11.736  1.7799 -0.7039 -1.2391
  175DOPC   C1321317   2.765   1.077  11.502  0.7796  0.0109  0.4719
  175DOPC  H13A21318   2.672   1.033  11.470  0.8705 -0.0246  0.2561
  175DOPC  H13B21319   2.756   1.185  11.496 -0.7083 -0.1762 -1.8484
  175DOPC  H13C21320   2.826   1.049  11.418 -0.7323 -0.5242 -0.4914
  175DOPC   C1421321   2.798   0.880  11.655  0.2238 -0.8926  0.4089
  175DOPC  H14A21322   2.860   0.826  11.585  1.2720  1.6224 -0.7255
  175DOPC  H14B21323   2.829   0.843  11.752 -2.0727 -1.3657  1.0378
  175DOPC  H14C21324   2.696   0.844  11.644 -0.0996  0.2659 -0.6520
  175DOPC   C1521325   2.942   1.074  11.660  0.1130 -0.7830 -0.2445
  175DOPC  H15A21326   3.006   1.007  11.604  1.3795  0.3464 -0.1879
  175DOPC  H15B21327   2.968   1.073  11.764 -2.5400  1.3533  0.5698
  175DOPC  H15C21328   2.955   1.174  11.622 -0.9659  0.0130  1.4057
  175DOPC   C1121329   2.722   1.061  11.902 -0.7394 -0.4786 -0.2980
  175DOPC  H11A21330   2.645   1.130  11.944 -0.8250 -0.2548 -0.8015
  175DOPC  H11B21331   2.685   0.957  11.907 -0.1890 -0.6864 -0.5640
  175DOPC     P21332   2.930   0.951  12.012  0.7067  0.4194  0.5742
  175DOPC   O1321333   3.069   0.964  11.959 -0.2385  0.0863 -0.4525
  175DOPC   O1421334   2.858   0.825  11.971 -0.0804 -0.1502  0.6294
  175DOPC   O1221335   2.850   1.076  11.960 -0.2123  0.5394  0.1830
  175DOPC   O1121336   2.934   0.968  12.167  0.8576 -0.6328 -0.2714
  175DOPC    C121337   2.824   1.006  12.251 -0.2080 -0.1179 -0.7174
  175DOPC    HA21338   2.744   1.063  12.198  0.1924  2.1479  0.9403
  175DOPC    HB21339   2.857   1.083  12.324 -1.5141  0.5183 -0.7757
  175DOPC    C221340   2.771   0.884  12.321  1.1119  0.3246  0.1205
  175DOPC    HS21341   2.757   0.809  12.240 -1.9480  1.0038 -0.1069
  175DOPC   O2121342   2.646   0.911  12.376 -0.0548  1.0541  0.9277
  175DOPC   C2121343   2.567   0.804  12.409  0.3857  0.2611  0.0903
  175DOPC   O2221344   2.593   0.692  12.384 -0.3031 -0.3399 -0.7378
  175DOPC   C2221345   2.426   0.863  12.451 -0.7097  0.1679 -0.4190
  175DOPC   H2R21346   2.380   0.901  12.358 -1.4343  0.3221 -0.0055
  175DOPC   H2S21347   2.432   0.949  12.521 -0.0726 -0.5172  0.4062
  175DOPC    C321348   2.877   0.834  12.417 -1.2067  0.1424  0.9537
  175DOPC    HX21349   2.968   0.812  12.357 -1.8685  0.3015 -0.1379
  175DOPC    HY21350   2.845   0.733  12.451 -2.1673  0.3802  0.7989
  175DOPC   O3121351   2.908   0.927  12.523 -0.3764  0.3360  0.5412
  175DOPC   C3121352   2.841   0.918  12.631  0.2903  0.2690 -0.4777
  175DOPC   O3221353   2.761   0.831  12.663  0.0240 -0.1558  0.4472
  175DOPC   C3221354   2.900   1.021  12.721 -0.2738 -1.0325  0.1944
  175DOPC   H2X21355   2.989   0.976  12.769  1.5769  3.2145  1.2511
  175DOPC   H2Y21356   2.945   1.111  12.673 -0.2991 -1.7078 -1.1445
  175DOPC   C2321357   2.330   0.764  12.520  0.0313  0.4037  0.3005
  175DOPC   H3R21358   2.316   0.670  12.464 -0.3712  0.5384  0.1723
  175DOPC   H3S21359   2.236   0.819  12.544  0.1798  1.3286 -1.1568
  175DOPC   C2421360   2.394   0.723  12.657 -0.3641 -0.0766  0.4905
  175DOPC   H4R21361   2.499   0.688  12.645 -1.4949 -2.9578 -2.6294
  175DOPC   H4S21362   2.323   0.646  12.694 -0.8436 -0.9544 -2.0729
  175DOPC   C2521363   2.396   0.844  12.756 -0.4447 -0.1231 -0.0512
  175DOPC   H5R21364   2.307   0.909  12.743  0.0072  0.2838 -1.2628
  175DOPC   H5S21365   2.481   0.911  12.730 -1.8786  2.0327  0.5645
  175DOPC   C2621366   2.428   0.795  12.890  0.1472  0.0963  0.0710
  175DOPC   H6R21367   2.521   0.737  12.877 -0.3476 -0.7676  0.3077
  175DOPC   H6S21368   2.348   0.720  12.910  1.0890 -0.9848 -0.1229
  175DOPC   C2721369   2.450   0.897  12.997  0.0449 -0.4081 -0.6277
  175DOPC   H7R21370   2.367   0.970  13.002  0.5560  0.0833  2.4558
  175DOPC   H7S21371   2.538   0.951  12.954 -0.6284  0.3308 -1.1108
  175DOPC   C2821372   2.489   0.847  13.137  0.6223  0.4883  0.1149
  175DOPC   H8R21373   2.532   0.934  13.191  0.4467 -1.2055  3.2409
  175DOPC   H8S21374   2.568   0.769  13.132 -0.8803 -1.1956  1.1705
  175DOPC   C2921375   2.372   0.797  13.225  0.2018  0.1867 -0.1865
  175DOPC   H9R21376   2.294   0.732  13.184  0.4612 -1.3286  1.5818
  175DOPC  C21021377   2.356   0.833  13.347 -0.2269  0.1984 -0.1179
  175DOPC  H10R21378   2.266   0.810  13.405  0.2103  0.5527  0.7077
  175DOPC  C21121379   2.458   0.906  13.434  0.6014 -0.3030  0.2126
  175DOPC  H11R21380   2.466   1.010  13.398  0.5099 -0.2521  0.3382
  175DOPC  H11S21381   2.559   0.861  13.443  1.1462  1.1042  1.4722
  175DOPC  C21221382   2.405   0.914  13.576  0.2723  0.8815 -0.4252
  175DOPC  H12R21383   2.298   0.943  13.584 -0.4713 -2.0663  1.5275
  175DOPC  H12S21384   2.455   1.001  13.625  0.3788  1.0335 -0.8007
  175DOPC  C21321385   2.435   0.783  13.656  1.1166  0.5996 -1.3071
  175DOPC  H13R21386   2.543   0.760  13.665  1.0572  1.0430  1.4728
  175DOPC  H13S21387   2.388   0.701  13.597  0.8280  0.6658 -1.1697
  175DOPC  C21421388   2.374   0.793  13.800 -0.5483  0.1782 -0.6767
  175DOPC  H14R21389   2.353   0.691  13.839 -0.4870 -0.0298 -1.1768
  175DOPC  H14S21390   2.282   0.856  13.794 -1.0827 -0.4127  0.9146
  175DOPC  C21521391   2.468   0.872  13.890 -0.2952  0.2093 -1.0093
  175DOPC  H15R21392   2.467   0.980  13.867  1.6579  0.7751  1.1898
  175DOPC  H15S21393   2.566   0.831  13.857 -1.0254 -0.9951 -1.7991
  175DOPC  C21621394   2.453   0.834  14.039  0.1465 -0.1528  0.3364
  175DOPC  H16R21395   2.551   0.825  14.089  0.8275  0.2919 -0.8904
  175DOPC  H16S21396   2.401   0.737  14.051 -0.8773  0.4942  1.3809
  175DOPC  C21721397   2.364   0.929  14.126 -0.8619  0.6819  0.0560
  175DOPC  H17R21398   2.256   0.921  14.100 -0.7798  0.2772 -0.1769
  175DOPC  H17S21399   2.384   1.030  14.085 -2.5226 -0.3881 -3.9224
  175DOPC  C21821400   2.369   0.915  14.279 -0.1602 -0.2375  0.4811
  175DOPC  H18R21401   2.349   1.011  14.331  0.4307  0.1653 -0.0305
  175DOPC  H18S21402   2.470   0.877  14.306 -0.1578  0.2578  1.2253
  175DOPC  H18T21403   2.293   0.843  14.316 -0.4848 -0.8050 -1.1966
  175DOPC   C3321404   2.802   1.060  12.836  0.5570 -0.4290 -0.6784
  175DOPC   H3X21405   2.800   0.972  12.903  1.5324  0.7604  0.9870
  175DOPC   H3Y21406   2.704   1.074  12.785 -0.1096 -1.0028  0.4128
  175DOPC   C3421407   2.833   1.196  12.904 -0.4833 -0.1996 -0.0075
  175DOPC   H4X21408   2.844   1.272  12.824 -2.0637 -0.5794 -0.6195
  175DOPC   H4Y21409   2.922   1.183  12.970 -0.7595  0.8273  0.5986
  175DOPC   C3521410   2.721   1.245  12.991 -0.0125  0.2444 -0.1301
  175DOPC   H5X21411   2.658   1.157  13.013  1.2171 -0.6355  0.0165
  175DOPC   H5Y21412   2.651   1.317  12.943 -0.9336  0.7641  1.9129
  175DOPC   C3621413   2.758   1.310  13.124 -0.6300  0.2262  0.5127
  175DOPC   H6X21414   2.854   1.261  13.154 -0.0429 -0.0376 -1.6435
  175DOPC   H6Y21415   2.792   1.411  13.093  2.1105 -0.5297  0.7137
  175DOPC   C3721416   2.661   1.289  13.240 -0.1347 -0.1796  0.9272
  175DOPC   H7X21417   2.564   1.323  13.199  2.0511  1.2494 -3.7045
  175DOPC   H7Y21418   2.663   1.182  13.269  0.6876 -0.7105 -0.9453
  175DOPC   C3821419   2.682   1.384  13.357  0.0679  0.5073  0.0566
  175DOPC   H8X21420   2.593   1.360  13.420 -1.6161  0.5154 -2.2043
  175DOPC   H8Y21421   2.683   1.494  13.343 -0.6825  0.4250 -0.7152
  175DOPC   C3921422   2.817   1.344  13.428  0.0648  0.1185 -0.1379
  175DOPC   H9X21423   2.906   1.401  13.399  0.4587 -1.5759 -2.4818
  175DOPC  C31021424   2.831   1.253  13.528 -0.1822  0.2596 -0.2521
  175DOPC  H10X21425   2.932   1.245  13.570  0.2332  1.5224 -0.9444
  175DOPC  C31121426   2.719   1.171  13.590  0.4615 -0.5124  0.0645
  175DOPC  H11X21427   2.750   1.065  13.600 -1.3956 -1.1181 -0.2528
  175DOPC  H11Y21428   2.628   1.172  13.526 -0.1690  1.8924  0.8759
  175DOPC  C31221429   2.658   1.226  13.722  0.8460 -0.6887  0.5149
  175DOPC  H12X21430   2.576   1.156  13.748 -1.2625  1.0620 -1.0760
  175DOPC  H12Y21431   2.608   1.323  13.704  1.0242 -0.4302  1.4020
  175DOPC  C31321432   2.753   1.229  13.836  0.1510  0.2006 -0.0004
  175DOPC  H13X21433   2.799   1.130  13.856 -1.2680 -0.9699 -2.1541
  175DOPC  H13Y21434   2.836   1.298  13.809 -0.8303  1.5013  0.2059
  175DOPC  C31421435   2.690   1.280  13.969 -0.1924 -0.0707 -0.1719
  175DOPC  H14X21436   2.651   1.380  13.942 -0.6984 -0.6044 -1.4704
  175DOPC  H14Y21437   2.598   1.226  14.000 -0.1082  0.0293  0.2599
  175DOPC  C31521438   2.791   1.305  14.088  0.3421  0.7894  0.1318
  175DOPC  H15X21439   2.854   1.393  14.062  2.0199 -0.4829 -0.2806
  175DOPC  H15Y21440   2.861   1.221  14.106 -1.1176 -0.5666 -0.3871
  175DOPC  C31621441   2.725   1.327  14.229  0.3127  0.0477  0.1152
  175DOPC  H16X21442   2.644   1.401  14.212  0.1526  0.5660  2.7217
  175DOPC  H16Y21443   2.672   1.232  14.255  0.7159 -0.7915 -1.9374
  175DOPC  C31721444   2.819   1.369  14.345  0.2400 -0.3919 -0.5699
  175DOPC  H17X21445   2.897   1.291  14.356 -0.2300 -0.6473  1.2701
  175DOPC  H17Y21446   2.871   1.463  14.317 -1.0573  0.4694 -0.1619
  175DOPC  C31821447   2.739   1.388  14.469 -0.3344  0.6487 -0.0712
  175DOPC  H18X21448   2.659   1.463  14.453 -0.4408 -0.0546 -3.8800
  175DOPC  H18Y21449   2.685   1.298  14.505  0.0851  0.1426 -0.6831
  175DOPC  H18Z21450   2.809   1.413  14.551 -0.9552  1.8494  0.1189
  176DOPC     N21451   4.198   2.300  12.060 -0.1405  0.6261  0.2837
  176DOPC   C1221452   4.116   2.331  12.185  0.1496 -0.7411 -0.6291
  176DOPC  H12A21453   4.013   2.332  12.152  0.2767 -1.5289 -1.0722
  176DOPC  H12B21454   4.146   2.429  12.220 -0.0214 -0.9307  0.0647
  176DOPC   C1321455   4.161   2.167  12.002 -0.0562  0.1005  0.0399
  176DOPC  H13A21456   4.175   2.093  12.079 -2.8613 -2.0023 -1.3197
  176DOPC  H13B21457   4.054   2.168  11.991  0.0371  1.3081 -0.9436
  176DOPC  H13C21458   4.208   2.139  11.910  0.2938  1.2202 -0.1462
  176DOPC   C1421459   4.344   2.296  12.086  0.2604  0.7327  0.0041
  176DOPC  H14A21460   4.405   2.282  11.998  2.7570  0.4374  1.6593
  176DOPC  H14B21461   4.376   2.393  12.123  0.5460 -0.1386  2.2273
  176DOPC  H14C21462   4.374   2.218  12.155  0.1926 -1.6964 -2.5549
  176DOPC   C1521463   4.173   2.408  11.959 -0.2082  0.7626  0.1602
  176DOPC  H15A21464   4.188   2.495  12.020 -1.3777 -1.1767  3.4568
  176DOPC  H15B21465   4.071   2.400  11.925  0.0349  1.0485 -0.6617
  176DOPC  H15C21466   4.239   2.416  11.873  0.8056 -0.5417  0.7816
  176DOPC   C1121467   4.140   2.236  12.300 -0.6576 -0.0733 -0.7793
  176DOPC  H11A21468   4.246   2.239  12.332 -0.6470  0.3708 -0.8413
  176DOPC  H11B21469   4.085   2.279  12.386  1.0147  1.5041 -0.4256
  176DOPC     P21470   3.939   2.077  12.268  0.6374 -0.2437  0.0293
  176DOPC   O1321471   3.922   1.969  12.176 -0.1036  0.0464  0.1928
  176DOPC   O1421472   3.859   2.203  12.250  0.2337 -0.1743  0.1931
  176DOPC   O1221473   4.092   2.111  12.275  0.0439 -0.0678 -0.0983
  176DOPC   O1121474   3.901   2.027  12.410  0.9198 -0.3603 -0.3739
  176DOPC    C121475   3.970   1.922  12.484 -0.3007  0.6648  0.6387
  176DOPC    HA21476   4.071   1.902  12.443 -1.2705  0.7649 -1.9875
  176DOPC    HB21477   3.909   1.830  12.470  0.0011  0.6317 -0.5471
  176DOPC    C221478   3.984   1.954  12.634  0.1738  0.4236  0.4991
  176DOPC    HS21479   3.880   1.972  12.671 -0.7331 -0.3377 -1.4960
  176DOPC   O2121480   4.076   2.060  12.652 -0.0756 -0.4584  0.4536
  176DOPC   C2121481   4.022   2.180  12.647 -0.3983 -0.4343 -0.0716
  176DOPC   O2221482   3.908   2.202  12.615  0.3712 -0.3322 -0.5485
  176DOPC   C2221483   4.125   2.277  12.707 -0.3261  0.1847  0.4751
  176DOPC   H2R21484   4.089   2.380  12.686 -2.7642 -0.9145 -1.1858
  176DOPC   H2S21485   4.220   2.279  12.649 -0.3263  2.6714  0.4567
  176DOPC    C321486   4.032   1.835  12.719  0.3489 -0.0884  0.4021
  176DOPC    HX21487   4.113   1.792  12.656  1.0779  0.4173  0.9897
  176DOPC    HY21488   3.945   1.766  12.722 -2.9405  3.7311  1.3376
  176DOPC   O3121489   4.076   1.868  12.849  0.1260  0.3397 -0.2046
  176DOPC   C3121490   3.978   1.879  12.941 -0.0937  0.0756  1.0619
  176DOPC   O3221491   3.858   1.869  12.922  1.1838 -0.6806 -0.3821
  176DOPC   C3221492   4.046   1.899  13.072 -0.7900  0.0835 -0.0594
  176DOPC   H2X21493   4.124   1.824  13.095  0.4018  0.5606 -2.2308
  176DOPC   H2Y21494   4.095   1.999  13.063  3.3343 -1.7353  0.2430
  176DOPC   C2321495   4.176   2.255  12.855  0.2875  0.4446 -0.6026
  176DOPC   H3R21496   4.280   2.294  12.860  0.9878 -1.4877  1.5001
  176DOPC   H3S21497   4.179   2.146  12.880 -1.9271  0.2691 -0.8712
  176DOPC   C2421498   4.087   2.313  12.960  0.4712  0.1049  0.3000
  176DOPC   H4R21499   3.991   2.257  12.965  0.8041 -0.6003 -0.7251
  176DOPC   H4S21500   4.074   2.416  12.922  1.0849 -0.0147 -0.2485
  176DOPC   C2521501   4.162   2.314  13.090  0.0579  0.1922 -0.1686
  176DOPC   H5R21502   4.258   2.367  13.073 -1.8289  3.8859 -0.2485
  176DOPC   H5S21503   4.176   2.208  13.119  2.4806  1.0682  2.2612
  176DOPC   C2621504   4.075   2.387  13.192  0.9230  0.6455 -0.1840
  176DOPC   H6R21505   3.977   2.336  13.204  1.2997 -0.2671 -0.8732
  176DOPC   H6S21506   4.045   2.486  13.150 -3.4152 -0.8787 -1.2612
  176DOPC   C2721507   4.157   2.413  13.326  0.4105 -0.2857 -0.0483
  176DOPC   H7R21508   4.109   2.482  13.399 -1.1989 -0.0546 -1.2596
  176DOPC   H7S21509   4.249   2.467  13.294  0.8611  0.0029  1.6483
  176DOPC   C2821510   4.183   2.289  13.413  0.8763  0.3362  0.3553
  176DOPC   H8R21511   4.239   2.213  13.354 -1.3097 -1.8610  0.9066
  176DOPC   H8S21512   4.086   2.240  13.436  0.8693 -0.5296 -1.3573
  176DOPC   C2921513   4.277   2.312  13.531 -0.5622 -0.0315  1.3360
  176DOPC   H9R21514   4.377   2.340  13.494 -1.0066  1.8499  1.4706
  176DOPC  C21021515   4.252   2.295  13.658 -0.2053 -0.0050  0.2775
  176DOPC  H10R21516   4.317   2.331  13.739  0.5700  0.1418 -0.3942
  176DOPC  C21121517   4.112   2.261  13.711  0.1081 -0.3079  0.4055
  176DOPC  H11R21518   4.106   2.150  13.715 -4.0572 -0.3512 -1.6562
  176DOPC  H11S21519   4.033   2.298  13.644  0.6261 -1.6877 -1.0288
  176DOPC  C21221520   4.097   2.327  13.848  0.0283  0.5968  0.0631
  176DOPC  H12R21521   4.108   2.435  13.827 -1.1024  0.8479  0.6833
  176DOPC  H12S21522   4.167   2.297  13.929 -1.3821  2.1223  1.9388
  176DOPC  C21321523   3.962   2.311  13.906 -0.3560  0.2251 -0.2998
  176DOPC  H13R21524   3.880   2.360  13.848 -0.8403  0.0175  0.1938
  176DOPC  H13S21525   3.965   2.365  14.002 -0.5119 -0.9164  0.3651
  176DOPC  C21421526   3.928   2.160  13.939 -0.1999  0.1186  0.1946
  176DOPC  H14R21527   3.954   2.106  13.846 -3.0070  3.7437 -3.0592
  176DOPC  H14S21528   3.817   2.156  13.949 -0.3568  0.4849 -1.1815
  176DOPC  C21521529   3.996   2.122  14.066  0.3044  0.2971  0.5386
  176DOPC  H15R21530   4.104   2.147  14.057  0.1934  0.1913 -1.5477
  176DOPC  H15S21531   3.994   2.012  14.077  0.4516  0.5168  3.7093
  176DOPC  C21621532   3.933   2.181  14.194 -0.1455  0.2320 -0.1770
  176DOPC  H16R21533   3.924   2.291  14.179 -0.3958  0.1615 -0.5856
  176DOPC  H16S21534   4.003   2.152  14.275 -0.6447  0.0301  0.1877
  176DOPC  C21721535   3.788   2.127  14.216  0.0124  0.0336  0.1375
  176DOPC  H17R21536   3.780   2.021  14.183 -1.6852 -0.0792  0.8329
  176DOPC  H17S21537   3.716   2.180  14.150  1.0128 -0.0861 -1.1040
  176DOPC  C21821538   3.758   2.142  14.358 -0.4358  0.3427 -0.1823
  176DOPC  H18R21539   3.652   2.122  14.388 -0.6085  1.9969  0.4256
  176DOPC  H18S21540   3.795   2.242  14.388  3.8354 -1.3524  0.9499
  176DOPC  H18T21541   3.811   2.065  14.418  1.1969  0.6082 -1.2246
  176DOPC   C3321542   3.946   1.907  13.188 -0.6135  0.1480 -0.4020
  176DOPC   H3X21543   3.907   1.808  13.218  0.2917 -0.0535  0.1585
  176DOPC   H3Y21544   3.860   1.972  13.163  0.8095  1.7324 -1.4636
  176DOPC   C3421545   4.000   1.972  13.311 -0.1317  0.1777  0.2262
  176DOPC   H4X21546   3.921   1.990  13.388  1.4618 -0.5996  2.1283
  176DOPC   H4Y21547   4.042   2.074  13.296 -1.6231  0.8014  0.0908
  176DOPC   C3521548   4.110   1.883  13.375 -0.5412 -0.4234  0.2737
  176DOPC   H5X21549   4.206   1.899  13.321 -0.1751 -1.2365  0.6735
  176DOPC   H5Y21550   4.089   1.774  13.366 -2.0057 -0.2059  0.8705
  176DOPC   C3621551   4.135   1.924  13.525 -0.3745  0.0397 -0.7647
  176DOPC   H6X21552   4.160   2.032  13.536  0.5160 -0.1986 -0.3732
  176DOPC   H6Y21553   4.038   1.909  13.576 -0.0784  1.3830  0.2360
  176DOPC   C3721554   4.250   1.841  13.585  0.0831 -0.0193 -0.8260
  176DOPC   H7X21555   4.236   1.740  13.542 -2.0634  0.6265 -1.7802
  176DOPC   H7Y21556   4.339   1.881  13.533  0.9184 -1.6912 -0.7423
  176DOPC   C3821557   4.257   1.851  13.735  0.1869  0.2522  0.1647
  176DOPC   H8X21558   4.321   1.766  13.770  1.3574  0.9980 -0.1120
  176DOPC   H8Y21559   4.158   1.843  13.784  0.0982  0.6158  0.0501
  176DOPC   C3921560   4.312   1.978  13.795 -0.3204 -0.3715 -0.1018
  176DOPC   H9X21561   4.346   2.052  13.721  1.3397 -2.3696 -1.4667
  176DOPC  C31021562   4.340   2.005  13.924  0.1526  0.1394  0.5336
  176DOPC  H10X21563   4.381   2.105  13.943 -0.6071  0.6890 -0.6382
  176DOPC  C31121564   4.320   1.905  14.033 -0.3658  0.0782 -0.5829
  176DOPC  H11X21565   4.272   1.814  13.991  0.9812 -0.9560  0.0218
  176DOPC  H11Y21566   4.269   1.942  14.125  1.9969 -1.0775  1.2845
  176DOPC  C31221567   4.457   1.878  14.089 -0.3234  0.4667  0.3094
  176DOPC  H12X21568   4.530   1.961  14.087 -1.5941  1.6402  0.9597
  176DOPC  H12Y21569   4.506   1.797  14.031 -0.2268  1.1131 -0.5257
  176DOPC  C31321570   4.447   1.813  14.231  0.2112 -0.3006 -0.7459
  176DOPC  H13X21571   4.447   1.901  14.300  1.4824 -0.7999 -0.0785
  176DOPC  H13Y21572   4.352   1.761  14.254 -0.0998  0.6366  0.1742
  176DOPC  C31421573   4.560   1.719  14.267 -0.1314 -0.6645 -0.1204
  176DOPC  H14X21574   4.538   1.691  14.372  0.3235  1.8469  0.7207
  176DOPC  H14Y21575   4.556   1.630  14.200 -2.9077 -0.2034 -0.6819
  176DOPC  C31521576   4.695   1.784  14.288  0.4924  0.4699 -0.2553
  176DOPC  H15X21577   4.676   1.877  14.345 -1.9297  0.2498 -0.5719
  176DOPC  H15Y21578   4.728   1.813  14.186 -1.4433  3.4296 -0.1765
  176DOPC  C31621579   4.802   1.695  14.359 -0.0416 -0.2362 -0.3099
  176DOPC  H16X21580   4.750   1.632  14.433  0.0173  0.1160  0.0328
  176DOPC  H16Y21581   4.854   1.627  14.288  0.4454  1.3530 -1.5645
  176DOPC  C31721582   4.904   1.790  14.427  0.6163  0.7412  0.0901
  176DOPC  H17X21583   4.950   1.856  14.350  0.5369  1.4442  0.6379
  176DOPC  H17Y21584   4.858   1.864  14.496 -3.0781  0.3499 -1.6582
  176DOPC  C31821585   5.018   1.711  14.496  0.1131  0.9013  0.2746
  176DOPC  H18X21586   5.102   1.782  14.503  0.0293  1.1700 -1.1411
  176DOPC  H18Y21587   4.988   1.687  14.601 -0.3848  0.7801  0.1110
  176DOPC  H18Z21588   5.052   1.624  14.437  1.4429  2.2847 -1.0854
  177DOPC     N21589   4.622   6.647  11.776 -0.2880  0.1485  0.7320
  177DOPC   C1221590   4.550   6.534  11.722  0.1626  0.6978  0.6914
  177DOPC  H12A21591   4.596   6.441  11.753 -0.0709  1.0018  2.0019
  177DOPC  H12B21592   4.559   6.535  11.615  0.6877 -0.8349  0.6882
  177DOPC   C1321593   4.623   6.648  11.920  0.0400  0.0447 -0.3682
  177DOPC  H13A21594   4.680   6.565  11.959  1.4276  1.8475  1.6934
  177DOPC  H13B21595   4.680   6.730  11.962 -0.1089 -0.5398  1.0469
  177DOPC  H13C21596   4.528   6.659  11.971  0.8352  2.6590  0.7329
  177DOPC   C1421597   4.561   6.776  11.741  0.0140 -0.0532  0.6521
  177DOPC  H14A21598   4.624   6.857  11.774  1.7448 -0.7918 -0.7143
  177DOPC  H14B21599   4.548   6.788  11.635  1.6320  0.7471  0.5190
  177DOPC  H14C21600   4.465   6.778  11.791 -0.0817  1.4467  0.4456
  177DOPC   C1521601   4.764   6.650  11.729 -0.1563  0.2309  0.4044
  177DOPC  H15A21602   4.818   6.565  11.768 -4.0075 -2.7643 -0.1746
  177DOPC  H15B21603   4.819   6.736  11.762  2.3035 -0.5877 -1.2156
  177DOPC  H15C21604   4.778   6.638  11.622  0.0577 -2.2253  0.6359
  177DOPC   C1121605   4.399   6.510  11.751 -0.5586 -1.0950 -0.0496
  177DOPC  H11A21606   4.353   6.605  11.716  1.5991 -0.0570 -0.2626
  177DOPC  H11B21607   4.358   6.431  11.684 -0.0835  0.1502 -1.9004
  177DOPC     P21608   4.383   6.364  11.966  0.0483 -0.0959  0.1622
  177DOPC   O1321609   4.363   6.267  11.859 -0.3885 -0.0620 -0.6763
  177DOPC   O1421610   4.295   6.352  12.086  0.1909  0.8847  0.0868
  177DOPC   O1221611   4.362   6.502  11.892 -0.1696 -0.0772  0.2426
  177DOPC   O1121612   4.535   6.367  12.006  0.5277  0.3445  0.6731
  177DOPC    C121613   4.569   6.403  12.142 -0.3078  0.1149  0.7866
  177DOPC    HA21614   4.491   6.470  12.185  0.3024  0.2137  1.7605
  177DOPC    HB21615   4.664   6.459  12.128 -0.1909 -0.4125 -0.6627
  177DOPC    C221616   4.584   6.281  12.236  0.3979  0.4389 -0.1190
  177DOPC    HS21617   4.491   6.224  12.259  0.5689  0.2648  0.1552
  177DOPC   O2121618   4.634   6.336  12.360  0.3528  0.5936 -0.0826
  177DOPC   C2121619   4.548   6.371  12.452 -0.2107  0.3194  0.4377
  177DOPC   O2221620   4.426   6.372  12.428  0.5303 -0.4334  0.6123
  177DOPC   C2221621   4.612   6.404  12.584 -0.3153  0.4181  0.6322
  177DOPC   H2R21622   4.657   6.504  12.567 -3.2813  2.5264  3.7924
  177DOPC   H2S21623   4.693   6.331  12.604 -0.6228 -1.2354 -3.2744
  177DOPC    C321624   4.693   6.180  12.190 -0.0219 -0.0244 -0.3746
  177DOPC    HX21625   4.776   6.243  12.154  0.4527 -2.0180 -3.0627
  177DOPC    HY21626   4.653   6.129  12.100  1.5564 -0.3526 -0.9135
  177DOPC   O3121627   4.720   6.091  12.301 -0.3161 -0.3043 -0.0147
  177DOPC   C3121628   4.722   5.966  12.283 -0.3616 -0.1158 -0.5736
  177DOPC   O3221629   4.720   5.905  12.176 -0.4606  0.3890  0.4728
  177DOPC   C3221630   4.749   5.901  12.424 -0.4642  1.1614  0.5513
  177DOPC   H2X21631   4.665   5.828  12.434 -0.5396  1.4273  2.1606
  177DOPC   H2Y21632   4.833   5.829  12.417 -0.7987  0.6978  1.1662
  177DOPC   C2321633   4.513   6.424  12.695 -0.4509  0.7420 -0.0813
  177DOPC   H3R21634   4.452   6.332  12.701 -0.4179  0.6934 -0.4516
  177DOPC   H3S21635   4.450   6.516  12.693 -2.3988 -0.5175  0.8455
  177DOPC   C2421636   4.578   6.443  12.839 -0.3336  0.0519  0.3037
  177DOPC   H4R21637   4.662   6.516  12.835 -1.2403  1.1610  0.8760
  177DOPC   H4S21638   4.620   6.348  12.878 -0.2957 -0.0116  0.1104
  177DOPC   C2521639   4.472   6.505  12.941  0.6352  0.5503  1.0690
  177DOPC   H5R21640   4.370   6.473  12.909  0.6008  2.1032 -0.5254
  177DOPC   H5S21641   4.460   6.613  12.922 -0.8439 -0.0020 -1.7875
  177DOPC   C2621642   4.501   6.489  13.089 -1.0178  0.5250 -0.3463
  177DOPC   H6R21643   4.609   6.501  13.112 -0.9767 -1.8409  0.9819
  177DOPC   H6S21644   4.481   6.383  13.117 -0.1236  0.5123  0.3025
  177DOPC   C2721645   4.421   6.585  13.180 -0.2351 -0.0702  0.8979
  177DOPC   H7R21646   4.311   6.574  13.167 -0.5300  1.6264  1.6251
  177DOPC   H7S21647   4.440   6.684  13.133 -1.5808 -0.9626 -1.7276
  177DOPC   C2821648   4.456   6.580  13.329 -0.6407 -0.0371  0.2453
  177DOPC   H8R21649   4.400   6.670  13.364 -2.4067 -1.2498  0.6728
  177DOPC   H8S21650   4.562   6.608  13.348 -0.9227  0.1584  1.6186
  177DOPC   C2921651   4.438   6.445  13.402 -0.5295 -0.1380  0.7215
  177DOPC   H9R21652   4.482   6.358  13.353 -1.2551  0.1824 -0.5561
  177DOPC  C21021653   4.391   6.433  13.526 -0.0007  0.5520 -0.5311
  177DOPC  H10R21654   4.383   6.331  13.567  0.7543  0.9356  0.6577
  177DOPC  C21121655   4.334   6.537  13.624  0.1646 -0.0011 -0.4070
  177DOPC  H11R21656   4.241   6.497  13.669 -0.8187  2.6935  0.1830
  177DOPC  H11S21657   4.305   6.633  13.578 -0.3382  0.0142 -0.0669
  177DOPC  C21221658   4.420   6.571  13.744 -0.0620  0.2497 -0.0789
  177DOPC  H12R21659   4.513   6.627  13.721  0.0166  0.3366  0.4344
  177DOPC  H12S21660   4.464   6.486  13.800 -2.5394  0.0138  1.7224
  177DOPC  C21321661   4.348   6.648  13.855 -0.2496 -0.0780 -0.1111
  177DOPC  H13R21662   4.281   6.587  13.919 -0.3329 -0.5964 -0.6740
  177DOPC  H13S21663   4.272   6.716  13.809  0.8138  0.7441 -0.6995
  177DOPC  C21421664   4.432   6.742  13.940  0.3944 -0.5319  0.4443
  177DOPC  H14R21665   4.380   6.839  13.955 -0.3325 -0.8127 -0.1945
  177DOPC  H14S21666   4.527   6.773  13.892  0.0819  1.3280  0.9503
  177DOPC  C21521667   4.443   6.680  14.081 -0.6445  0.1805 -0.1721
  177DOPC  H15R21668   4.340   6.664  14.119 -1.1998  0.8942 -1.3166
  177DOPC  H15S21669   4.479   6.764  14.144  0.6207 -0.5735  0.1464
  177DOPC  C21621670   4.553   6.575  14.082  0.3296 -0.6805  0.2696
  177DOPC  H16R21671   4.541   6.494  14.008 -0.6015 -0.4377  0.1500
  177DOPC  H16S21672   4.555   6.539  14.187  0.1257  1.9098  1.2399
  177DOPC  C21721673   4.689   6.639  14.057  0.3800 -0.5934 -0.2916
  177DOPC  H17R21674   4.695   6.729  14.122 -1.2833 -1.3598  0.9718
  177DOPC  H17S21675   4.688   6.670  13.950 -1.4436 -1.6008 -0.6099
  177DOPC  C21821676   4.799   6.541  14.094 -0.6313 -0.8798 -0.4192
  177DOPC  H18R21677   4.800   6.513  14.201 -1.1557 -1.5500 -0.5870
  177DOPC  H18S21678   4.895   6.586  14.059  0.7178 -0.2184  3.6367
  177DOPC  H18T21679   4.791   6.447  14.036 -0.7664  0.6830 -3.1002
  177DOPC   C3321680   4.771   5.996  12.539  0.0098 -1.0600 -0.0053
  177DOPC   H3X21681   4.679   6.057  12.556 -0.3194 -1.5256 -0.0984
  177DOPC   H3Y21682   4.850   6.072  12.521  0.0519 -1.8511 -3.9482
  177DOPC   C3421683   4.781   5.922  12.676 -0.1789 -0.8953  0.3340
  177DOPC   H4X21684   4.863   5.846  12.673  1.2640  0.5319  1.7341
  177DOPC   H4Y21685   4.685   5.867  12.686 -0.5791 -0.6025 -1.4429
  177DOPC   C3521686   4.800   6.021  12.785 -0.3895  0.4658  0.3703
  177DOPC   H5X21687   4.742   6.114  12.769 -0.8298 -0.1880 -2.4408
  177DOPC   H5Y21688   4.906   6.049  12.799 -1.4845  3.6478  3.7595
  177DOPC   C3621689   4.733   5.969  12.909 -0.4424  0.7006 -0.1174
  177DOPC   H6X21690   4.623   5.963  12.893 -0.7966 -0.3160  2.2299
  177DOPC   H6Y21691   4.772   5.866  12.925 -3.6900 -0.6425  0.0480
  177DOPC   C3721692   4.757   6.050  13.044  0.7205  0.4374  0.1009
  177DOPC   H7X21693   4.863   6.037  13.075  0.4365 -5.0111 -0.2402
  177DOPC   H7Y21694   4.732   6.156  13.024 -1.7283 -0.1611 -0.3581
  177DOPC   C3821695   4.667   5.998  13.156 -0.2120  0.1850  0.2288
  177DOPC   H8X21696   4.718   5.900  13.174  0.0251  0.2875  0.1181
  177DOPC   H8Y21697   4.571   5.975  13.106  1.2143  0.0505 -2.6215
  177DOPC   C3921698   4.656   6.096  13.270  0.2229 -0.1204 -0.8229
  177DOPC   H9X21699   4.617   6.195  13.245 -0.1435 -0.5266 -1.9451
  177DOPC  C31021700   4.673   6.067  13.405  0.2291  0.0952 -0.3112
  177DOPC  H10X21701   4.668   6.151  13.476  0.9421 -0.5090  0.4838
  177DOPC  C31121702   4.720   5.939  13.460 -0.2482  0.4244 -0.2022
  177DOPC  H11X21703   4.756   5.867  13.383  2.5305  1.4687 -0.0099
  177DOPC  H11Y21704   4.625   5.897  13.501  0.2243 -1.0798 -0.5980
  177DOPC  C31221705   4.820   5.939  13.584  0.6081 -0.2085  0.2854
  177DOPC  H12X21706   4.767   5.995  13.665 -0.0668 -0.4398  0.0076
  177DOPC  H12Y21707   4.910   5.992  13.548  1.0346 -0.7433  0.5621
  177DOPC  C31321708   4.868   5.804  13.637  0.2359  0.1839  0.2503
  177DOPC  H13X21709   4.781   5.739  13.658  2.1136 -2.1612  1.1669
  177DOPC  H13Y21710   4.926   5.761  13.552 -1.3997  0.3112 -0.9695
  177DOPC  C31421711   4.951   5.816  13.766  0.3125  1.3959  0.2976
  177DOPC  H14X21712   4.897   5.874  13.844  1.5893  2.7404  0.2256
  177DOPC  H14Y21713   4.966   5.714  13.807 -0.1792  0.3878 -1.8597
  177DOPC  C31521714   5.087   5.882  13.748  0.5158  0.0368  0.1895
  177DOPC  H15X21715   5.066   5.978  13.695 -1.0529 -1.3094 -1.7759
  177DOPC  H15Y21716   5.151   5.830  13.674 -0.6324 -0.9105 -0.1704
  177DOPC  C31621717   5.158   5.927  13.883  0.9460  0.7602  0.5123
  177DOPC  H16X21718   5.131   5.853  13.962 -0.6433  1.3648  0.5739
  177DOPC  H16Y21719   5.268   5.910  13.878  0.8459 -0.9516  2.5843
  177DOPC  C31721720   5.133   6.065  13.942 -0.1313 -0.0311  0.8059
  177DOPC  H17X21721   5.210   6.085  14.019  1.9411  1.0930 -1.4318
  177DOPC  H17Y21722   5.147   6.132  13.854 -0.5495 -2.5593 -1.2930
  177DOPC  C31821723   4.989   6.086  13.992  0.5602  0.1739  0.0670
  177DOPC  H18X21724   4.977   6.191  14.027 -1.8372 -0.9664  3.0693
  177DOPC  H18Y21725   4.904   6.061  13.925  0.0088  0.3862  0.6723
  177DOPC  H18Z21726   4.955   6.018  14.073 -0.3791  0.7992  0.2197
  178DOPC     N21727   2.511   0.600  12.004  0.0054  0.5603  0.2975
  178DOPC   C1221728   2.550   0.472  12.070 -0.5196  0.1288 -0.0923
  178DOPC  H12A21729   2.653   0.483  12.103  0.4726 -0.1276 -2.8101
  178DOPC  H12B21730   2.544   0.392  11.998 -0.2561 -1.0930  1.1983
  178DOPC   C1321731   2.379   0.584  11.928 -0.1637 -0.9201 -0.1578
  178DOPC  H13A21732   2.294   0.569  11.994 -2.2050  0.4098 -2.3000
  178DOPC  H13B21733   2.365   0.672  11.866  1.5729 -0.3251  0.2346
  178DOPC  H13C21734   2.377   0.492  11.871 -0.7792 -0.3033 -1.1750
  178DOPC   C1421735   2.619   0.652  11.916  0.2554  0.4713 -0.2018
  178DOPC  H14A21736   2.600   0.750  11.873 -0.6437 -0.1225 -1.1904
  178DOPC  H14B21737   2.713   0.664  11.969  2.1816 -1.4078 -2.9226
  178DOPC  H14C21738   2.634   0.576  11.841  2.1034 -2.9142  3.2426
  178DOPC   C1521739   2.488   0.700  12.110 -0.4907  0.0720  0.8222
  178DOPC  H15A21740   2.417   0.666  12.184 -0.5868  0.6508  1.0041
  178DOPC  H15B21741   2.455   0.797  12.077 -0.1468 -0.3436 -0.8290
  178DOPC  H15C21742   2.577   0.710  12.169  0.5436 -0.3907 -0.6061
  178DOPC   C1121743   2.457   0.416  12.179 -0.7386  0.5423  0.1152
  178DOPC  H11A21744   2.517   0.330  12.217 -1.5368  0.8927  2.2507
  178DOPC  H11B21745   2.451   0.490  12.261 -0.4390  0.9795 -0.2522
  178DOPC     P21746   2.290   0.258  12.060 -0.0303  0.1320 -0.1006
  178DOPC   O1321747   2.395   0.228  11.952  0.1328 -0.1657  0.1617
  178DOPC   O1421748   2.151   0.267  12.015  0.6615 -0.0579 -0.5989
  178DOPC   O1221749   2.323   0.390  12.138 -0.3636 -0.0054  0.3418
  178DOPC   O1121750   2.302   0.151  12.168 -0.3501  0.0528  0.1264
  178DOPC    C121751   2.228   0.147  12.290 -0.3745 -0.6807 -0.1659
  178DOPC    HA21752   2.170   0.053  12.300 -1.2323 -0.0800  0.7151
  178DOPC    HB21753   2.149   0.226  12.296 -1.3915 -1.7827  2.6846
  178DOPC    C221754   2.332   0.161  12.412 -0.2577  0.1677  0.1686
  178DOPC    HS21755   2.384   0.256  12.388  1.8568 -1.1524 -0.7550
  178DOPC   O2121756   2.421   0.043  12.399 -0.3102 -0.2412  0.4596
  178DOPC   C2121757   2.540   0.064  12.455 -0.2042  0.6654 -0.5551
  178DOPC   O2221758   2.587   0.167  12.501 -0.4484  0.4157  0.0918
  178DOPC   C2221759   2.626  -0.065  12.455  0.0720 -0.0235  0.0925
  178DOPC   H2R21760   2.731  -0.035  12.474  0.2730 -1.1284  0.7667
  178DOPC   H2S21761   2.632  -0.113  12.355  2.3423  0.6226 -0.1344
  178DOPC    C321762   2.261   0.159  12.547 -0.4642  0.6808  0.5365
  178DOPC    HX21763   2.220   0.056  12.542 -0.1541  0.5797 -3.7633
  178DOPC    HY21764   2.176   0.230  12.541 -1.4061 -0.4325  0.3436
  178DOPC   O3121765   2.342   0.178  12.665  0.2065 -0.5658 -0.2024
  178DOPC   C3121766   2.357   0.303  12.698 -0.2796  0.4061  0.1519
  178DOPC   O3221767   2.303   0.395  12.643  0.2034  0.5351 -0.0217
  178DOPC   C3221768   2.480   0.300  12.791  0.0873 -0.0682  0.1428
  178DOPC   H2X21769   2.462   0.217  12.863  1.3603 -0.3615  0.1395
  178DOPC   H2Y21770   2.566   0.270  12.728 -0.0698  0.2275 -0.2209
  178DOPC   C2321771   2.564  -0.173  12.548  0.4833 -0.3728  0.8038
  178DOPC   H3R21772   2.621  -0.267  12.533 -0.7507 -0.9608 -0.3459
  178DOPC   H3S21773   2.458  -0.188  12.519  0.2829  5.0185 -2.5578
  178DOPC   C2421774   2.570  -0.143  12.700 -0.8174 -0.1745 -0.0765
  178DOPC   H4R21775   2.554  -0.237  12.757  0.0855 -0.4169 -0.2136
  178DOPC   H4S21776   2.492  -0.070  12.732 -0.4440 -0.5070  1.7083
  178DOPC   C2521777   2.701  -0.078  12.742 -0.3428 -0.4690  0.2206
  178DOPC   H5R21778   2.698   0.032  12.729 -0.2108 -0.3879  0.8235
  178DOPC   H5S21779   2.785  -0.113  12.679  0.9398  0.7627  1.1839
  178DOPC   C2621780   2.720  -0.100  12.897 -0.0900  0.1188  0.2666
  178DOPC   H6R21781   2.831  -0.095  12.909 -0.4097  1.3529  3.8733
  178DOPC   H6S21782   2.694  -0.201  12.935 -4.6354  0.9785 -0.0045
  178DOPC   C2721783   2.658   0.009  12.989  0.1762  0.2033 -0.0418
  178DOPC   H7R21784   2.554  -0.027  13.001  0.2191 -0.9654 -2.5204
  178DOPC   H7S21785   2.666   0.108  12.940  0.6424  0.3627  0.3465
  178DOPC   C2821786   2.741   0.020  13.122 -0.4367  0.1645 -0.4083
  178DOPC   H8R21787   2.726   0.117  13.173  0.6698 -0.9645  2.2316
  178DOPC   H8S21788   2.847   0.013  13.090 -0.7340  2.8987 -2.3456
  178DOPC   C2921789   2.719  -0.097  13.216  0.3724  0.3690  0.1849
  178DOPC   H9R21790   2.699  -0.185  13.154  2.4009  0.7667 -1.1329
  178DOPC  C21021791   2.740  -0.106  13.353  0.1142 -0.3854  0.3170
  178DOPC  H10R21792   2.728  -0.208  13.392 -1.1783 -0.4569 -0.2227
  178DOPC  C21121793   2.771   0.000  13.454  0.6231 -0.1196 -0.0266
  178DOPC  H11R21794   2.683   0.056  13.494  0.9079  1.0393 -0.9458
  178DOPC  H11S21795   2.833   0.073  13.397  0.6225 -0.6971 -0.7813
  178DOPC  C21221796   2.838  -0.077  13.567 -0.4901 -0.2768  0.3546
  178DOPC  H12R21797   2.906  -0.001  13.612 -1.1424  0.8696 -0.5454
  178DOPC  H12S21798   2.907  -0.160  13.543 -1.1761 -1.3305  1.8750
  178DOPC  C21321799   2.741  -0.133  13.675 -0.0316  0.6295  0.2767
  178DOPC  H13R21800   2.681  -0.210  13.622 -0.2419  1.7608 -1.2247
  178DOPC  H13S21801   2.672  -0.051  13.706 -0.2576  0.0691  1.2765
  178DOPC  C21421802   2.823  -0.197  13.790  0.9738  0.7904  0.7818
  178DOPC  H14R21803   2.876  -0.124  13.856  2.3959  0.0155  0.5501
  178DOPC  H14S21804   2.912  -0.253  13.753  0.6603  0.7170  0.1386
  178DOPC  C21521805   2.740  -0.298  13.869  0.7336  0.5866 -0.4970
  178DOPC  H15R21806   2.794  -0.362  13.941  0.7512 -1.2843 -2.0766
  178DOPC  H15S21807   2.693  -0.380  13.810 -1.4006  0.1866  1.6024
  178DOPC  C21621808   2.623  -0.240  13.954 -0.6060 -0.2519  0.2548
  178DOPC  H16R21809   2.554  -0.321  13.987  1.5816 -2.6777 -0.7670
  178DOPC  H16S21810   2.571  -0.167  13.889  2.2315  0.7941 -1.0130
  178DOPC  C21721811   2.655  -0.178  14.091  0.1594 -0.7120 -0.1405
  178DOPC  H17R21812   2.709  -0.086  14.061 -3.5291  1.1408 -1.8082
  178DOPC  H17S21813   2.720  -0.244  14.152 -1.0868 -0.7485  1.1971
  178DOPC  C21821814   2.530  -0.129  14.165  0.0591 -0.1069  0.4971
  178DOPC  H18R21815   2.454  -0.204  14.197 -0.5892 -0.2981 -1.4095
  178DOPC  H18S21816   2.483  -0.051  14.101  0.9243 -0.2288 -0.2889
  178DOPC  H18T21817   2.568  -0.073  14.254  2.1021  2.3481 -1.7686
  178DOPC   C3321818   2.504   0.439  12.856  0.0746 -0.1513  0.2536
  178DOPC   H3X21819   2.423   0.514  12.850  1.9951  2.0945  0.9970
  178DOPC   H3Y21820   2.585   0.493  12.803  0.3924  1.9039  2.6437
  178DOPC   C3421821   2.549   0.439  13.001  0.6854  0.2519 -0.3333
  178DOPC   H4X21822   2.585   0.543  13.017  1.3815  0.0004 -0.2257
  178DOPC   H4Y21823   2.638   0.372  13.003 -1.2479 -2.5143 -0.7354
  178DOPC   C3521824   2.450   0.394  13.110 -0.7990 -0.2143  0.4681
  178DOPC   H5X21825   2.402   0.303  13.068  2.1848 -0.6943 -2.2546
  178DOPC   H5Y21826   2.373   0.474  13.106 -2.8636 -2.0487  1.6502
  178DOPC   C3621827   2.505   0.362  13.248  0.6594 -0.0034 -0.4321
  178DOPC   H6X21828   2.450   0.278  13.296 -0.1941  0.3891 -0.7039
  178DOPC   H6Y21829   2.608   0.320  13.240  0.4200 -1.3884  2.4757
  178DOPC   C3721830   2.517   0.490  13.331  0.3278 -0.2668 -0.0860
  178DOPC   H7X21831   2.579   0.562  13.273 -1.3710 -0.0915 -1.7502
  178DOPC   H7Y21832   2.419   0.539  13.350 -1.0377 -3.0632  0.4660
  178DOPC   C3821833   2.571   0.460  13.471  0.6004  0.5513 -1.2351
  178DOPC   H8X21834   2.621   0.553  13.504  0.0651  0.8360 -1.2231
  178DOPC   H8Y21835   2.649   0.380  13.464 -0.7774 -0.9468 -0.1977
  178DOPC   C3921836   2.465   0.411  13.564 -0.4247 -0.5441  0.2134
  178DOPC   H9X21837   2.367   0.378  13.527  0.2754 -0.9518 -1.3342
  178DOPC  C31021838   2.469   0.416  13.697 -0.2645  0.5026 -0.0880
  178DOPC  H10X21839   2.373   0.379  13.737  0.8101 -0.3528  1.8457
  178DOPC  C31121840   2.577   0.458  13.791 -0.0953 -0.2131 -0.3298
  178DOPC  H11X21841   2.525   0.501  13.879 -1.5402  0.5479 -1.5024
  178DOPC  H11Y21842   2.644   0.534  13.746 -0.6485 -0.1327 -1.0444
  178DOPC  C31221843   2.656   0.330  13.834 -1.2584  0.6041  0.2693
  178DOPC  H12X21844   2.743   0.321  13.765  0.0853 -0.1360  1.9776
  178DOPC  H12Y21845   2.610   0.230  13.821  1.8032 -0.7773 -1.0106
  178DOPC  C31321846   2.718   0.339  13.981 -0.1081  0.0364  0.3952
  178DOPC  H13X21847   2.768   0.438  13.990  2.9898 -1.5162  1.9465
  178DOPC  H13Y21848   2.628   0.329  14.045  0.8197 -1.7432  1.5019
  178DOPC  C31421849   2.830   0.228  13.995 -0.5260 -0.0446  0.1478
  178DOPC  H14X21850   2.858   0.224  14.102 -0.8315 -0.2113  0.2237
  178DOPC  H14Y21851   2.783   0.132  13.962  0.5627 -0.1058 -1.3189
  178DOPC  C31521852   2.958   0.240  13.916  1.1237 -0.3470 -0.0408
  178DOPC  H15X21853   2.921   0.282  13.820 -2.5987 -0.8218  1.0360
  178DOPC  H15Y21854   2.998   0.137  13.900 -0.1048 -0.5986 -1.8476
  178DOPC  C31621855   3.061   0.332  13.979 -0.0080  0.6040  0.2359
  178DOPC  H16X21856   3.013   0.428  14.007  0.4648  1.1433 -0.7047
  178DOPC  H16Y21857   3.092   0.278  14.071 -1.8295 -1.9064 -0.5324
  178DOPC  C31721858   3.180   0.370  13.893  0.1769  0.3099  0.1016
  178DOPC  H17X21859   3.235   0.276  13.875 -0.5341  0.0551 -0.8045
  178DOPC  H17Y21860   3.147   0.416  13.798  1.3861 -0.4194 -0.6892
  178DOPC  C31821861   3.286   0.464  13.955 -0.1526  0.2581  0.2040
  178DOPC  H18X21862   3.343   0.413  14.035  0.7938 -0.7271 -1.0404
  178DOPC  H18Y21863   3.369   0.497  13.889  0.6203 -1.5858  0.1901
  178DOPC  H18Z21864   3.240   0.556  13.996 -1.1280  0.2567 -0.8495
  179DOPC     N21865   5.177   5.754  11.313  0.3992  0.2879 -0.2910
  179DOPC   C1221866   5.219   5.752  11.455 -0.1350 -0.0559 -0.4564
  179DOPC  H12A21867   5.225   5.648  11.483 -1.2965  0.2504  1.0675
  179DOPC  H12B21868   5.137   5.798  11.508  1.0250 -1.0587  2.3874
  179DOPC   C1321869   5.152   5.899  11.282  0.4495  0.1810  1.0163
  179DOPC  H13A21870   5.089   5.939  11.359  1.6295 -0.4660  2.3584
  179DOPC  H13B21871   5.244   5.957  11.285  0.3198  0.3672  1.4119
  179DOPC  H13C21872   5.100   5.912  11.188 -1.2526  0.3968  1.9475
  179DOPC   C1421873   5.052   5.677  11.295  0.2795 -0.3247 -0.2693
  179DOPC  H14A21874   5.024   5.688  11.191  1.4123 -0.3950 -0.5969
  179DOPC  H14B21875   5.067   5.573  11.316 -1.5435 -0.7900 -1.0344
  179DOPC  H14C21876   4.979   5.724  11.360 -0.2204  0.3251 -1.2662
  179DOPC   C1521877   5.289   5.710  11.222 -0.2565  0.3764 -0.3565
  179DOPC  H15A21878   5.375   5.775  11.229  0.7715 -1.1434  3.3886
  179DOPC  H15B21879   5.256   5.699  11.120 -0.1160 -0.2809 -0.3362
  179DOPC  H15C21880   5.313   5.608  11.245  1.7793  0.8603 -0.0879
  179DOPC   C1121881   5.347   5.831  11.509  0.2093  0.6856  0.4173
  179DOPC  H11A21882   5.358   5.793  11.613 -1.2046 -2.2478 -0.3695
  179DOPC  H11B21883   5.428   5.792  11.444 -0.0326 -0.7015  0.9120
  179DOPC     P21884   5.241   6.060  11.611 -0.1839 -0.1772  0.0091
  179DOPC   O1321885   5.113   5.991  11.634 -0.2748  0.1960 -0.4158
  179DOPC   O1421886   5.234   6.207  11.572 -0.3225 -0.2026  0.4362
  179DOPC   O1221887   5.320   5.971  11.503 -0.0993 -0.2259 -0.4744
  179DOPC   O1121888   5.324   6.048  11.748  0.0117 -0.3128  0.1142
  179DOPC    C121889   5.453   6.099  11.767 -0.3489 -0.4253  0.0724
  179DOPC    HA21890   5.489   6.152  11.675 -3.8186  0.0988 -1.1382
  179DOPC    HB21891   5.520   6.011  11.775 -1.4417 -1.0549  3.4927
  179DOPC    C221892   5.466   6.172  11.903  0.5289 -0.3163 -0.4182
  179DOPC    HS21893   5.410   6.268  11.895 -0.1029 -0.6537 -0.1026
  179DOPC   O2121894   5.612   6.201  11.913 -0.0421  0.4395 -0.1863
  179DOPC   C2121895   5.649   6.297  11.994 -0.2271 -0.3569  0.0706
  179DOPC   O2221896   5.576   6.374  12.053 -0.0574  0.8095 -0.0847
  179DOPC   C2221897   5.808   6.293  12.009  0.1103  0.2045  0.0713
  179DOPC   H2R21898   5.849   6.345  11.920  0.8307  0.4632  0.5413
  179DOPC   H2S21899   5.840   6.187  12.013  2.3826  0.8867  2.4708
  179DOPC    C321900   5.407   6.093  12.025 -0.0245  0.2150  0.4545
  179DOPC    HX21901   5.451   5.991  12.032  1.3345  0.6291 -1.2906
  179DOPC    HY21902   5.299   6.078  12.001  0.2837 -0.8756 -0.3246
  179DOPC   O3121903   5.429   6.165  12.151 -0.1310 -0.0479  0.0398
  179DOPC   C3121904   5.327   6.192  12.220  1.1896  0.5932 -0.2740
  179DOPC   O3221905   5.209   6.168  12.196 -0.3142  0.2925 -0.5940
  179DOPC   C3221906   5.365   6.271  12.349  0.6816 -0.6922  0.1887
  179DOPC   H2X21907   5.457   6.331  12.330  0.1424 -0.7445 -3.0272
  179DOPC   H2Y21908   5.279   6.335  12.378  2.0349  0.8779  0.8795
  179DOPC   C2321909   5.859   6.377  12.121  0.5990 -0.6783  0.4227
  179DOPC   H3R21910   5.800   6.471  12.120  0.2050 -0.9286  0.0158
  179DOPC   H3S21911   5.965   6.408  12.108 -0.0948  0.9073 -2.0244
  179DOPC   C2421912   5.832   6.306  12.250  0.2104 -0.1809 -0.1471
  179DOPC   H4R21913   5.890   6.212  12.263 -0.3176 -0.5652 -0.5148
  179DOPC   H4S21914   5.724   6.281  12.256  0.2541 -0.2888  0.2143
  179DOPC   C2521915   5.854   6.393  12.377  0.5365 -0.8838 -0.0953
  179DOPC   H5R21916   5.771   6.466  12.390  0.6204 -1.0515  1.6187
  179DOPC   H5S21917   5.945   6.448  12.347  0.0742 -0.0269  0.0307
  179DOPC   C2621918   5.862   6.321  12.508 -0.3300 -1.4244 -0.3503
  179DOPC   H6R21919   5.941   6.243  12.500  0.1060 -0.8505 -2.1386
  179DOPC   H6S21920   5.775   6.257  12.533 -0.0405 -0.7584  2.7634
  179DOPC   C2721921   5.906   6.414  12.624 -0.6693  0.2660  0.4539
  179DOPC   H7R21922   5.825   6.490  12.622 -2.3617 -1.4084  1.3527
  179DOPC   H7S21923   6.004   6.460  12.599 -0.2378 -0.5592  0.6007
  179DOPC   C2821924   5.933   6.353  12.763 -0.0247 -0.5528 -0.1098
  179DOPC   H8R21925   6.010   6.273  12.760  0.3708 -0.2125  0.7016
  179DOPC   H8S21926   5.833   6.318  12.799  0.3893  0.9710  2.8936
  179DOPC   C2921927   5.980   6.450  12.868 -0.3703  0.5480  0.6162
  179DOPC   H9R21928   5.948   6.554  12.850 -0.1063  0.7851  1.4650
  179DOPC  C21021929   6.045   6.432  12.981 -0.5007 -0.2035 -0.2339
  179DOPC  H10R21930   6.067   6.515  13.050 -3.9660  0.9461 -0.3353
  179DOPC  C21121931   6.098   6.299  13.038 -0.2824  0.3129  0.3772
  179DOPC  H11R21932   6.209   6.298  13.042 -0.2950  0.6783  0.9302
  179DOPC  H11S21933   6.074   6.212  12.973  0.1761 -0.2844  0.9893
  179DOPC  C21221934   6.044   6.276  13.178 -0.5934 -0.7241 -0.7791
  179DOPC  H12R21935   6.025   6.169  13.204 -1.0568 -0.8151 -1.4892
  179DOPC  H12S21936   5.945   6.325  13.181  0.4436  1.6127 -2.1430
  179DOPC  C21321937   6.127   6.342  13.298  0.4713  0.0626 -0.2637
  179DOPC  H13R21938   6.138   6.450  13.276  1.7503 -0.1070 -0.5778
  179DOPC  H13S21939   6.226   6.291  13.293  0.2255 -0.3436 -1.1274
  179DOPC  C21421940   6.063   6.315  13.434  0.5064  0.4388 -0.3080
  179DOPC  H14R21941   6.055   6.204  13.443 -2.6767  0.5607 -0.2657
  179DOPC  H14S21942   5.960   6.357  13.433  0.3957  0.2014 -2.0700
  179DOPC  C21521943   6.142   6.377  13.553 -0.3988 -0.3765  0.2717
  179DOPC  H15R21944   6.106   6.329  13.646  1.6591 -0.5422  1.0349
  179DOPC  H15S21945   6.121   6.486  13.546 -1.9204 -0.6968 -0.4282
  179DOPC  C21621946   6.292   6.358  13.553 -0.0441  0.0208  0.3120
  179DOPC  H16R21947   6.346   6.391  13.462 -1.2039 -0.3587 -0.5475
  179DOPC  H16S21948   6.306   6.248  13.557 -0.3328 -0.2798 -3.2549
  179DOPC  C21721949   6.351   6.407  13.680  0.0672  0.0146 -0.8215
  179DOPC  H17R21950   6.301   6.377  13.775  0.1672 -0.4008 -0.8975
  179DOPC  H17S21951   6.342   6.518  13.682 -1.8526 -0.1161 -0.3459
  179DOPC  C21821952   6.500   6.373  13.699  0.3853 -0.2662  0.1931
  179DOPC  H18R21953   6.544   6.436  13.779  1.1063  0.8557 -1.0498
  179DOPC  H18S21954   6.558   6.380  13.604  0.8799  0.0423  0.5120
  179DOPC  H18T21955   6.508   6.266  13.728  0.5219 -0.7298 -1.4598
  179DOPC   C3321956   5.395   6.174  12.464  0.2059  0.6529  0.2925
  179DOPC   H3X21957   5.486   6.113  12.449  0.1154  0.1186  1.8118
  179DOPC   H3Y21958   5.306   6.109  12.481 -0.3764  1.7048  1.4349
  179DOPC   C3421959   5.435   6.262  12.585  0.5315 -0.0883 -0.0047
  179DOPC   H4X21960   5.377   6.357  12.580 -0.8299 -0.8581  0.4815
  179DOPC   H4Y21961   5.541   6.289  12.566  0.7566  1.2045  2.6010
  179DOPC   C3521962   5.433   6.177  12.720  0.1341 -0.1437 -0.3685
  179DOPC   H5X21963   5.459   6.072  12.694  0.2958  0.1622 -1.5181
  179DOPC   H5Y21964   5.332   6.163  12.762  0.6619  0.1738  1.0499
  179DOPC   C3621965   5.526   6.236  12.828 -0.4647 -0.0806  1.0307
  179DOPC   H6X21966   5.626   6.227  12.780 -1.1407  0.6285 -0.5705
  179DOPC   H6Y21967   5.500   6.337  12.865 -0.4717 -0.1881  1.3252
  179DOPC   C3721968   5.531   6.128  12.935 -0.3140  0.6730  0.1263
  179DOPC   H7X21969   5.443   6.154  12.996 -0.4413  0.5369  0.0014
  179DOPC   H7Y21970   5.531   6.030  12.882  0.4110  1.1943 -0.8692
  179DOPC   C3821971   5.661   6.150  13.018 -0.1554 -0.4351  0.0797
  179DOPC   H8X21972   5.746   6.125  12.951  0.4657  1.3009  0.1764
  179DOPC   H8Y21973   5.670   6.074  13.098  1.8321 -0.9232 -0.5522
  179DOPC   C3921974   5.667   6.293  13.078 -0.0683  0.5535  0.7280
  179DOPC   H9X21975   5.696   6.375  13.010  0.4416  0.0421  0.3174
  179DOPC  C31021976   5.665   6.324  13.208  0.1080 -0.3594 -0.0976
  179DOPC  H10X21977   5.676   6.429  13.238 -1.4227  0.3025 -1.7051
  179DOPC  C31121978   5.630   6.223  13.315 -0.4283 -0.6586  0.0188
  179DOPC  H11X21979   5.708   6.144  13.320  1.2522  0.9561 -0.0230
  179DOPC  H11Y21980   5.529   6.180  13.296 -0.4245 -0.3004 -0.8884
  179DOPC  C31221981   5.624   6.285  13.454 -0.1803 -0.0602  0.1068
  179DOPC  H12X21982   5.557   6.373  13.454  1.3871  1.2939  3.6107
  179DOPC  H12Y21983   5.726   6.325  13.467 -0.1994 -0.6263  2.5313
  179DOPC  C31321984   5.592   6.192  13.570  0.4220 -0.4545  0.2105
  179DOPC  H13X21985   5.486   6.158  13.562 -0.2869  1.9121 -1.7771
  179DOPC  H13Y21986   5.650   6.099  13.558  0.4618 -0.4996  0.7109
  179DOPC  C31421987   5.618   6.257  13.708  0.1178  0.3233 -0.3406
  179DOPC  H14X21988   5.581   6.362  13.702  0.5538  0.5757  0.9948
  179DOPC  H14Y21989   5.559   6.204  13.785 -0.0523  1.8047  0.5886
  179DOPC  C31521990   5.768   6.261  13.744  0.1360 -0.6681 -0.1616
  179DOPC  H15X21991   5.774   6.323  13.836 -1.3905  0.3119 -0.6819
  179DOPC  H15Y21992   5.822   6.318  13.666  1.5512  1.0475  1.9574
  179DOPC  C31621993   5.825   6.126  13.779  0.1092 -0.5972 -0.5636
  179DOPC  H16X21994   5.813   6.049  13.700 -1.8328 -0.9295  0.0092
  179DOPC  H16Y21995   5.936   6.134  13.779  0.2029 -1.7112 -0.3598
  179DOPC  C31721996   5.767   6.057  13.906 -0.3275 -0.0419  0.1258
  179DOPC  H17X21997   5.658   6.052  13.925  0.0557  2.3618  3.9357
  179DOPC  H17Y21998   5.809   5.954  13.900  2.6161  0.9816  1.4143
  179DOPC  C31821999   5.833   6.120  14.031  0.5401  0.2557  0.2678
  179DOPC  H18X22000   5.806   6.228  14.038 -0.6449 -0.0863  1.4563
  179DOPC  H18Y22001   5.814   6.065  14.126  1.5846  0.1018  0.3977
  179DOPC  H18Z22002   5.944   6.121  14.022  0.4022  0.4057 -1.7826
  180DOPC     N22003   0.544   4.082  11.545 -0.0974 -0.0970 -0.7337
  180DOPC   C1222004   0.515   3.945  11.602 -0.2368 -0.4956 -0.2926
  180DOPC  H12A22005   0.596   3.903  11.660 -0.0789 -0.9431 -0.8309
  180DOPC  H12B22006   0.517   3.879  11.517 -0.7338 -0.6064 -0.2209
  180DOPC   C1322007   0.683   4.079  11.503  0.2714 -0.3148 -0.6942
  180DOPC  H13A22008   0.750   4.048  11.582 -0.0638 -0.7002 -0.5533
  180DOPC  H13B22009   0.688   4.010  11.420 -2.1807  0.2163 -1.3578
  180DOPC  H13C22010   0.715   4.177  11.473 -1.3086  0.0841 -1.2048
  180DOPC   C1422011   0.531   4.184  11.659 -0.6536 -0.5736 -0.3780
  180DOPC  H14A22012   0.440   4.168  11.714 -1.3044  1.9235 -0.6103
  180DOPC  H14B22013   0.622   4.182  11.718 -0.4218 -0.2696 -0.7156
  180DOPC  H14C22014   0.517   4.285  11.625  0.2603  0.8108  2.9955
  180DOPC   C1522015   0.454   4.130  11.448  0.7206 -0.2091 -0.0113
  180DOPC  H15A22016   0.481   4.233  11.431  3.1091 -0.5804  1.1208
  180DOPC  H15B22017   0.349   4.134  11.473  0.8271  0.7077  0.3434
  180DOPC  H15C22018   0.462   4.085  11.350 -0.3754 -0.2075 -0.1169
  180DOPC   C1122019   0.375   3.918  11.671  0.3393  0.0296 -0.5498
  180DOPC  H11A22020   0.386   3.812  11.701  2.0562  0.3050 -0.0672
  180DOPC  H11B22021   0.367   3.989  11.756  0.4955  1.2440 -1.5114
  180DOPC     P22022   0.218   3.846  11.472 -0.2334  0.4021 -0.0099
  180DOPC   O1322023   0.330   3.770  11.421 -0.5757 -0.1554  0.1607
  180DOPC   O1422024   0.138   3.915  11.373  0.3951 -0.3480  0.5737
  180DOPC   O1222025   0.265   3.944  11.587  0.1787  0.3866 -0.6575
  180DOPC   O1122026   0.128   3.748  11.563 -0.4771 -0.1051  0.4672
  180DOPC    C122027   0.009   3.800  11.620 -0.0967 -0.0712 -0.1847
  180DOPC    HA22028  -0.084   3.794  11.558  0.5391 -1.8229 -1.0152
  180DOPC    HB22029   0.012   3.909  11.641  1.0091  0.0270 -0.8030
  180DOPC    C222030  -0.019   3.730  11.754 -0.1882 -0.3197  0.7999
  180DOPC    HS22031  -0.105   3.787  11.796 -1.4996 -0.6853 -1.2170
  180DOPC   O2122032   0.100   3.731  11.838 -1.0560 -0.4122  0.5296
  180DOPC   C2122033   0.115   3.835  11.911  0.0587 -0.3900 -0.1441
  180DOPC   O2222034   0.045   3.933  11.912 -0.0226  0.0788 -0.8123
  180DOPC   C2222035   0.243   3.816  11.992  0.5099  0.2420 -0.1489
  180DOPC   H2R22036   0.317   3.825  11.909  2.3590  0.7068  1.4718
  180DOPC   H2S22037   0.248   3.714  12.035  2.4432  1.3987  2.6166
  180DOPC    C322038  -0.066   3.591  11.730  0.4074  0.3300 -0.3660
  180DOPC    HX22039   0.007   3.529  11.674 -0.6328  0.1899 -1.6084
  180DOPC    HY22040  -0.153   3.598  11.661 -0.5391  0.2710  0.7864
  180DOPC   O3122041  -0.099   3.524  11.853 -0.6785  0.3717 -0.3927
  180DOPC   C3122042  -0.137   3.394  11.839 -0.7016  0.6869 -0.2243
  180DOPC   O3222043  -0.157   3.338  11.735 -0.5046  0.2582 -0.0622
  180DOPC   C3222044  -0.144   3.326  11.976  0.1850 -0.4429  0.0727
  180DOPC   H2X22045  -0.194   3.229  11.956 -0.2956  0.1806 -1.9457
  180DOPC   H2Y22046  -0.038   3.306  12.002 -0.6488 -2.9774  1.9735
  180DOPC   C2322047   0.272   3.926  12.093 -0.1714  0.0000 -0.1685
  180DOPC   H3R22048   0.257   4.025  12.045  0.8603 -0.7786 -2.2206
  180DOPC   H3S22049   0.378   3.912  12.124  0.0414  1.0527 -0.4076
  180DOPC   C2422050   0.191   3.908  12.215  0.0468  1.2372 -0.3356
  180DOPC   H4R22051   0.208   3.807  12.256  3.7169  1.2248 -1.4917
  180DOPC   H4S22052   0.081   3.921  12.204 -0.2749 -0.7586  0.2155
  180DOPC   C2522053   0.236   3.991  12.330 -0.5529 -0.4313 -0.4880
  180DOPC   H5R22054   0.216   4.095  12.296  0.6425 -0.0104  0.0537
  180DOPC   H5S22055   0.346   3.986  12.339 -0.5656 -0.4016 -0.3046
  180DOPC   C2622056   0.166   3.958  12.463 -0.1390 -0.0080  0.3335
  180DOPC   H6R22057   0.212   3.863  12.500 -0.0807  0.5847  1.8795
  180DOPC   H6S22058   0.058   3.940  12.444  0.0087  0.6343 -1.2480
  180DOPC   C2722059   0.198   4.057  12.577  0.2107  0.0688 -0.1785
  180DOPC   H7R22060   0.165   4.156  12.537 -2.0584 -0.7639 -0.5318
  180DOPC   H7S22061   0.309   4.061  12.581  0.4080  4.5212 -2.9374
  180DOPC   C2822062   0.121   4.032  12.710 -0.3278  0.6307  0.0424
  180DOPC   H8R22063   0.139   3.927  12.742 -1.0195  1.0564  1.9104
  180DOPC   H8S22064   0.012   4.044  12.694 -0.6421  1.3784  2.4156
  180DOPC   C2922065   0.158   4.126  12.821  0.3398  0.4796 -0.2112
  180DOPC   H9R22066   0.207   4.220  12.793 -0.1051  1.5148  2.2133
  180DOPC  C21022067   0.138   4.096  12.953 -0.8411  0.3336  0.8290
  180DOPC  H10R22068   0.170   4.173  13.025  0.1358  0.8137 -0.1016
  180DOPC  C21122069   0.079   3.968  13.012 -0.7484 -0.0727 -0.5857
  180DOPC  H11R22070   0.167   3.919  13.060 -0.8673  1.0801  0.8698
  180DOPC  H11S22071   0.023   3.915  12.933 -3.7710  0.7618  0.8478
  180DOPC  C21222072  -0.027   4.004  13.120  0.1431 -0.0882  0.1120
  180DOPC  H12R22073  -0.103   3.922  13.122  0.9066 -0.8309  2.2509
  180DOPC  H12S22074  -0.082   4.093  13.085  0.6470  0.1848  0.0134
  180DOPC  C21322075   0.034   4.002  13.266 -0.0868  0.3185  0.6130
  180DOPC  H13R22076   0.097   4.092  13.279  1.1806 -0.3561 -0.6111
  180DOPC  H13S22077   0.095   3.909  13.277 -0.6708 -0.2017 -0.4258
  180DOPC  C21422078  -0.073   3.999  13.368  0.0163 -0.0037 -0.6490
  180DOPC  H14R22079  -0.152   3.927  13.340 -2.1967  0.9437  2.5747
  180DOPC  H14S22080  -0.131   4.094  13.364 -1.3598 -0.5576  2.9015
  180DOPC  C21522081  -0.003   3.968  13.507  0.0259  0.6990 -0.6084
  180DOPC  H15R22082   0.065   4.051  13.534  0.5855  0.6119 -1.6916
  180DOPC  H15S22083   0.063   3.881  13.489  0.5677  1.3044 -1.5992
  180DOPC  C21622084  -0.108   3.950  13.614  0.3905  0.3165 -0.4066
  180DOPC  H16R22085  -0.176   3.865  13.596  1.7923 -1.2735  1.4615
  180DOPC  H16S22086  -0.177   4.036  13.626  0.6101  0.2165  2.0220
  180DOPC  C21722087  -0.042   3.909  13.751 -0.4920  0.0185 -0.7801
  180DOPC  H17R22088  -0.013   3.802  13.742 -0.2437  0.0898 -0.8387
  180DOPC  H17S22089  -0.117   3.913  13.832  0.0322 -0.5989 -0.2549
  180DOPC  C21822090   0.065   3.996  13.799  0.1962 -0.0384  0.1715
  180DOPC  H18R22091   0.165   3.985  13.752  0.6572  0.1179  1.0852
  180DOPC  H18S22092   0.078   3.986  13.909 -0.7390 -0.5706  0.2435
  180DOPC  H18T22093   0.042   4.101  13.771 -0.2745 -0.1597  0.0911
  180DOPC   C3322094  -0.212   3.406  12.091 -1.1166  0.0661 -0.1647
  180DOPC   H3X22095  -0.320   3.427  12.073 -1.0764  2.2143  1.6694
  180DOPC   H3Y22096  -0.164   3.506  12.090 -0.5171 -0.2246 -0.8223
  180DOPC   C3422097  -0.202   3.331  12.223  0.3442  0.4994  0.1447
  180DOPC   H4X22098  -0.099   3.350  12.257 -0.6936  0.6261  3.5877
  180DOPC   H4Y22099  -0.225   3.224  12.204 -0.7685  0.1812  2.8807
  180DOPC   C3522100  -0.293   3.390  12.341 -0.3237  0.0111 -0.6839
  180DOPC   H5X22101  -0.391   3.338  12.336 -0.0840 -0.4731 -0.4206
  180DOPC   H5Y22102  -0.307   3.500  12.331  0.9979  0.1490 -1.2658
  180DOPC   C3622103  -0.240   3.350  12.478 -0.0284 -0.3819  0.2499
  180DOPC   H6X22104  -0.235   3.241  12.499  1.3132 -0.2348  0.8008
  180DOPC   H6Y22105  -0.134   3.383  12.482  0.0956 -0.7224 -0.0965
  180DOPC   C3722106  -0.325   3.426  12.584 -0.4041 -0.1923 -0.0087
  180DOPC   H7X22107  -0.320   3.536  12.569  0.1779 -0.2536 -0.3048
  180DOPC   H7Y22108  -0.428   3.397  12.555 -0.8253  0.9562  0.2754
  180DOPC   C3822109  -0.303   3.388  12.727 -0.1041  0.9447 -1.1746
  180DOPC   H8X22110  -0.331   3.281  12.737  0.4195  0.9421  0.4336
  180DOPC   H8Y22111  -0.380   3.440  12.788  1.2051 -2.2817  3.7569
  180DOPC   C3922112  -0.164   3.409  12.782 -0.9880 -0.5742  0.6178
  180DOPC   H9X22113  -0.087   3.344  12.737 -0.1050  1.8786 -1.6395
  180DOPC  C31022114  -0.136   3.470  12.897 -0.3740  0.0595 -0.3354
  180DOPC  H10X22115  -0.036   3.455  12.940 -0.8389 -0.8669  0.4582
  180DOPC  C31122116  -0.238   3.552  12.989  0.2884  0.1962  0.5832
  180DOPC  H11X22117  -0.326   3.578  12.926 -1.0429 -2.7858  1.0627
  180DOPC  H11Y22118  -0.202   3.656  13.007 -0.2929  0.5953 -0.4670
  180DOPC  C31222119  -0.280   3.472  13.108 -0.0356 -0.0819 -0.2727
  180DOPC  H12X22120  -0.193   3.418  13.151  0.0260  1.0416  1.0981
  180DOPC  H12Y22121  -0.351   3.392  13.078 -1.2393  1.8614 -2.9850
  180DOPC  C31322122  -0.339   3.561  13.213 -0.7419 -0.3074 -0.7715
  180DOPC  H13X22123  -0.295   3.663  13.215 -0.0582 -0.6043 -0.4971
  180DOPC  H13Y22124  -0.448   3.571  13.191 -0.7041  1.5145 -0.2937
  180DOPC  C31422125  -0.350   3.496  13.350  0.6808  0.6574  0.2032
  180DOPC  H14X22126  -0.433   3.543  13.406  0.3423 -0.9317  1.0968
  180DOPC  H14Y22127  -0.406   3.400  13.345 -1.4163  1.8694 -2.0188
  180DOPC  C31522128  -0.215   3.487  13.431  0.1521  0.0865  0.4440
  180DOPC  H15X22129  -0.183   3.588  13.462 -0.3999  0.9519 -1.5962
  180DOPC  H15Y22130  -0.141   3.436  13.366  1.9033  2.3104  0.5911
  180DOPC  C31622131  -0.225   3.408  13.562  0.1345 -0.2654  0.5202
  180DOPC  H16X22132  -0.322   3.437  13.610 -0.7155  1.1822 -1.8880
  180DOPC  H16Y22133  -0.232   3.298  13.548 -0.3888 -0.5290  2.4726
  180DOPC  C31722134  -0.108   3.430  13.657  0.4045 -0.5926  0.5184
  180DOPC  H17X22135  -0.100   3.331  13.708 -1.0523 -1.3390 -0.6299
  180DOPC  H17Y22136  -0.015   3.451  13.601 -1.2335  3.2919 -1.1644
  180DOPC  C31822137  -0.128   3.538  13.761  0.3098 -1.0059  0.7071
  180DOPC  H18X22138  -0.045   3.557  13.832  0.5570  0.5372  0.0510
  180DOPC  H18Y22139  -0.126   3.634  13.705 -0.8905 -3.1583 -3.4777
  180DOPC  H18Z22140  -0.225   3.531  13.813  0.4888 -1.4267  0.9875
  181DOPC     N22141   1.435   3.899  11.713  0.3787 -0.2150  0.4450
  181DOPC   C1222142   1.313   3.847  11.640  0.2345  0.0554  0.5331
  181DOPC  H12A22143   1.341   3.840  11.536  3.0203  0.7002  1.1684
  181DOPC  H12B22144   1.225   3.910  11.634  0.4004  0.1994 -0.7839
  181DOPC   C1322145   1.455   4.045  11.668 -0.9232  0.5897  0.8198
  181DOPC  H13A22146   1.380   4.107  11.713 -1.8337  0.0999  0.0183
  181DOPC  H13B22147   1.550   4.088  11.697  0.3408 -1.8037  0.5088
  181DOPC  H13C22148   1.456   4.061  11.561  2.9390  1.9975  0.8957
  181DOPC   C1422149   1.551   3.817  11.673 -0.5222  0.0083 -0.3423
  181DOPC  H14A22150   1.519   3.714  11.678 -0.1166 -0.0948  0.0864
  181DOPC  H14B22151   1.573   3.839  11.569 -0.5419  0.5533 -0.2378
  181DOPC  H14C22152   1.635   3.835  11.738  0.0816 -1.4157 -0.6976
  181DOPC   C1522153   1.419   3.897  11.857  0.0594  0.3424  1.1462
  181DOPC  H15A22154   1.515   3.875  11.902 -0.5643 -0.2176  2.2458
  181DOPC  H15B22155   1.342   3.828  11.886 -0.7236 -0.3742 -2.2192
  181DOPC  H15C22156   1.370   3.987  11.890  0.9232  1.8277 -1.3565
  181DOPC   C1122157   1.236   3.718  11.688  0.0598 -0.4346  0.8521
  181DOPC  H11A22158   1.175   3.746  11.777  1.3387 -0.8450  1.8956
  181DOPC  H11B22159   1.169   3.694  11.603  1.7968  1.2996 -1.1488
  181DOPC     P22160   1.285   3.488  11.815  0.2567  0.3736  0.0174
  181DOPC   O1322161   1.407   3.406  11.833  0.6345  0.0244 -0.2732
  181DOPC   O1422162   1.161   3.418  11.780  0.0417 -0.1032 -0.1413
  181DOPC   O1222163   1.322   3.604  11.711 -0.0236  0.3938 -0.4150
  181DOPC   O1122164   1.265   3.573  11.946  0.6444 -0.1490  0.2261
  181DOPC    C122165   1.151   3.554  12.032  0.1778 -0.7620 -0.6164
  181DOPC    HA22166   1.127   3.449  12.061 -1.6091 -0.1627  0.2125
  181DOPC    HB22167   1.061   3.594  11.980 -0.5784 -1.9023 -0.2331
  181DOPC    C222168   1.177   3.636  12.166 -0.1049  0.2170 -0.4109
  181DOPC    HS22169   1.172   3.742  12.132  0.3617  0.7735  1.1684
  181DOPC   O2122170   1.302   3.597  12.219  0.2610 -0.0151  0.4106
  181DOPC   C2122171   1.396   3.682  12.203  0.1760 -0.0829  0.1987
  181DOPC   O2222172   1.392   3.795  12.155 -0.5523  0.2058 -0.5395
  181DOPC   C2222173   1.524   3.611  12.247 -0.3865 -0.0924 -0.6901
  181DOPC   H2R22174   1.593   3.581  12.165 -1.7185 -1.8832 -1.2353
  181DOPC   H2S22175   1.506   3.521  12.311 -1.5326  1.2928  1.0475
  181DOPC    C322176   1.069   3.612  12.272  0.0594  0.2801  0.5649
  181DOPC    HX22177   1.025   3.510  12.273 -0.6510  0.5825  0.6937
  181DOPC    HY22178   0.982   3.665  12.230  0.6654  1.0990  0.3201
  181DOPC   O3122179   1.109   3.648  12.407  0.3106  0.4543 -0.1054
  181DOPC   C3122180   1.100   3.779  12.441 -0.9795  0.2881  0.1973
  181DOPC   O3222181   1.050   3.868  12.372 -0.2275 -0.1146  0.3603
  181DOPC   C3222182   1.159   3.797  12.577  0.1204 -0.0625  0.1744
  181DOPC   H2X22183   1.178   3.698  12.622  4.5610 -0.0450 -1.2215
  181DOPC   H2Y22184   1.255   3.852  12.565 -0.0685  0.1886 -0.2239
  181DOPC   C2322185   1.598   3.706  12.340  0.0098  0.3900  0.0980
  181DOPC   H3R22186   1.600   3.807  12.294  0.1994 -0.2733 -1.3989
  181DOPC   H3S22187   1.707   3.687  12.344  0.2191  1.5606  0.4706
  181DOPC   C2422188   1.553   3.711  12.485  0.3815  0.7869 -0.3373
  181DOPC   H4R22189   1.529   3.607  12.516 -0.2065  1.2725  0.8944
  181DOPC   H4S22190   1.455   3.764  12.489 -0.0331  0.1034 -1.0563
  181DOPC   C2522191   1.650   3.780  12.586  0.5577 -0.4528  0.1423
  181DOPC   H5R22192   1.674   3.875  12.533  0.4648 -1.7117 -2.2835
  181DOPC   H5S22193   1.741   3.717  12.600  1.8960  0.3921 -3.5942
  181DOPC   C2622194   1.581   3.812  12.718 -0.5209  0.2682  0.5298
  181DOPC   H6R22195   1.540   3.713  12.747  0.9806 -0.2111  1.1321
  181DOPC   H6S22196   1.511   3.897  12.705  1.8982  3.1674  4.1313
  181DOPC   C2722197   1.688   3.860  12.819  0.0943 -0.1405 -0.0792
  181DOPC   H7R22198   1.723   3.964  12.806  0.8026 -0.2480  0.8584
  181DOPC   H7S22199   1.780   3.798  12.812  0.0077 -0.5230  1.5826
  181DOPC   C2822200   1.639   3.848  12.965  0.5289  0.0209 -0.2496
  181DOPC   H8R22201   1.729   3.850  13.029 -0.8423 -1.9508  1.9128
  181DOPC   H8S22202   1.602   3.746  12.987 -1.1876  0.4544 -0.8841
  181DOPC   C2922203   1.531   3.946  13.007 -0.0929  0.3637 -0.3678
  181DOPC   H9R22204   1.436   3.928  12.955 -0.2182  2.5100 -0.9714
  181DOPC  C21022205   1.546   4.033  13.107 -0.2789 -0.2771  0.2293
  181DOPC  H10R22206   1.461   4.098  13.132  1.0249  2.3389 -1.6916
  181DOPC  C21122207   1.675   4.060  13.183 -0.0284  0.1184 -1.1397
  181DOPC  H11R22208   1.676   4.169  13.202 -1.1404 -0.3628  2.3597
  181DOPC  H11S22209   1.766   4.032  13.125  1.5354 -0.8227  1.5755
  181DOPC  C21222210   1.686   3.983  13.314 -0.4265  0.1297  0.0357
  181DOPC  H12R22211   1.791   3.955  13.340 -0.3281  0.9721  0.5844
  181DOPC  H12S22212   1.630   3.888  13.305 -1.3094  0.7335 -1.2295
  181DOPC  C21322213   1.620   4.060  13.428  0.3824 -0.4988  0.6494
  181DOPC  H13R22214   1.520   4.098  13.401  0.8182  0.3677  0.2147
  181DOPC  H13S22215   1.678   4.154  13.438 -1.1856  0.7536 -1.4047
  181DOPC  C21422216   1.608   3.986  13.555  0.5198  0.2719  0.4256
  181DOPC  H14R22217   1.710   3.955  13.584  1.0494  1.9345  0.4304
  181DOPC  H14S22218   1.543   3.897  13.540  1.2085 -0.1133 -0.3306
  181DOPC  C21522219   1.547   4.073  13.667  0.4534  0.2367  0.6715
  181DOPC  H15R22220   1.446   4.118  13.658  0.6928  0.6919  0.2624
  181DOPC  H15S22221   1.618   4.156  13.682  0.8395 -0.1421  0.9699
  181DOPC  C21622222   1.526   3.989  13.797 -0.3391  0.0218 -0.3077
  181DOPC  H16R22223   1.628   3.956  13.826  0.0886  1.1309 -0.5004
  181DOPC  H16S22224   1.472   3.898  13.762  1.7358 -0.9573 -1.1828
  181DOPC  C21722225   1.453   4.075  13.904  0.2855 -0.3459  0.3867
  181DOPC  H17R22226   1.348   4.072  13.868  0.3982  0.5796 -0.0441
  181DOPC  H17S22227   1.503   4.174  13.916  1.6789 -0.6246 -2.3730
  181DOPC  C21822228   1.452   3.998  14.038  0.0830 -0.2656 -0.0233
  181DOPC  H18R22229   1.361   3.935  14.046 -0.2225  0.1743 -0.0111
  181DOPC  H18S22230   1.448   4.073  14.120  0.4409 -0.2425 -0.0223
  181DOPC  H18T22231   1.533   3.923  14.054 -2.4944 -2.9895  1.1485
  181DOPC   C3322232   1.062   3.887  12.656  0.7439  0.1046  0.3667
  181DOPC   H3X22233   0.960   3.844  12.646  1.3319 -1.4544  0.8095
  181DOPC   H3Y22234   1.055   3.989  12.612 -2.7440  0.3386  1.1430
  181DOPC   C3422235   1.101   3.896  12.803 -0.9375  0.2147  0.2864
  181DOPC   H4X22236   1.207   3.928  12.803 -1.4734  2.1367  1.8096
  181DOPC   H4Y22237   1.079   3.798  12.850  4.2606 -0.0639  2.8741
  181DOPC   C3522238   1.017   3.997  12.887 -0.0874 -0.2520 -0.0878
  181DOPC   H5X22239   0.910   3.970  12.898 -1.3414  3.3346 -1.7390
  181DOPC   H5Y22240   1.022   4.094  12.833 -0.3196 -1.2687 -2.0472
  181DOPC   C3622241   1.063   4.018  13.034 -0.1551 -0.2668  0.1529
  181DOPC   H6X22242   1.171   4.044  13.043  0.0002 -1.1100  0.9247
  181DOPC   H6Y22243   1.009   4.110  13.065  0.9874  0.6925 -0.6179
  181DOPC   C3722244   1.019   3.901  13.125 -0.6870  0.8744  0.2807
  181DOPC   H7X22245   0.914   3.872  13.105 -0.1641 -1.7203  0.8798
  181DOPC   H7Y22246   1.080   3.812  13.099 -1.5054  0.6361 -0.8755
  181DOPC   C3822247   1.020   3.921  13.279  0.3134 -0.3868  0.2609
  181DOPC   H8X22248   1.024   3.822  13.330 -0.5461 -1.3804 -1.5035
  181DOPC   H8Y22249   0.915   3.955  13.292  0.8126  1.0917  0.6354
  181DOPC   C3922250   1.114   4.019  13.343  0.1056  0.1560  0.0565
  181DOPC   H9X22251   1.178   4.072  13.270  2.2311 -1.6814  0.4647
  181DOPC  C31022252   1.133   4.053  13.472 -0.2948 -0.2130 -0.0518
  181DOPC  H10X22253   1.212   4.122  13.506  0.9610 -1.4587 -0.3265
  181DOPC  C31122254   1.063   3.984  13.586 -0.0621 -0.1230  0.3698
  181DOPC  H11X22255   1.132   3.949  13.666  0.4740  0.7157  0.2906
  181DOPC  H11Y22256   1.015   3.889  13.552  1.6828 -1.4791  1.4761
  181DOPC  C31222257   0.957   4.072  13.663 -0.2634  0.2327 -1.0410
  181DOPC  H12X22258   0.883   4.111  13.591 -0.8329  1.0425 -0.0448
  181DOPC  H12Y22259   1.004   4.164  13.704  0.2875 -0.2346 -0.5821
  181DOPC  C31322260   0.895   3.983  13.776 -0.3253  0.1196 -0.3355
  181DOPC  H13X22261   0.794   4.027  13.792 -0.8184 -0.3452 -1.9196
  181DOPC  H13Y22262   0.873   3.881  13.738  0.4530 -0.6730  1.2777
  181DOPC  C31422263   0.981   3.987  13.896  0.8495 -0.0747 -0.6018
  181DOPC  H14X22264   1.088   3.963  13.878  0.8588  0.2665 -1.0410
  181DOPC  H14Y22265   0.977   4.087  13.944  2.3800  0.2698 -1.1303
  181DOPC  C31522266   0.939   3.887  14.007 -0.5030 -0.1018  0.1731
  181DOPC  H15X22267   1.023   3.872  14.078 -0.3353  2.1435  0.5138
  181DOPC  H15Y22268   0.917   3.796  13.947 -0.8709  0.7348 -0.9974
  181DOPC  C31622269   0.825   3.948  14.081 -0.0828  0.1530 -0.6166
  181DOPC  H16X22270   0.873   4.019  14.151 -0.5337 -0.2075  0.0744
  181DOPC  H16Y22271   0.757   4.001  14.011 -1.3603 -0.2908  0.2506
  181DOPC  C31722272   0.747   3.854  14.177  0.0678 -0.4583 -0.4583
  181DOPC  H17X22273   0.674   3.907  14.242  0.8835  0.1628 -0.0353
  181DOPC  H17Y22274   0.684   3.782  14.120 -2.0167  0.3821  0.6668
  181DOPC  C31822275   0.837   3.767  14.258  0.2893  0.4093 -0.0770
  181DOPC  H18X22276   0.894   3.829  14.331 -2.0789 -0.6440  2.8818
  181DOPC  H18Y22277   0.784   3.685  14.312  1.1593  0.5286  1.0041
  181DOPC  H18Z22278   0.906   3.708  14.195 -0.5558 -0.1815 -0.4665
  182DOPC     N22279   1.980   2.196  11.667  0.4276 -0.2054 -0.3805
  182DOPC   C1222280   1.932   2.230  11.811 -0.5434 -0.3664  0.2933
  182DOPC  H12A22281   1.856   2.158  11.838 -2.5335  1.5394  0.1128
  182DOPC  H12B22282   1.883   2.326  11.820  0.2677 -0.1397  3.1107
  182DOPC   C1322283   2.074   2.303  11.621  0.5082 -0.5543  0.3090
  182DOPC  H13A22284   2.107   2.279  11.521 -2.7761 -0.9380 -0.7770
  182DOPC  H13B22285   2.028   2.400  11.627  1.1993 -0.1594 -0.6019
  182DOPC  H13C22286   2.147   2.308  11.700 -0.1217 -0.1476  0.8730
  182DOPC   C1422287   1.866   2.193  11.571 -0.1800  0.0152  0.5766
  182DOPC  H14A22288   1.817   2.289  11.571  0.7295  0.4896  1.2257
  182DOPC  H14B22289   1.910   2.173  11.474  0.6294  0.8817  0.7512
  182DOPC  H14C22290   1.797   2.116  11.603 -0.2205 -0.7203 -1.1493
  182DOPC   C1522291   2.049   2.065  11.657 -0.1357  0.5273  0.0839
  182DOPC  H15A22292   2.002   1.992  11.721  0.7397  0.8035  1.0660
  182DOPC  H15B22293   2.149   2.080  11.694  0.6333 -0.4379 -1.5026
  182DOPC  H15C22294   2.058   2.035  11.554  1.6424 -2.2372  0.9425
  182DOPC   C1122295   2.038   2.233  11.923 -0.0931 -0.2519 -0.5539
  182DOPC  H11A22296   2.108   2.317  11.905  1.1611 -0.7369  1.6311
  182DOPC  H11B22297   1.996   2.256  12.024  0.9049 -1.2504  0.1259
  182DOPC     P22298   2.076   1.991  12.019 -0.4126 -0.0395 -0.5788
  182DOPC   O1322299   2.158   1.872  11.981  0.3932 -0.3777 -0.4898
  182DOPC   O1422300   1.927   1.967  12.012 -0.3040  0.0372  0.3822
  182DOPC   O1222301   2.119   2.119  11.929  0.0205  0.2792  0.0409
  182DOPC   O1122302   2.116   2.034  12.164  0.2283 -0.2281  0.2709
  182DOPC    C122303   2.254   2.071  12.187  0.4013 -0.8294  0.3733
  182DOPC    HA22304   2.273   2.171  12.143  0.4226 -1.8972 -2.2678
  182DOPC    HB22305   2.334   2.008  12.144  1.6898 -0.8703  2.6929
  182DOPC    C222306   2.302   2.066  12.329 -0.3634 -0.8288 -0.3126
  182DOPC    HS22307   2.412   2.084  12.336 -0.2958 -1.7541  1.9799
  182DOPC   O2122308   2.259   1.936  12.379 -0.6017 -0.9691 -0.0875
  182DOPC   C2122309   2.352   1.858  12.418 -0.4929  0.6738  0.1066
  182DOPC   O2222310   2.475   1.878  12.425  0.2734 -0.3324 -0.0167
  182DOPC   C2222311   2.290   1.730  12.470  0.2562 -0.8358 -0.5853
  182DOPC   H2R22312   2.335   1.644  12.416 -0.8473 -1.1179 -1.0941
  182DOPC   H2S22313   2.183   1.725  12.439  0.4667  1.7691 -2.1144
  182DOPC    C322314   2.239   2.182  12.412  0.3359  0.2431  0.1307
  182DOPC    HX22315   2.129   2.175  12.397  0.4804 -0.4493 -0.6737
  182DOPC    HY22316   2.267   2.282  12.371  2.4718  0.5305  2.0896
  182DOPC   O3122317   2.260   2.171  12.551  0.4781  0.0762 -0.2468
  182DOPC   C3122318   2.377   2.219  12.578 -0.5628  0.0710 -0.0358
  182DOPC   O3222319   2.455   2.276  12.496  0.2133  0.1588 -0.3063
  182DOPC   C3222320   2.417   2.203  12.729 -0.0625 -0.3326  0.1366
  182DOPC   H2X22321   2.452   2.099  12.740  1.9966  0.1584 -1.0603
  182DOPC   H2Y22322   2.513   2.257  12.749  0.8071 -1.2897 -1.2273
  182DOPC   C2322323   2.289   1.709  12.624 -0.2427 -0.6375  0.3396
  182DOPC   H3R22324   2.387   1.735  12.668 -1.0894  2.9360  0.4075
  182DOPC   H3S22325   2.271   1.600  12.634 -0.0665 -0.9179 -1.9393
  182DOPC   C2422326   2.179   1.783  12.691  0.6496  0.1366  0.0295
  182DOPC   H4R22327   2.094   1.752  12.627  1.5453 -0.1754 -1.0306
  182DOPC   H4S22328   2.187   1.894  12.684  0.9888  0.1361  0.3657
  182DOPC   C2522329   2.152   1.740  12.836  0.5954 -0.0228  0.6448
  182DOPC   H5R22330   2.247   1.773  12.885  1.6106 -1.2503 -0.4275
  182DOPC   H5S22331   2.150   1.630  12.844  1.8231  0.0398  2.9750
  182DOPC   C2622332   2.024   1.809  12.887 -0.7632  0.6462 -0.4817
  182DOPC   H6R22333   1.938   1.740  12.899 -0.0301  0.0306  1.5784
  182DOPC   H6S22334   2.001   1.896  12.821 -1.7542 -1.7315 -3.5584
  182DOPC   C2722335   2.047   1.851  13.032 -1.1790 -0.0944 -0.1711
  182DOPC   H7R22336   2.129   1.927  13.031 -2.0672  0.8894  0.0766
  182DOPC   H7S22337   2.087   1.775  13.102  0.7670  0.7380 -0.2930
  182DOPC   C2822338   1.921   1.919  13.099  0.2787  0.2039 -0.1088
  182DOPC   H8R22339   1.884   2.001  13.033 -0.8766  0.3982  0.7653
  182DOPC   H8S22340   1.960   1.950  13.198 -2.8391  1.2213  0.9264
  182DOPC   C2922341   1.814   1.819  13.123  1.1938  0.2273 -0.8163
  182DOPC   H9R22342   1.757   1.783  13.036  0.0209 -0.7420  0.3034
  182DOPC  C21022343   1.773   1.761  13.238  0.0469 -0.4920  0.3608
  182DOPC  H10R22344   1.703   1.677  13.233 -1.0545  0.4406 -0.4613
  182DOPC  C21122345   1.829   1.779  13.375 -0.0051 -0.5358 -0.8517
  182DOPC  H11R22346   1.910   1.854  13.382 -1.9848  1.5616  1.8371
  182DOPC  H11S22347   1.884   1.686  13.401  2.4855  1.0420 -0.1439
  182DOPC  C21222348   1.720   1.801  13.473  0.9953  0.1797 -0.0432
  182DOPC  H12R22349   1.647   1.717  13.471  1.0710  0.1269 -1.9078
  182DOPC  H12S22350   1.676   1.901  13.456  1.9412  0.5610 -0.2990
  182DOPC  C21322351   1.785   1.793  13.614 -0.0321  0.1174 -0.2403
  182DOPC  H13R22352   1.867   1.867  13.601 -0.1811  0.5287  1.0633
  182DOPC  H13S22353   1.829   1.691  13.627 -0.6582  0.0780  1.9403
  182DOPC  C21422354   1.692   1.834  13.728  0.3557 -0.0948  0.1967
  182DOPC  H14R22355   1.618   1.752  13.717  1.8569 -1.4654 -0.1328
  182DOPC  H14S22356   1.635   1.928  13.712  1.5486  0.7563  0.8345
  182DOPC  C21522357   1.762   1.830  13.866 -0.0706  0.7594 -0.0475
  182DOPC  H15R22358   1.837   1.912  13.879  1.0005 -0.1351 -0.4914
  182DOPC  H15S22359   1.807   1.730  13.880 -2.3528 -0.4862 -1.2093
  182DOPC  C21622360   1.647   1.844  13.969 -0.2602  0.0452 -0.7956
  182DOPC  H16R22361   1.566   1.769  13.955 -2.4806  2.0740  0.3655
  182DOPC  H16S22362   1.598   1.943  13.958 -2.0514 -0.7627 -0.4272
  182DOPC  C21722363   1.690   1.838  14.118  0.0392 -0.7406  0.3651
  182DOPC  H17R22364   1.725   1.734  14.136  1.0373 -0.1638  1.9994
  182DOPC  H17S22365   1.597   1.860  14.174  1.0933 -1.1748  2.3687
  182DOPC  C21822366   1.796   1.936  14.159  0.2959  0.0407  0.2372
  182DOPC  H18R22367   1.814   1.935  14.268  2.7446  0.9957 -0.0770
  182DOPC  H18S22368   1.761   2.035  14.120  0.4938  0.6900  1.6497
  182DOPC  H18T22369   1.887   1.902  14.103 -0.6536 -3.0510  0.4092
  182DOPC   C3322370   2.307   2.253  12.820 -0.2071  0.0052 -0.2203
  182DOPC   H3X22371   2.213   2.199  12.797  0.5461 -0.4605 -2.4731
  182DOPC   H3Y22372   2.295   2.363  12.811 -0.7346 -0.0973 -0.7863
  182DOPC   C3422373   2.334   2.234  12.974  0.4260 -0.3699 -0.1631
  182DOPC   H4X22374   2.437   2.235  13.014  1.1893  1.7914 -1.9625
  182DOPC   H4Y22375   2.292   2.131  12.983 -2.8706  0.6645 -1.8334
  182DOPC   C3522376   2.234   2.317  13.066  0.5240  0.5471 -0.0975
  182DOPC   H5X22377   2.146   2.327  12.999 -0.1641 -0.4343  0.6299
  182DOPC   H5Y22378   2.287   2.414  13.076  1.0858  0.3669 -1.1859
  182DOPC   C3622379   2.198   2.274  13.213  0.2460  0.0432  0.6165
  182DOPC   H6X22380   2.142   2.178  13.211  2.7150 -1.5704  2.3804
  182DOPC   H6Y22381   2.295   2.246  13.259  1.6549 -1.4415 -2.8470
  182DOPC   C3722382   2.122   2.369  13.301 -0.4354 -0.4679 -0.2781
  182DOPC   H7X22383   2.176   2.466  13.298 -1.9464  0.4106 -2.2854
  182DOPC   H7Y22384   2.028   2.392  13.245  0.1708  0.0604 -1.0987
  182DOPC   C3822385   2.088   2.316  13.447  0.4237  0.3792 -0.0966
  182DOPC   H8X22386   2.042   2.404  13.496 -0.0126  0.8549 -1.3187
  182DOPC   H8Y22387   2.187   2.312  13.497  1.4078 -0.7799 -2.0351
  182DOPC   C3922388   1.998   2.192  13.467 -0.8611 -0.3394  0.5177
  182DOPC   H9X22389   1.961   2.145  13.375 -1.2938  1.6347 -0.3823
  182DOPC  C31022390   1.943   2.150  13.581  0.9192 -0.4797 -0.7275
  182DOPC  H10X22391   1.852   2.089  13.570  0.7712 -0.8274  1.7432
  182DOPC  C31122392   1.972   2.203  13.720  0.4855 -0.1233  0.0506
  182DOPC  H11X22393   2.061   2.270  13.722 -0.9013  2.0647 -3.4448
  182DOPC  H11Y22394   2.011   2.111  13.769  0.9230  0.6511  1.1807
  182DOPC  C31222395   1.858   2.260  13.810  0.1807  0.3231  0.4006
  182DOPC  H12X22396   1.795   2.174  13.842 -1.0508  0.1969 -2.1202
  182DOPC  H12Y22397   1.806   2.327  13.739 -0.4276 -1.8529 -1.3001
  182DOPC  C31322398   1.913   2.344  13.926  0.0127  1.0769 -0.2339
  182DOPC  H13X22399   1.953   2.438  13.883 -1.5772  1.9557  0.1579
  182DOPC  H13Y22400   1.830   2.374  13.993  2.3077  1.5589  2.6189
  182DOPC  C31422401   2.013   2.274  14.019  0.1501  0.5095  0.3548
  182DOPC  H14X22402   1.961   2.191  14.072  1.4516  0.2589  1.2670
  182DOPC  H14Y22403   2.098   2.222  13.970  0.2124  1.1129 -0.1932
  182DOPC  C31522404   2.084   2.358  14.124  0.1886 -0.2655 -0.0450
  182DOPC  H15X22405   2.135   2.439  14.067  1.8708 -1.8783 -0.9371
  182DOPC  H15Y22406   2.170   2.300  14.164  1.0607 -0.0426 -1.5300
  182DOPC  C31622407   1.989   2.398  14.232  0.1095 -0.0184  0.6628
  182DOPC  H16X22408   1.915   2.472  14.194 -0.4502 -1.0218 -0.2371
  182DOPC  H16Y22409   1.941   2.306  14.272 -1.3899  0.4186 -0.0612
  182DOPC  C31722410   2.055   2.474  14.355 -0.0664 -0.2183 -0.1318
  182DOPC  H17X22411   1.969   2.488  14.423  0.3650  0.7513  0.2405
  182DOPC  H17Y22412   2.131   2.410  14.405 -1.8487 -1.9370  0.4767
  182DOPC  C31822413   2.116   2.614  14.330  0.1699  0.1738 -0.3123
  182DOPC  H18X22414   2.174   2.621  14.236  0.3864  1.7502 -0.0949
  182DOPC  H18Y22415   2.033   2.687  14.320 -1.4479 -1.6838 -0.9068
  182DOPC  H18Z22416   2.186   2.647  14.410 -0.1681 -0.9144  0.4625
  183DOPC     N22417   6.232   4.029  11.479  0.6660  0.5306 -0.1630
  183DOPC   C1222418   6.206   4.172  11.520 -1.0056  0.1245 -0.5789
  183DOPC  H12A22419   6.231   4.189  11.623 -1.6920 -0.7647 -0.2525
  183DOPC  H12B22420   6.098   4.174  11.515 -1.2031 -2.7142  0.4976
  183DOPC   C1322421   6.188   3.998  11.338 -0.8505  0.5795  0.1791
  183DOPC  H13A22422   6.081   4.011  11.332 -0.7507  2.6184  1.6680
  183DOPC  H13B22423   6.229   4.078  11.277  0.1919 -1.2023 -1.6039
  183DOPC  H13C22424   6.223   3.898  11.319 -0.1991  0.4218  2.0571
  183DOPC   C1422425   6.157   3.930  11.560  0.2221 -0.5453  0.0688
  183DOPC  H14A22426   6.171   3.936  11.667 -2.0815 -3.1212  0.6145
  183DOPC  H14B22427   6.052   3.937  11.537  0.5343  0.3775 -1.1577
  183DOPC  H14C22428   6.188   3.829  11.536 -0.9445 -1.2943  1.5336
  183DOPC   C1522429   6.384   3.996  11.485  0.1653  0.2126  0.1272
  183DOPC  H15A22430   6.415   4.003  11.589 -1.4073 -1.8586  0.7933
  183DOPC  H15B22431   6.446   4.057  11.421  0.2743  2.7903  2.4985
  183DOPC  H15C22432   6.397   3.896  11.446  1.9698  1.6351 -3.3198
  183DOPC   C1122433   6.276   4.289  11.435 -0.3492 -0.4710  0.9635
  183DOPC  H11A22434   6.233   4.275  11.333 -1.6623 -0.4880  1.4900
  183DOPC  H11B22435   6.236   4.387  11.467 -0.0197 -0.0014 -0.0210
  183DOPC     P22436   6.513   4.341  11.537  0.2858  0.2411  0.4048
  183DOPC   O1322437   6.543   4.484  11.502  0.1478  0.0764  0.2823
  183DOPC   O1422438   6.630   4.250  11.551 -0.1127  0.1941 -0.1689
  183DOPC   O1222439   6.421   4.276  11.428 -0.6357 -0.3244 -0.3570
  183DOPC   O1122440   6.430   4.343  11.672  0.2263  0.6574 -0.3128
  183DOPC    C122441   6.461   4.243  11.770  0.7322 -0.4870 -0.5524
  183DOPC    HA22442   6.474   4.139  11.731  0.1756  0.0500 -2.2444
  183DOPC    HB22443   6.366   4.235  11.827  0.3474 -0.1479 -1.1413
  183DOPC    C222444   6.566   4.279  11.878  0.6618  0.5891 -0.2669
  183DOPC    HS22445   6.657   4.224  11.849 -0.4109 -3.5453  3.1030
  183DOPC   O2122446   6.524   4.232  12.005 -0.0842  0.3039  0.2063
  183DOPC   C2122447   6.624   4.200  12.088  0.4345  0.9458 -0.2297
  183DOPC   O2222448   6.743   4.218  12.068 -0.0132  0.7386 -0.4874
  183DOPC   C2222449   6.572   4.160  12.228  0.4088 -0.1795 -0.6114
  183DOPC   H2R22450   6.647   4.092  12.273 -0.6988  0.0206  1.6919
  183DOPC   H2S22451   6.484   4.092  12.224  1.8100 -2.0204 -1.6087
  183DOPC    C322452   6.583   4.440  11.891 -0.3058 -0.3962 -0.0914
  183DOPC    HX22453   6.482   4.487  11.888 -0.5449 -0.9433 -1.3567
  183DOPC    HY22454   6.616   4.479  11.792  0.7280 -3.5190 -1.0946
  183DOPC   O3122455   6.658   4.485  12.003 -0.2834 -0.0419 -0.0889
  183DOPC   C3122456   6.778   4.527  11.971  0.2476 -0.8904  0.0875
  183DOPC   O3222457   6.826   4.530  11.859  0.0213  0.1709 -0.4563
  183DOPC   C3222458   6.853   4.564  12.098  0.1087 -0.4790  0.4975
  183DOPC   H2X22459   6.789   4.543  12.186  1.7040 -2.2980  1.2866
  183DOPC   H2Y22460   6.937   4.491  12.102  0.9234  0.4642  0.9576
  183DOPC   C2322461   6.580   4.286  12.314  0.2615 -0.1940 -0.5773
  183DOPC   H3R22462   6.504   4.360  12.282  2.0575  1.6007 -0.9232
  183DOPC   H3S22463   6.680   4.334  12.312  0.1622  0.1261  0.9569
  183DOPC   C2422464   6.566   4.242  12.456 -0.8278 -0.4681 -0.3272
  183DOPC   H4R22465   6.644   4.173  12.491  0.5390  1.5739  0.8473
  183DOPC   H4S22466   6.466   4.194  12.466 -0.8995 -1.1406 -3.2524
  183DOPC   C2522467   6.566   4.364  12.549 -0.3318 -0.1950  0.9529
  183DOPC   H5R22468   6.491   4.432  12.505  0.6292  1.2348  1.4582
  183DOPC   H5S22469   6.663   4.417  12.556  0.4870 -1.3841 -0.6841
  183DOPC   C2622470   6.516   4.339  12.697  1.0642  0.0783  0.0116
  183DOPC   H6R22471   6.583   4.257  12.731 -1.6904 -2.0940  0.5325
  183DOPC   H6S22472   6.415   4.292  12.700  3.0414 -4.6305  0.8979
  183DOPC   C2722473   6.514   4.455  12.796 -0.2024  0.6241  0.1775
  183DOPC   H7R22474   6.430   4.521  12.765  0.0968  0.6479 -0.6172
  183DOPC   H7S22475   6.606   4.517  12.790 -0.9709  1.8664  0.8181
  183DOPC   C2822476   6.491   4.410  12.942  0.5326  0.0114 -0.1894
  183DOPC   H8R22477   6.581   4.355  12.976  1.4031  1.7512  0.4357
  183DOPC   H8S22478   6.402   4.344  12.951  1.5617 -1.1764  2.3970
  183DOPC   C2922479   6.473   4.535  13.029  0.0597  0.3857  0.3446
  183DOPC   H9R22480   6.406   4.614  12.992 -0.0179 -0.3301 -1.1089
  183DOPC  C21022481   6.541   4.560  13.144 -0.6033 -0.1494 -0.3268
  183DOPC  H10R22482   6.535   4.656  13.197  0.4351 -0.4571  0.3746
  183DOPC  C21122483   6.640   4.466  13.208 -0.5326  0.1821  0.6023
  183DOPC  H11R22484   6.708   4.523  13.275  1.3685  2.0461 -2.6462
  183DOPC  H11S22485   6.712   4.419  13.137 -0.1381  1.8854 -0.1654
  183DOPC  C21222486   6.567   4.357  13.290  0.9584  0.7178 -0.1523
  183DOPC  H12R22487   6.648   4.296  13.335 -0.7009 -1.2176  0.3870
  183DOPC  H12S22488   6.516   4.283  13.224  2.8611 -0.3254 -0.5130
  183DOPC  C21322489   6.470   4.397  13.405  0.0822  0.3691 -0.4789
  183DOPC  H13R22490   6.417   4.310  13.451  0.2676  0.5945  0.1750
  183DOPC  H13S22491   6.390   4.461  13.362 -0.8788  0.2071  0.9724
  183DOPC  C21422492   6.532   4.476  13.518 -1.2991  0.2361  0.5789
  183DOPC  H14R22493   6.602   4.552  13.476  0.3158 -0.1376  2.4012
  183DOPC  H14S22494   6.596   4.403  13.573 -2.2579 -1.2684 -0.2513
  183DOPC  C21522495   6.430   4.532  13.621 -0.0815 -0.2492 -0.1652
  183DOPC  H15R22496   6.335   4.552  13.568  0.5379  1.3236 -0.7327
  183DOPC  H15S22497   6.467   4.634  13.648 -2.0561  0.8721 -1.4553
  183DOPC  C21622498   6.424   4.440  13.744 -0.5604  0.5454 -0.3155
  183DOPC  H16R22499   6.529   4.437  13.782 -0.6247  0.0250 -0.1785
  183DOPC  H16S22500   6.402   4.335  13.716 -0.9897  0.3635  0.6681
  183DOPC  C21722501   6.334   4.483  13.861  0.4816  0.2281 -0.0599
  183DOPC  H17R22502   6.229   4.490  13.826  0.4419 -1.9996 -0.4885
  183DOPC  H17S22503   6.358   4.585  13.899 -1.1140  0.3797  0.6527
  183DOPC  C21822504   6.348   4.382  13.980  0.2920 -0.3856 -0.3197
  183DOPC  H18R22505   6.299   4.284  13.962 -0.8398  0.3616 -1.5196
  183DOPC  H18S22506   6.299   4.429  14.068 -1.5662  1.1820 -2.0790
  183DOPC  H18T22507   6.455   4.363  14.004  0.9141  2.6844 -0.2079
  183DOPC   C3322508   6.928   4.698  12.077 -0.0779 -0.3555 -0.6420
  183DOPC   H3X22509   6.869   4.770  12.017 -0.0710 -0.0689 -0.3099
  183DOPC   H3Y22510   7.015   4.688  12.009  0.2706  1.5740 -0.5212
  183DOPC   C3422511   6.948   4.763  12.217 -0.2216  0.5193  0.5264
  183DOPC   H4X22512   6.980   4.868  12.201 -0.6156  0.6939  0.8457
  183DOPC   H4Y22513   7.022   4.705  12.276 -2.1464 -0.8989  1.6552
  183DOPC   C3522514   6.823   4.777  12.307 -0.0821 -0.0479 -0.4837
  183DOPC   H5X22515   6.790   4.675  12.337 -1.0387  0.4849  0.3624
  183DOPC   H5Y22516   6.750   4.838  12.248  0.3527 -0.7512 -1.7820
  183DOPC   C3622517   6.857   4.853  12.440 -0.5158 -0.5676 -0.0216
  183DOPC   H6X22518   6.956   4.818  12.477 -1.4061 -2.7521  0.4260
  183DOPC   H6Y22519   6.865   4.960  12.411  0.2253 -1.2702 -2.6010
  183DOPC   C3722520   6.758   4.845  12.558  0.2498  0.6959  0.4229
  183DOPC   H7X22521   6.658   4.885  12.531 -0.3160 -0.3170  0.9664
  183DOPC   H7Y22522   6.745   4.735  12.566  2.4778  0.3730  0.2060
  183DOPC   C3822523   6.823   4.891  12.687 -0.0618 -0.2842  0.0319
  183DOPC   H8X22524   6.858   4.994  12.665 -0.9969 -0.1578 -0.9399
  183DOPC   H8Y22525   6.907   4.820  12.707 -0.7773 -1.6449 -1.5022
  183DOPC   C3922526   6.722   4.891  12.801 -0.0737  0.5913 -0.1768
  183DOPC   H9X22527   6.627   4.938  12.770  0.3673  2.6451  1.4261
  183DOPC  C31022528   6.730   4.828  12.916  0.3592  0.1446 -0.0250
  183DOPC  H10X22529   6.651   4.854  12.988 -0.1174  3.2515 -1.4921
  183DOPC  C31122530   6.861   4.776  12.974 -0.3738 -0.0972 -0.5794
  183DOPC  H11X22531   6.952   4.787  12.911  0.3965  0.5166  0.5882
  183DOPC  H11Y22532   6.860   4.668  13.002  1.1235 -0.1661 -0.7283
  183DOPC  C31222533   6.889   4.858  13.104  0.0683  0.0833 -0.0015
  183DOPC  H12X22534   6.868   4.965  13.083  2.4627  0.4371 -0.9270
  183DOPC  H12Y22535   6.995   4.844  13.134  0.1736 -0.7092 -0.7195
  183DOPC  C31322536   6.805   4.825  13.230  0.2946 -0.7589 -0.0515
  183DOPC  H13X22537   6.697   4.844  13.210  0.2783 -1.3798 -0.5724
  183DOPC  H13Y22538   6.816   4.721  13.266  0.8907 -0.1934  1.4944
  183DOPC  C31422539   6.846   4.927  13.339 -0.0107  0.0556 -0.7885
  183DOPC  H14X22540   6.944   4.893  13.379 -0.4117 -0.0039  0.1717
  183DOPC  H14Y22541   6.864   5.028  13.296  2.6940  0.7196  1.5982
  183DOPC  C31522542   6.744   4.948  13.452 -0.0265  0.3267  0.1722
  183DOPC  H15X22543   6.726   4.855  13.509 -1.9199  0.4585 -0.1692
  183DOPC  H15Y22544   6.643   4.969  13.412  0.1369  0.3347 -0.2460
  183DOPC  C31622545   6.786   5.066  13.540 -0.7059 -0.7078  0.1950
  183DOPC  H16X22546   6.897   5.070  13.546 -0.4966 -0.1788 -2.6691
  183DOPC  H16Y22547   6.753   5.162  13.494 -2.6158 -1.6163 -0.4547
  183DOPC  C31722548   6.719   5.077  13.680  0.0133  0.3705 -0.5495
  183DOPC  H17X22549   6.733   5.177  13.726  2.0126  0.0703 -0.4111
  183DOPC  H17Y22550   6.612   5.059  13.660 -0.5475  3.0270 -0.2434
  183DOPC  C31822551   6.769   4.984  13.795 -0.4251  0.1680  0.2942
  183DOPC  H18X22552   6.860   5.032  13.835 -0.0909 -0.4834  0.3360
  183DOPC  H18Y22553   6.702   4.979  13.883  0.8945  0.0381  1.3325
  183DOPC  H18Z22554   6.783   4.888  13.740  0.4845 -0.2440  1.2165
  184DOPC     N22555   3.844   1.223  11.458 -0.1179 -0.6294  0.1749
  184DOPC   C1222556   3.838   1.313  11.582  0.3581  0.7606 -0.2002
  184DOPC  H12A22557   3.766   1.272  11.652  1.6745 -0.0104  0.7492
  184DOPC  H12B22558   3.811   1.413  11.553  1.6992  0.5786 -2.2520
  184DOPC   C1322559   3.940   1.283  11.351  0.0540 -0.2015  0.3803
  184DOPC  H13A22560   4.038   1.294  11.395  0.4107 -0.1032 -0.4072
  184DOPC  H13B22561   3.951   1.218  11.266 -3.8637 -0.1422 -0.3757
  184DOPC  H13C22562   3.902   1.377  11.314  1.8155  0.5743  0.4567
  184DOPC   C1422563   3.704   1.198  11.408  0.1205  0.6848  0.2134
  184DOPC  H14A22564   3.699   1.117  11.337  0.4035  0.5046  0.3959
  184DOPC  H14B22565   3.641   1.173  11.491 -2.0540 -0.0619 -1.5690
  184DOPC  H14C22566   3.662   1.280  11.351 -1.2352 -0.6384 -0.7594
  184DOPC   C1522567   3.915   1.102  11.504  0.1542  0.0746  0.9163
  184DOPC  H15A22568   4.011   1.134  11.541  0.1172 -2.2067  3.2657
  184DOPC  H15B22569   3.926   1.026  11.428 -0.5860  3.8253 -3.3673
  184DOPC  H15C22570   3.861   1.069  11.592  0.9583 -1.3847  0.8948
  184DOPC   C1122571   3.966   1.319  11.674 -0.1021  0.5276 -0.0304
  184DOPC  H11A22572   3.963   1.403  11.747 -3.5002 -0.4410  1.1204
  184DOPC  H11B22573   3.959   1.230  11.740 -0.3566 -0.0106 -0.7677
  184DOPC     P22574   4.202   1.415  11.612  0.0296  0.4186  0.2707
  184DOPC   O1322575   4.145   1.545  11.578  0.8563 -0.1347  0.1554
  184DOPC   O1422576   4.319   1.370  11.533 -0.2360 -0.0903 -1.1726
  184DOPC   O1222577   4.089   1.310  11.600  0.4469  0.7686 -0.0008
  184DOPC   O1122578   4.241   1.419  11.760  0.0144 -0.2451 -0.1438
  184DOPC    C122579   4.222   1.324  11.869  0.3675  0.1454 -0.2134
  184DOPC    HA22580   4.177   1.227  11.838  0.4492  0.4950 -1.5120
  184DOPC    HB22581   4.157   1.368  11.947 -0.0163 -0.2185 -0.3240
  184DOPC    C222582   4.355   1.277  11.925 -0.0605 -0.5661 -0.0026
  184DOPC    HS22583   4.327   1.201  12.001 -1.6734 -1.2659 -1.2349
  184DOPC   O2122584   4.438   1.379  11.987  0.3476  0.4940  0.4956
  184DOPC   C2122585   4.390   1.415  12.108  0.3615 -0.2367  0.1478
  184DOPC   O2222586   4.290   1.363  12.161 -0.4847  0.1558 -0.2898
  184DOPC   C2222587   4.486   1.514  12.177 -0.0887 -0.4535  0.2390
  184DOPC   H2R22588   4.501   1.603  12.114  0.2841 -0.7811 -0.1386
  184DOPC   H2S22589   4.587   1.468  12.187 -1.0077 -2.6783  0.0197
  184DOPC    C322590   4.437   1.200  11.815  0.1856  0.1075  0.7602
  184DOPC    HX22591   4.485   1.269  11.742 -0.3099  1.3171  1.5414
  184DOPC    HY22592   4.363   1.141  11.757  2.0101 -0.4873 -1.0635
  184DOPC   O3122593   4.543   1.131  11.878 -0.4352  0.3998  0.4779
  184DOPC   C3122594   4.523   1.006  11.906  0.6396 -0.0342 -0.2859
  184DOPC   O3222595   4.438   0.933  11.854  0.3420 -0.3741  0.3605
  184DOPC   C3222596   4.609   0.985  12.038 -0.3248  0.0042 -0.1312
  184DOPC   H2X22597   4.574   0.891  12.085  2.4303 -0.8610  0.3702
  184DOPC   H2Y22598   4.715   0.967  12.010 -0.2833  0.9460 -0.6191
  184DOPC   C2322599   4.417   1.584  12.294  0.1592 -0.2464 -0.3589
  184DOPC   H3R22600   4.311   1.610  12.272  0.7711  0.8796 -2.1306
  184DOPC   H3S22601   4.462   1.684  12.314 -0.8563  0.5184 -1.7184
  184DOPC   C2422602   4.429   1.495  12.427 -0.1884  0.0179  0.6821
  184DOPC   H4R22603   4.534   1.460  12.416 -0.8033 -1.6472 -0.1920
  184DOPC   H4S22604   4.361   1.408  12.415  0.7895 -0.8762  1.5069
  184DOPC   C2522605   4.389   1.579  12.549  0.2673  0.2767 -0.3329
  184DOPC   H5R22606   4.283   1.613  12.546  0.4561  0.7923 -2.8702
  184DOPC   H5S22607   4.446   1.674  12.553  0.5560  0.0866  0.1041
  184DOPC   C2622608   4.415   1.512  12.684 -0.8094  0.0482  0.0804
  184DOPC   H6R22609   4.523   1.490  12.701 -0.6033  0.7316 -0.2690
  184DOPC   H6S22610   4.358   1.419  12.704 -2.1166  0.3291 -2.0805
  184DOPC   C2722611   4.365   1.602  12.805  0.0261 -0.4120 -0.7308
  184DOPC   H7R22612   4.260   1.629  12.781 -0.3049 -0.9892  0.0217
  184DOPC   H7S22613   4.416   1.700  12.816  2.5426 -1.7325  0.3669
  184DOPC   C2822614   4.348   1.535  12.945 -0.6006 -0.1504  0.2778
  184DOPC   H8R22615   4.283   1.445  12.938 -1.2597  0.3527 -0.3543
  184DOPC   H8S22616   4.300   1.613  13.009 -2.2819 -0.5570 -0.4128
  184DOPC   C2922617   4.480   1.500  13.000  0.3441  0.6502  0.4073
  184DOPC   H9R22618   4.558   1.471  12.928  0.3005 -0.7034  0.8699
  184DOPC  C21022619   4.532   1.522  13.122  0.2162 -0.5656  0.3933
  184DOPC  H10R22620   4.634   1.486  13.142  1.8569  2.4666 -1.6470
  184DOPC  C21122621   4.458   1.593  13.231 -0.6809  0.0857 -0.2591
  184DOPC  H11R22622   4.365   1.639  13.192 -1.4418 -2.8973 -2.4133
  184DOPC  H11S22623   4.523   1.674  13.269 -1.0390  0.4437 -0.4011
  184DOPC  C21222624   4.414   1.511  13.360 -0.3411 -0.2087 -0.4133
  184DOPC  H12R22625   4.372   1.412  13.332  1.4239 -1.1374  0.0764
  184DOPC  H12S22626   4.339   1.571  13.415 -0.8747 -2.4068  1.4203
  184DOPC  C21322627   4.534   1.481  13.457 -0.1196 -0.7798 -0.1325
  184DOPC  H13R22628   4.572   1.582  13.484 -2.2268  0.4340 -1.4460
  184DOPC  H13S22629   4.616   1.432  13.400 -0.4242 -0.5209 -0.8019
  184DOPC  C21422630   4.506   1.415  13.586  0.9812 -0.0611 -0.6182
  184DOPC  H14R22631   4.601   1.421  13.642  0.6646  0.5753 -0.1366
  184DOPC  H14S22632   4.485   1.308  13.567 -2.8259  0.7652 -2.1988
  184DOPC  C21522633   4.393   1.472  13.675 -0.4854 -0.4357 -0.8882
  184DOPC  H15R22634   4.296   1.479  13.622 -2.0250 -0.6900  1.7852
  184DOPC  H15S22635   4.421   1.579  13.692 -1.1902 -0.3822 -0.0320
  184DOPC  C21622636   4.369   1.389  13.806 -0.5220  0.1147 -0.5169
  184DOPC  H16R22637   4.461   1.366  13.863 -0.5125  1.0839 -0.1087
  184DOPC  H16S22638   4.319   1.295  13.775  0.1765 -0.9628  1.4711
  184DOPC  C21722639   4.286   1.467  13.904  0.0422  0.4069 -0.2622
  184DOPC  H17R22640   4.195   1.503  13.852 -1.1905 -1.5724  0.3822
  184DOPC  H17S22641   4.336   1.558  13.944  0.6658 -0.2752  0.5556
  184DOPC  C21822642   4.232   1.381  14.028  0.1903 -0.2206 -0.3859
  184DOPC  H18R22643   4.197   1.454  14.104 -0.9959  0.3545 -1.4333
  184DOPC  H18S22644   4.320   1.328  14.070  0.1679  0.0526  0.0128
  184DOPC  H18T22645   4.149   1.311  14.005  1.5306 -2.8932  2.3116
  184DOPC   C3322646   4.603   1.107  12.132 -0.5669 -0.4583 -0.0958
  184DOPC   H3X22647   4.500   1.124  12.170 -0.6990 -0.0882 -0.6124
  184DOPC   H3Y22648   4.640   1.200  12.085  1.6600 -1.7413 -1.0413
  184DOPC   C3422649   4.699   1.084  12.254  0.3018  0.0116 -0.5163
  184DOPC   H4X22650   4.801   1.079  12.211  1.1337 -0.6015  1.4107
  184DOPC   H4Y22651   4.672   0.985  12.297  0.2892  0.6763  1.0988
  184DOPC   C3522652   4.700   1.190  12.366  0.2100 -0.9986  0.3061
  184DOPC   H5X22653   4.595   1.218  12.388  0.4149  0.5896 -0.6155
  184DOPC   H5Y22654   4.757   1.278  12.330 -0.0939 -0.2088  1.7002
  184DOPC   C3622655   4.760   1.124  12.488 -0.2000  0.6765 -0.4291
  184DOPC   H6X22656   4.728   1.018  12.500 -1.4411  0.7843 -2.2995
  184DOPC   H6Y22657   4.871   1.128  12.486 -0.0497 -1.8619 -1.9162
  184DOPC   C3722658   4.713   1.199  12.614  0.0829  0.1484  1.5066
  184DOPC   H7X22659   4.758   1.301  12.613  1.3154 -0.2638 -2.5872
  184DOPC   H7Y22660   4.604   1.201  12.595  0.0329 -2.7207  1.0835
  184DOPC   C3822661   4.730   1.126  12.745  0.3287 -0.3017  0.8115
  184DOPC   H8X22662   4.840   1.111  12.755  0.3505 -1.4995 -0.8339
  184DOPC   H8Y22663   4.695   1.021  12.738  0.2951 -0.2139 -0.7660
  184DOPC   C3922664   4.664   1.193  12.862  0.2504  0.2135 -0.4316
  184DOPC   H9X22665   4.556   1.208  12.849  0.2390  0.4266 -0.1003
  184DOPC  C31022666   4.729   1.244  12.972 -0.2752  0.5107  0.0282
  184DOPC  H10X22667   4.677   1.300  13.051 -1.9483  0.6465 -1.1246
  184DOPC  C31122668   4.880   1.223  12.989  0.0913  0.5359  0.5356
  184DOPC  H11X22669   4.926   1.287  12.911 -1.6941  0.8944 -0.2736
  184DOPC  H11Y22670   4.902   1.117  12.961 -0.5043  1.0427 -2.1911
  184DOPC  C31222671   4.924   1.261  13.132  0.0794 -0.2241 -0.0005
  184DOPC  H12X22672   4.882   1.360  13.162  2.1135  0.9328 -0.7613
  184DOPC  H12Y22673   5.034   1.271  13.128 -0.0557  1.7152 -0.1775
  184DOPC  C31322674   4.881   1.161  13.237  0.8802 -0.2140 -0.7370
  184DOPC  H13X22675   4.772   1.139  13.240  0.6881  0.7180  1.7738
  184DOPC  H13Y22676   4.927   1.061  13.227 -0.9265 -0.9089 -2.9820
  184DOPC  C31422677   4.915   1.217  13.379  0.1911 -0.6450  0.5106
  184DOPC  H14X22678   5.025   1.205  13.375  0.6201  2.6845 -1.7231
  184DOPC  H14Y22679   4.903   1.327  13.390 -0.8655 -0.8430  1.5675
  184DOPC  C31522680   4.853   1.139  13.497 -0.1801  0.1218  0.7061
  184DOPC  H15X22681   4.889   1.034  13.508  0.0008  0.4342  4.2844
  184DOPC  H15Y22682   4.747   1.135  13.463  0.0878 -1.1361 -0.0454
  184DOPC  C31622683   4.863   1.213  13.628 -0.1671  0.0089 -0.1028
  184DOPC  H16X22684   4.969   1.198  13.656 -1.0163 -1.7880  2.6224
  184DOPC  H16Y22685   4.857   1.323  13.617  3.8927  0.3939  0.1453
  184DOPC  C31722686   4.773   1.155  13.736  0.3265 -1.1854  0.3623
  184DOPC  H17X22687   4.668   1.149  13.700 -0.0513  1.3512  0.8617
  184DOPC  H17Y22688   4.804   1.049  13.744  0.2253 -1.1610  1.1221
  184DOPC  C31822689   4.758   1.220  13.878 -0.2213  0.1818  0.0242
  184DOPC  H18X22690   4.710   1.152  13.952  1.0658 -1.8184 -0.8973
  184DOPC  H18Y22691   4.864   1.235  13.908  0.4496 -1.8701 -1.1114
  184DOPC  H18Z22692   4.708   1.318  13.865 -0.0302  0.5476  1.7921
  185DOPC     N22693   0.013   5.626  11.337  1.0058  1.1488  0.1294
  185DOPC   C1222694  -0.056   5.684  11.458  0.0466 -0.0979  0.0747
  185DOPC  H12A22695  -0.101   5.777  11.427  2.1671  1.1144  0.4606
  185DOPC  H12B22696   0.018   5.704  11.533 -0.9889 -0.0109  1.1003
  185DOPC   C1322697  -0.093   5.598  11.231 -0.2652  0.6470  0.7866
  185DOPC  H13A22698  -0.180   5.552  11.275 -0.6027  0.0134 -0.4931
  185DOPC  H13B22699  -0.117   5.691  11.182 -2.2990  0.6412  1.6865
  185DOPC  H13C22700  -0.058   5.534  11.151 -1.7082  0.7306  0.0531
  185DOPC   C1422701   0.073   5.494  11.370 -0.1930  0.4517 -0.2150
  185DOPC  H14A22702   0.147   5.473  11.294  0.7449  0.7060  0.5990
  185DOPC  H14B22703   0.128   5.494  11.463 -2.7132 -0.2455  1.3629
  185DOPC  H14C22704   0.002   5.413  11.376 -0.4752  0.6546 -0.6957
  185DOPC   C1522705   0.126   5.717  11.294 -0.3899  0.4260  0.9016
  185DOPC  H15A22706   0.189   5.668  11.221 -0.4661  0.4799  0.8006
  185DOPC  H15B22707   0.188   5.738  11.380  0.9547 -0.1589  0.1185
  185DOPC  H15C22708   0.085   5.808  11.254 -0.2343  0.1498  0.1018
  185DOPC   C1122709  -0.168   5.597  11.522 -0.9107  0.0521  0.2242
  185DOPC  H11A22710  -0.130   5.495  11.546  0.9335  0.7779  0.5870
  185DOPC  H11B22711  -0.182   5.636  11.625  3.0468  2.1526  0.1644
  185DOPC     P22712  -0.401   5.701  11.465  0.1357  0.3353  0.3707
  185DOPC   O1322713  -0.517   5.643  11.388 -0.2180  0.2024 -0.1018
  185DOPC   O1422714  -0.358   5.838  11.428  0.8168  0.0514 -0.6943
  185DOPC   O1222715  -0.284   5.592  11.444 -0.3313  0.3692 -0.0393
  185DOPC   O1122716  -0.439   5.682  11.621 -0.0392 -0.0161 -0.3132
  185DOPC    C122717  -0.473   5.549  11.667 -0.2437  0.6556  0.7178
  185DOPC    HA22718  -0.394   5.473  11.647 -2.2431 -1.7764  1.5035
  185DOPC    HB22719  -0.562   5.503  11.619  1.3548 -1.8714 -0.0521
  185DOPC    C222720  -0.493   5.544  11.817 -0.9464 -0.3095  0.5787
  185DOPC    HS22721  -0.524   5.442  11.848 -0.6473 -1.0637 -1.4278
  185DOPC   O2122722  -0.597   5.640  11.846 -0.5744  0.2391 -0.3175
  185DOPC   C2122723  -0.686   5.601  11.943 -0.9794 -0.8866 -0.2437
  185DOPC   O2222724  -0.676   5.502  12.011  0.1238  0.1780 -0.6536
  185DOPC   C2222725  -0.796   5.717  11.956  0.4949 -0.9269 -0.1544
  185DOPC   H2R22726  -0.886   5.699  11.893  0.0807  0.0456  0.1438
  185DOPC   H2S22727  -0.755   5.817  11.931  2.1860 -0.9123  2.3826
  185DOPC    C322728  -0.359   5.585  11.883  0.5384 -0.2996 -0.1891
  185DOPC    HX22729  -0.325   5.681  11.839  0.1530 -1.7315 -3.9615
  185DOPC    HY22730  -0.286   5.510  11.847 -1.1825 -1.2382 -1.9387
  185DOPC   O3122731  -0.372   5.589  12.024  0.3078  0.2719  0.4848
  185DOPC   C3122732  -0.376   5.482  12.095 -0.0194 -0.0537  0.0552
  185DOPC   O3222733  -0.381   5.364  12.060 -0.2491  0.6211 -0.6836
  185DOPC   C3222734  -0.372   5.530  12.243  0.3875 -0.5424  0.2391
  185DOPC   H2X22735  -0.268   5.561  12.267 -0.0321  0.3851  0.9124
  185DOPC   H2Y22736  -0.440   5.617  12.253  1.4000  0.0646  2.3248
  185DOPC   C2322737  -0.847   5.737  12.094  0.0408 -0.3491 -0.1148
  185DOPC   H3R22738  -0.769   5.742  12.173 -1.0806 -0.6617  1.0482
  185DOPC   H3S22739  -0.911   5.648  12.114  0.7991 -0.8364  0.1714
  185DOPC   C2422740  -0.932   5.864  12.108  0.1713  0.7438 -0.4109
  185DOPC   H4R22741  -1.002   5.876  12.023  0.0402  0.9798 -0.2694
  185DOPC   H4S22742  -0.866   5.953  12.117  0.4193  0.3749  2.4546
  185DOPC   C2522743  -1.012   5.852  12.244  0.2749  0.3215  0.1235
  185DOPC   H5R22744  -1.067   5.755  12.251  2.0654 -0.7139  0.3941
  185DOPC   H5S22745  -1.099   5.919  12.226 -0.8083 -1.5129 -1.8592
  185DOPC   C2622746  -0.933   5.869  12.371 -0.4368 -0.8268 -0.2611
  185DOPC   H6R22747  -0.887   5.970  12.371 -1.6517 -0.1122  3.0922
  185DOPC   H6S22748  -0.847   5.800  12.371 -1.0074 -1.5508 -0.8853
  185DOPC   C2722749  -1.019   5.840  12.499 -0.6219  0.3753 -0.5030
  185DOPC   H7R22750  -1.019   5.731  12.521  0.6335  0.6869  1.2952
  185DOPC   H7S22751  -1.124   5.872  12.485 -0.0345  2.3102 -0.8230
  185DOPC   C2822752  -0.965   5.916  12.621 -0.1743  0.7466  0.1984
  185DOPC   H8R22753  -1.032   5.891  12.707  1.3787 -2.0804  0.7273
  185DOPC   H8S22754  -0.958   6.027  12.618 -0.9074  0.7677 -1.1819
  185DOPC   C2922755  -0.831   5.853  12.653  0.3463 -0.6983  0.1958
  185DOPC   H9R22756  -0.758   5.855  12.570  0.5077 -2.5734  0.2562
  185DOPC  C21022757  -0.791   5.808  12.774 -0.1126  0.1641 -0.9014
  185DOPC  H10R22758  -0.686   5.775  12.774 -0.2420 -0.2622 -1.5425
  185DOPC  C21122759  -0.869   5.795  12.901 -0.4381  0.1045 -1.3034
  185DOPC  H11R22760  -0.906   5.690  12.912  3.4774 -1.4794 -1.7820
  185DOPC  H11S22761  -0.958   5.861  12.899 -0.8260 -0.2687  0.9517
  185DOPC  C21222762  -0.776   5.834  13.020 -0.2535 -0.3241 -0.0783
  185DOPC  H12R22763  -0.768   5.944  13.025 -1.0414 -0.1798 -1.5554
  185DOPC  H12S22764  -0.682   5.774  13.018 -0.7485 -1.1019 -0.7516
  185DOPC  C21322765  -0.848   5.806  13.156  0.4676 -0.0713  0.3102
  185DOPC  H13R22766  -0.871   5.698  13.163  1.2436 -0.3052 -0.5348
  185DOPC  H13S22767  -0.941   5.867  13.155  1.1048  0.9513  1.1049
  185DOPC  C21422768  -0.769   5.850  13.275  0.9887  0.4045  0.2964
  185DOPC  H14R22769  -0.759   5.961  13.280  0.0824  0.4807  0.6555
  185DOPC  H14S22770  -0.665   5.810  13.276  1.2354  0.9887  1.8216
  185DOPC  C21522771  -0.840   5.800  13.405 -0.2997  0.6504  0.1306
  185DOPC  H15R22772  -0.881   5.698  13.392 -1.0444  0.8350  0.9226
  185DOPC  H15S22773  -0.925   5.868  13.427  0.2624  1.3996  0.0423
  185DOPC  C21622774  -0.750   5.796  13.529 -0.0845  0.5682 -0.3072
  185DOPC  H16R22775  -0.692   5.889  13.545 -1.2487  1.3498 -0.5302
  185DOPC  H16S22776  -0.678   5.716  13.499  0.1623  0.8983 -0.6020
  185DOPC  C21722777  -0.823   5.751  13.657  0.2874  0.2162  0.0468
  185DOPC  H17R22778  -0.889   5.663  13.640  1.1466 -0.5027  0.3142
  185DOPC  H17S22779  -0.889   5.837  13.681  0.4495  0.9708 -2.0392
  185DOPC  C21822780  -0.727   5.714  13.773 -0.1726 -0.1713  0.1217
  185DOPC  H18R22781  -0.669   5.803  13.806 -0.5816  0.1834 -0.1075
  185DOPC  H18S22782  -0.653   5.641  13.735  0.0683  0.8794 -1.5092
  185DOPC  H18T22783  -0.785   5.666  13.855 -1.9411  2.0677  0.2790
  185DOPC   C3322784  -0.399   5.427  12.359 -0.2352 -0.2218  0.0335
  185DOPC   H3X22785  -0.321   5.453  12.433 -0.1951 -0.6445  0.1414
  185DOPC   H3Y22786  -0.380   5.322  12.326 -2.2926 -0.8399  0.6200
  185DOPC   C3422787  -0.528   5.435  12.436  0.0912  0.3249 -0.3451
  185DOPC   H4X22788  -0.606   5.398  12.366 -1.6652  0.0623  1.6611
  185DOPC   H4Y22789  -0.559   5.540  12.459 -2.0051 -0.2625 -0.2837
  185DOPC   C3522790  -0.531   5.352  12.563  0.2182  0.3313 -0.3390
  185DOPC   H5X22791  -0.475   5.260  12.536 -0.4143 -0.5657  1.2582
  185DOPC   H5Y22792  -0.633   5.324  12.599  0.9706 -1.1954  0.6881
  185DOPC   C3622793  -0.457   5.412  12.671 -0.5414 -0.3648 -0.0114
  185DOPC   H6X22794  -0.350   5.420  12.642 -0.6481 -0.5132 -0.4592
  185DOPC   H6Y22795  -0.490   5.510  12.710  0.9014 -0.6925  2.2663
  185DOPC   C3722796  -0.460   5.330  12.802  0.1336 -0.0601 -0.0545
  185DOPC   H7X22797  -0.542   5.257  12.792  2.4478 -3.0876  1.5098
  185DOPC   H7Y22798  -0.367   5.270  12.809  1.8881  2.4572 -0.4051
  185DOPC   C3822799  -0.484   5.404  12.938 -0.6135  0.1555  0.0072
  185DOPC   H8X22800  -0.417   5.493  12.945 -0.5276  0.1071 -0.1850
  185DOPC   H8Y22801  -0.450   5.340  13.022 -0.1579  0.7934  0.3202
  185DOPC   C3922802  -0.634   5.434  12.960  0.0968  0.1904  0.3151
  185DOPC   H9X22803  -0.679   5.492  12.878  2.0704  1.4855  0.0708
  185DOPC  C31022804  -0.708   5.414  13.068 -0.5222 -0.3643 -0.3061
  185DOPC  H10X22805  -0.802   5.470  13.079  0.4623  0.8318  3.3027
  185DOPC  C31122806  -0.650   5.358  13.198 -0.2579 -0.2490  0.3566
  185DOPC  H11X22807  -0.546   5.321  13.192 -0.6112 -1.1143 -0.8773
  185DOPC  H11Y22808  -0.707   5.272  13.239  1.1817 -1.3397  0.1208
  185DOPC  C31222809  -0.643   5.463  13.304  0.1811  0.8741 -0.0200
  185DOPC  H12X22810  -0.743   5.505  13.327  0.0460  0.3619  0.3467
  185DOPC  H12Y22811  -0.584   5.551  13.272 -0.7451  1.0387 -1.3302
  185DOPC  C31322812  -0.586   5.410  13.433  0.0155 -0.3543 -0.3037
  185DOPC  H13X22813  -0.503   5.345  13.398  0.4071  2.2802 -5.0472
  185DOPC  H13Y22814  -0.546   5.499  13.487 -0.4876 -0.8808  0.9772
  185DOPC  C31422815  -0.692   5.344  13.509 -0.0400  0.9715 -0.7416
  185DOPC  H14X22816  -0.783   5.407  13.520 -0.5831  0.2217 -0.7824
  185DOPC  H14Y22817  -0.721   5.248  13.461 -0.1338 -0.3669  1.7611
  185DOPC  C31522818  -0.660   5.298  13.655  1.0732  0.4095 -0.1296
  185DOPC  H15X22819  -0.612   5.377  13.717  0.1295  0.4884  0.5068
  185DOPC  H15Y22820  -0.585   5.216  13.644  0.2879 -0.4117  0.5370
  185DOPC  C31622821  -0.773   5.246  13.741  0.2768 -0.0988  0.1084
  185DOPC  H16X22822  -0.866   5.305  13.724  0.0976 -0.8307 -1.5820
  185DOPC  H16Y22823  -0.801   5.144  13.705 -0.0180 -0.2070  0.6293
  185DOPC  C31722824  -0.741   5.232  13.892 -0.5234 -0.2583 -0.4051
  185DOPC  H17X22825  -0.663   5.154  13.900 -0.3107  0.0685  1.0014
  185DOPC  H17Y22826  -0.691   5.326  13.923 -0.9121  0.5080 -1.9492
  185DOPC  C31822827  -0.870   5.208  13.973  0.0630 -0.1348  0.6502
  185DOPC  H18X22828  -0.838   5.218  14.079  1.8467 -0.8961  0.2171
  185DOPC  H18Y22829  -0.950   5.280  13.946  1.1693  1.0395  0.4126
  185DOPC  H18Z22830  -0.910   5.108  13.948  1.1604 -0.7844  1.3969
  186DOPC     N22831   0.201   2.159  11.607 -0.3780 -0.3034  0.4240
  186DOPC   C1222832   0.224   2.146  11.755  1.0115 -0.1016  0.7276
  186DOPC  H12A22833   0.156   2.070  11.789 -0.5885  0.3851 -1.1553
  186DOPC  H12B22834   0.193   2.238  11.801 -0.9363 -0.7259  0.7533
  186DOPC   C1322835   0.052   2.163  11.573  0.6134 -0.3337  0.8421
  186DOPC  H13A22836   0.007   2.246  11.626  1.7280  0.3380  0.7786
  186DOPC  H13B22837   0.030   2.194  11.472 -2.4747  1.4600  1.9352
  186DOPC  H13C22838   0.006   2.066  11.585  2.7248 -1.6553 -0.9666
  186DOPC   C1422839   0.258   2.037  11.530  0.0015  0.6096  0.6304
  186DOPC  H14A22840   0.217   1.944  11.565  0.4530  0.8699  1.9196
  186DOPC  H14B22841   0.241   2.040  11.424 -0.1531  0.9988  0.6631
  186DOPC  H14C22842   0.364   2.032  11.549 -0.0047 -1.2192  0.2771
  186DOPC   C1522843   0.263   2.280  11.548  0.5647  0.3492 -0.1886
  186DOPC  H15A22844   0.271   2.280  11.440 -0.1081  0.2053 -0.2410
  186DOPC  H15B22845   0.365   2.295  11.581  0.5220  2.0837 -0.7326
  186DOPC  H15C22846   0.212   2.371  11.576  2.0193  0.4714  2.3654
  186DOPC   C1122847   0.373   2.111  11.797 -0.0165  0.4213  0.4631
  186DOPC  H11A22848   0.375   2.112  11.908  0.8207 -1.4733  0.5098
  186DOPC  H11B22849   0.402   2.009  11.764 -0.7422  0.0002  1.0845
  186DOPC     P22850   0.497   2.337  11.836 -0.5935 -0.0488 -0.1970
  186DOPC   O1322851   0.503   2.448  11.741 -0.5482  0.2079 -0.0978
  186DOPC   O1422852   0.620   2.316  11.916  0.3897  0.0812 -0.1504
  186DOPC   O1222853   0.466   2.211  11.753  0.1754 -0.3854  0.1091
  186DOPC   O1122854   0.375   2.363  11.927 -0.0118 -0.1562 -0.1640
  186DOPC    C122855   0.340   2.493  11.970  0.5638 -0.4329  0.5484
  186DOPC    HA22856   0.239   2.476  12.011 -0.1181 -1.6263 -1.4813
  186DOPC    HB22857   0.303   2.559  11.888  1.2269  0.3781  0.8868
  186DOPC    C222858   0.433   2.557  12.073 -0.3794  0.6256  0.4733
  186DOPC    HS22859   0.535   2.575  12.032  0.8215 -3.2946  1.3457
  186DOPC   O2122860   0.447   2.476  12.191  0.4576 -0.1557  0.3204
  186DOPC   C2122861   0.553   2.500  12.268  0.2050  0.5984  0.1609
  186DOPC   O2222862   0.650   2.572  12.239  0.0308  0.3462  0.2017
  186DOPC   C2222863   0.546   2.404  12.389 -0.1554  0.3531 -0.3049
  186DOPC   H2R22864   0.592   2.306  12.364  1.2580  0.9921 -0.3098
  186DOPC   H2S22865   0.438   2.395  12.414 -0.2370  2.4436  0.2616
  186DOPC    C322866   0.369   2.699  12.105 -0.0022 -0.1739  0.9431
  186DOPC    HX22867   0.260   2.687  12.121 -0.8399  3.2014 -1.2803
  186DOPC    HY22868   0.371   2.772  12.022  2.4862  0.2948  1.3399
  186DOPC   O3122869   0.432   2.767  12.217  0.3763  0.1665 -0.1192
  186DOPC   C3122870   0.522   2.858  12.194 -0.5346  0.9007  0.0845
  186DOPC   O3222871   0.577   2.882  12.092  0.3722 -0.3799  0.8063
  186DOPC   C3222872   0.551   2.919  12.334  0.0258  0.0004 -0.0292
  186DOPC   H2X22873   0.464   2.912  12.403  0.1688 -0.1078  0.1443
  186DOPC   H2Y22874   0.643   2.872  12.376 -1.2102 -0.7303  2.0293
  186DOPC   C2322875   0.626   2.465  12.505  0.3938 -1.1614  0.2239
  186DOPC   H3R22876   0.728   2.491  12.468  0.4912  0.1605  1.3291
  186DOPC   H3S22877   0.630   2.399  12.594 -0.0451 -0.5548  0.7102
  186DOPC   C2422878   0.560   2.599  12.549  0.0873 -0.3373  0.2828
  186DOPC   H4R22879   0.452   2.583  12.573 -0.1643  1.8529  0.7769
  186DOPC   H4S22880   0.561   2.658  12.456  2.2085 -1.3175 -0.3897
  186DOPC   C2522881   0.638   2.668  12.658  0.1399  0.0619  0.4650
  186DOPC   H5R22882   0.738   2.683  12.611 -1.2462  3.0593 -1.8339
  186DOPC   H5S22883   0.646   2.614  12.755  0.1020  0.1917  0.5411
  186DOPC   C2622884   0.571   2.803  12.699 -0.7729  0.0804  0.3472
  186DOPC   H6R22885   0.469   2.783  12.739 -1.0747 -1.2074 -0.9765
  186DOPC   H6S22886   0.567   2.869  12.610  1.3975 -1.1892 -0.7767
  186DOPC   C2722887   0.650   2.869  12.814  0.1612 -0.6304  0.3252
  186DOPC   H7R22888   0.746   2.900  12.769 -0.8652 -0.3518 -1.7846
  186DOPC   H7S22889   0.677   2.798  12.895  0.5198  0.1750  0.9288
  186DOPC   C2822890   0.577   2.996  12.877 -0.2770 -0.1071 -0.0281
  186DOPC   H8R22891   0.488   2.956  12.929 -0.5793  1.0085  0.3578
  186DOPC   H8S22892   0.542   3.057  12.791  1.0362 -1.3388 -1.4883
  186DOPC   C2922893   0.671   3.079  12.969  0.3319  0.7603 -0.2538
  186DOPC   H9R22894   0.774   3.092  12.933  1.2758  0.2164  2.1184
  186DOPC  C21022895   0.656   3.097  13.094  0.0659  0.7051 -0.9485
  186DOPC  H10R22896   0.718   3.164  13.154 -1.2525 -1.7282  3.5930
  186DOPC  C21122897   0.530   3.057  13.166  0.1277  0.5218 -0.8465
  186DOPC  H11R22898   0.530   2.949  13.191  0.4036  0.9951  1.4431
  186DOPC  H11S22899   0.440   3.087  13.109 -2.8698 -0.0317  3.1014
  186DOPC  C21222900   0.511   3.115  13.303 -0.1976  0.1345  0.1462
  186DOPC  H12R22901   0.412   3.100  13.352  0.4821  0.7743  1.8038
  186DOPC  H12S22902   0.521   3.225  13.300 -0.4319  0.1823  0.8155
  186DOPC  C21322903   0.609   3.055  13.411 -0.1237  0.4600 -0.2006
  186DOPC  H13R22904   0.712   3.085  13.381 -0.3502  3.6451  1.7784
  186DOPC  H13S22905   0.593   2.945  13.405  0.1376  0.4698 -1.3744
  186DOPC  C21422906   0.572   3.095  13.556  0.3191 -0.2976 -0.2153
  186DOPC  H14R22907   0.471   3.055  13.583 -0.4190  0.7598 -1.2955
  186DOPC  H14S22908   0.542   3.202  13.555 -1.1758 -0.6399  1.4846
  186DOPC  C21522909   0.670   3.064  13.659 -0.2262 -0.7016  1.1098
  186DOPC  H15R22910   0.753   3.135  13.638 -1.0375 -0.0332  0.0795
  186DOPC  H15S22911   0.702   2.959  13.642  0.0784 -0.5469  0.7224
  186DOPC  C21622912   0.630   3.093  13.805 -0.1361  0.4718 -0.0166
  186DOPC  H16R22913   0.534   3.144  13.827 -0.0085  0.6482  0.1355
  186DOPC  H16S22914   0.712   3.151  13.851  0.3503 -0.2990  0.1087
  186DOPC  C21722915   0.624   2.961  13.876  0.7112  0.6465 -0.3973
  186DOPC  H17R22916   0.710   2.900  13.842 -0.5410 -2.0008  0.8924
  186DOPC  H17S22917   0.534   2.902  13.848  2.1354 -1.5915 -0.4959
  186DOPC  C21822918   0.620   2.981  14.030  0.8325  0.2658  0.4341
  186DOPC  H18R22919   0.707   3.043  14.061 -0.6749  1.8541  1.6325
  186DOPC  H18S22920   0.626   2.881  14.080  0.8218 -1.0534 -2.0244
  186DOPC  H18T22921   0.525   3.032  14.056  0.3394 -0.3015 -0.2064
  186DOPC   C3322922   0.584   3.071  12.328  0.3016 -0.6977 -0.1149
  186DOPC   H3X22923   0.503   3.121  12.271  0.9537 -0.5152 -0.8964
  186DOPC   H3Y22924   0.679   3.086  12.272  0.0792 -1.0512 -0.5967
  186DOPC   C3422925   0.593   3.143  12.467 -0.3259 -0.3040 -0.8947
  186DOPC   H4X22926   0.691   3.135  12.517 -1.1797  1.3956  1.1745
  186DOPC   H4Y22927   0.510   3.101  12.528 -1.2158 -0.3889 -2.0981
  186DOPC   C3522928   0.567   3.293  12.453  0.1596  0.3347  0.1436
  186DOPC   H5X22929   0.463   3.312  12.419  0.2440  0.7330  0.1025
  186DOPC   H5Y22930   0.622   3.328  12.363  0.3201  0.0308  0.1222
  186DOPC   C3622931   0.587   3.371  12.581  0.0367 -0.0408 -0.0435
  186DOPC   H6X22932   0.535   3.468  12.565 -2.1172 -1.4758 -2.8318
  186DOPC   H6Y22933   0.528   3.328  12.665 -0.9183  2.5018  0.6676
  186DOPC   C3722934   0.731   3.370  12.632  0.7462 -0.5050  0.0998
  186DOPC   H7X22935   0.771   3.270  12.656  0.2385 -0.6918  0.1904
  186DOPC   H7Y22936   0.782   3.424  12.549  1.0997  0.8270  1.1584
  186DOPC   C3822937   0.746   3.463  12.756 -0.2989 -0.1226  0.3881
  186DOPC   H8X22938   0.670   3.429  12.830 -1.3918  1.1277 -0.1344
  186DOPC   H8Y22939   0.725   3.566  12.721 -1.2533 -0.0161  1.2094
  186DOPC   C3922940   0.881   3.458  12.822  0.2088 -0.1524 -0.1009
  186DOPC   H9X22941   0.969   3.442  12.757  0.2281  1.7822 -0.6144
  186DOPC  C31022942   0.904   3.480  12.954 -0.3442  0.4776 -0.3814
  186DOPC  H10X22943   1.008   3.469  12.990 -0.3107  0.6810 -0.4146
  186DOPC  C31122944   0.801   3.519  13.067 -0.9531 -0.4805 -0.0324
  186DOPC  H11X22945   0.696   3.499  13.037 -1.3656  0.8534  0.4194
  186DOPC  H11Y22946   0.810   3.627  13.094 -0.5827  0.1436 -2.3843
  186DOPC  C31222947   0.832   3.434  13.191  0.4002 -0.3388  0.4561
  186DOPC  H12X22948   0.934   3.455  13.228  0.5364  0.4327 -0.3193
  186DOPC  H12Y22949   0.821   3.325  13.176 -1.2907 -0.3361  1.3863
  186DOPC  C31322950   0.737   3.480  13.309  0.4782 -0.4265  0.2686
  186DOPC  H13X22951   0.770   3.584  13.333  1.8924 -0.6029 -0.8155
  186DOPC  H13Y22952   0.629   3.479  13.286  0.6460 -0.2852 -0.5449
  186DOPC  C31422953   0.759   3.405  13.450  0.2548  0.0509 -0.3304
  186DOPC  H14X22954   0.727   3.300  13.438 -2.6925  0.9332 -0.8965
  186DOPC  H14Y22955   0.867   3.408  13.479  0.6115  1.1295 -1.6816
  186DOPC  C31522956   0.684   3.468  13.564 -0.1217 -0.6090  0.0722
  186DOPC  H15X22957   0.576   3.441  13.563 -0.4314  0.6026 -1.1956
  186DOPC  H15Y22958   0.700   3.577  13.550  3.0781 -1.0060 -0.1568
  186DOPC  C31622959   0.742   3.436  13.701  0.5164  0.0990 -0.4839
  186DOPC  H16X22960   0.744   3.326  13.711  3.2162  0.2752  2.1967
  186DOPC  H16Y22961   0.846   3.475  13.706 -0.2432  2.4589 -1.5328
  186DOPC  C31722962   0.658   3.499  13.807 -0.6553 -0.7638 -0.0653
  186DOPC  H17X22963   0.647   3.607  13.783 -1.3759 -0.0726  2.9421
  186DOPC  H17Y22964   0.554   3.460  13.812 -0.9412  0.0710  0.7438
  186DOPC  C31822965   0.719   3.495  13.949  0.0006 -0.0149 -0.3369
  186DOPC  H18X22966   0.709   3.393  13.993  1.5318 -0.4872 -1.0103
  186DOPC  H18Y22967   0.821   3.538  13.954  0.7633 -1.4124 -2.3148
  186DOPC  H18Z22968   0.655   3.560  14.012 -1.3241 -0.6381 -1.0024
  187DOPC     N22969   5.933   2.019  11.693  0.0861  0.2640 -0.3830
  187DOPC   C1222970   5.890   2.061  11.836 -0.6484 -0.4694  0.1255
  187DOPC  H12A22971   5.859   1.974  11.892 -1.5827  0.3244  0.8983
  187DOPC  H12B22972   5.801   2.123  11.830  0.8997  1.7813 -1.1273
  187DOPC   C1322973   6.012   1.892  11.697 -1.1571 -0.3115 -0.3976
  187DOPC  H13A22974   6.093   1.904  11.768 -1.6060 -1.7445  0.4004
  187DOPC  H13B22975   5.957   1.817  11.751 -0.6882  0.6268  1.4799
  187DOPC  H13C22976   6.057   1.857  11.605 -0.3276  1.2386 -0.6173
  187DOPC   C1422977   6.008   2.128  11.621  0.1616  0.0449 -0.3444
  187DOPC  H14A22978   5.934   2.203  11.596 -0.3784 -0.5227 -0.4736
  187DOPC  H14B22979   6.089   2.173  11.677  0.6554  1.2799 -1.9559
  187DOPC  H14C22980   6.051   2.089  11.529 -0.0983 -1.1141  0.0151
  187DOPC   C1522981   5.810   1.973  11.621 -0.2650 -0.1797  0.1035
  187DOPC  H15A22982   5.842   1.928  11.528  0.1584  2.7543 -1.2847
  187DOPC  H15B22983   5.740   2.053  11.605 -0.2481 -0.1501  0.1787
  187DOPC  H15C22984   5.753   1.897  11.672  0.3093 -0.7566 -0.0992
  187DOPC   C1122985   5.996   2.137  11.917  0.7157  0.1976  0.9298
  187DOPC  H11A22986   6.010   2.243  11.887  0.2320  0.0517  0.1671
  187DOPC  H11B22987   5.950   2.153  12.017 -0.5664 -0.6752  0.5151
  187DOPC     P22988   6.253   2.146  11.927  0.0416 -0.1048  0.4797
  187DOPC   O1322989   6.271   2.228  11.805 -0.1820 -0.2892  0.3325
  187DOPC   O1422990   6.361   2.049  11.964  0.1756 -0.2504  0.0499
  187DOPC   O1222991   6.115   2.068  11.931 -0.5308  0.0447 -0.6346
  187DOPC   O1122992   6.249   2.247  12.048 -0.2239  0.0914  0.0182
  187DOPC    C122993   6.167   2.223  12.158 -0.3343 -0.3582 -0.3876
  187DOPC    HA22994   6.125   2.120  12.156 -1.5494  0.1091  0.1982
  187DOPC    HB22995   6.086   2.298  12.172  0.3281  0.4993 -1.0729
  187DOPC    C222996   6.243   2.220  12.297  0.0515 -0.2729 -0.1520
  187DOPC    HS22997   6.174   2.162  12.363 -0.3733  1.3437  0.9009
  187DOPC   O2122998   6.277   2.355  12.336 -0.1490 -0.5879  0.4873
  187DOPC   C2122999   6.185   2.421  12.386 -0.6149 -0.1892  0.6813
  187DOPC   O2223000   6.065   2.388  12.395  0.1016 -0.2901 -0.6773
  187DOPC   C2223001   6.244   2.562  12.413 -0.2417  0.1883  0.0556
  187DOPC   H2R23002   6.170   2.630  12.459  1.1166  1.7565  0.0005
  187DOPC   H2S23003   6.272   2.600  12.313  0.7908  1.1673  0.7013
  187DOPC    C323004   6.378   2.139  12.289 -0.1397 -0.0601  0.8155
  187DOPC    HX23005   6.435   2.194  12.212 -0.5368 -1.1251 -0.2679
  187DOPC    HY23006   6.359   2.038  12.246  1.4229  0.3973 -1.0866
  187DOPC   O3123007   6.454   2.143  12.406 -0.7414  0.1334  0.0241
  187DOPC   C3123008   6.486   2.034  12.469  0.2826  0.3590  0.2785
  187DOPC   O3223009   6.446   1.923  12.443 -0.3053  0.2990 -0.1182
  187DOPC   C3223010   6.584   2.071  12.584 -0.4932  0.6606  0.0865
  187DOPC   H2X23011   6.648   1.981  12.590 -0.4071  0.7596  0.7276
  187DOPC   H2Y23012   6.640   2.160  12.547 -0.4445  0.0707 -1.3123
  187DOPC   C2323013   6.368   2.561  12.499 -0.4136 -0.5114  0.2373
  187DOPC   H3R23014   6.407   2.665  12.489 -0.4331 -0.4059  1.1507
  187DOPC   H3S23015   6.445   2.492  12.460 -0.6453 -0.8151  0.3161
  187DOPC   C2423016   6.325   2.535  12.640 -0.9054 -0.3008  0.7047
  187DOPC   H4R23017   6.258   2.447  12.639  0.7662 -1.6471 -0.9431
  187DOPC   H4S23018   6.261   2.619  12.675  0.7555  0.5615  1.8440
  187DOPC   C2523019   6.439   2.526  12.747  0.8446  0.6551  0.4119
  187DOPC   H5R23020   6.511   2.608  12.725 -0.1868  1.2440 -0.9492
  187DOPC   H5S23021   6.482   2.425  12.757  0.3918  0.5379  1.2603
  187DOPC   C2623022   6.388   2.559  12.890  0.4582  0.1244  0.4366
  187DOPC   H6R23023   6.313   2.481  12.916 -0.1125  0.5509  0.0640
  187DOPC   H6S23024   6.336   2.656  12.893  0.7092  0.3512 -1.5307
  187DOPC   C2723025   6.497   2.577  12.992 -0.8733 -0.5012  0.4825
  187DOPC   H7R23026   6.533   2.681  12.977 -1.8827  0.3003  3.0802
  187DOPC   H7S23027   6.579   2.505  12.974 -0.9099 -0.4747  0.2019
  187DOPC   C2823028   6.445   2.548  13.137 -0.2285 -0.3264 -0.3770
  187DOPC   H8R23029   6.414   2.441  13.144  0.1096 -0.3656  0.6403
  187DOPC   H8S23030   6.353   2.611  13.141  0.4669  0.6768  0.0109
  187DOPC   C2923031   6.554   2.584  13.236  0.1667 -0.1037  0.2517
  187DOPC   H9R23032   6.654   2.565  13.194  0.5969  2.4278 -0.0220
  187DOPC  C21023033   6.540   2.656  13.349 -0.4368  0.6818  0.2482
  187DOPC  H10R23034   6.626   2.692  13.407  0.2245  2.4671 -1.6997
  187DOPC  C21123035   6.403   2.689  13.410 -0.1663  0.3742  0.5909
  187DOPC  H11R23036   6.328   2.693  13.329  2.1362  0.1676 -1.6770
  187DOPC  H11S23037   6.408   2.797  13.435 -0.3883  0.8199 -1.1524
  187DOPC  C21223038   6.347   2.604  13.524 -0.0246  0.6735 -0.2373
  187DOPC  H12R23039   6.320   2.502  13.488  1.0924 -0.7888  2.6920
  187DOPC  H12S23040   6.258   2.656  13.566 -0.6210  1.8019 -2.7404
  187DOPC  C21323041   6.443   2.603  13.638 -0.6182  0.2451  0.4995
  187DOPC  H13R23042   6.462   2.704  13.679 -1.3876  1.4815 -1.9976
  187DOPC  H13S23043   6.548   2.581  13.608 -0.6494 -0.4676  0.8871
  187DOPC  C21423044   6.404   2.509  13.750  0.2268 -0.2428  0.8949
  187DOPC  H14R23045   6.393   2.413  13.694  1.1159  0.0961  0.1094
  187DOPC  H14S23046   6.305   2.539  13.790  0.4686  1.0238  0.5895
  187DOPC  C21523047   6.513   2.498  13.851  0.1790 -0.0160  0.1752
  187DOPC  H15R23048   6.612   2.485  13.802 -0.2122 -2.6796 -0.0913
  187DOPC  H15S23049   6.496   2.405  13.909 -0.9412 -1.3593 -2.1563
  187DOPC  C21623050   6.505   2.620  13.945  0.8707 -0.1694 -0.2308
  187DOPC  H16R23051   6.405   2.669  13.948  0.7489 -0.3539 -1.0392
  187DOPC  H16S23052   6.573   2.700  13.908 -0.8715  1.7615  0.5207
  187DOPC  C21723053   6.559   2.587  14.089 -0.2517 -0.4856  0.7567
  187DOPC  H17R23054   6.652   2.529  14.071 -0.1936 -0.9646  2.5056
  187DOPC  H17S23055   6.487   2.511  14.125  0.9490 -0.5282  3.2215
  187DOPC  C21823056   6.578   2.703  14.187  0.5663 -0.2814  0.0687
  187DOPC  H18R23057   6.604   2.663  14.288 -1.0483  1.6136  1.2911
  187DOPC  H18S23058   6.484   2.761  14.198  0.3084 -0.4717 -1.0205
  187DOPC  H18T23059   6.650   2.785  14.166 -1.0966  0.8839 -1.3137
  187DOPC   C3323060   6.511   2.093  12.714 -0.1210 -0.3812 -0.3818
  187DOPC   H3X23061   6.450   2.007  12.749  0.9002 -2.1934 -2.7330
  187DOPC   H3Y23062   6.446   2.182  12.704  0.9516  0.5442  0.4822
  187DOPC   C3423063   6.602   2.137  12.833  0.5316  0.3670  0.1669
  187DOPC   H4X23064   6.663   2.219  12.791  0.4055 -0.1497 -1.0804
  187DOPC   H4Y23065   6.671   2.052  12.853  0.7349  0.9161  2.0443
  187DOPC   C3523066   6.525   2.175  12.958  0.7487  0.3590  0.2536
  187DOPC   H5X23067   6.459   2.090  12.989  0.6644 -0.4671 -2.0259
  187DOPC   H5Y23068   6.459   2.254  12.917  1.5789  0.2298 -1.4159
  187DOPC   C3623069   6.607   2.227  13.071 -0.7900  0.5403 -0.4350
  187DOPC   H6X23070   6.674   2.307  13.034  0.2280 -0.4225 -0.7239
  187DOPC   H6Y23071   6.540   2.281  13.141  0.1810  1.3109 -0.0716
  187DOPC   C3723072   6.679   2.119  13.156 -0.0018 -0.2701 -0.2799
  187DOPC   H7X23073   6.596   2.048  13.178 -0.8785  0.9811  0.6055
  187DOPC   H7Y23074   6.744   2.061  13.088  0.1456 -1.4473  0.8225
  187DOPC   C3823075   6.760   2.178  13.270  0.0499 -0.9855 -0.0497
  187DOPC   H8X23076   6.839   2.249  13.238 -0.1574  0.9832  3.3199
  187DOPC   H8Y23077   6.809   2.100  13.332 -0.1490 -2.4112 -1.6246
  187DOPC   C3923078   6.673   2.263  13.365 -0.4035  0.3660 -0.0600
  187DOPC   H9X23079   6.682   2.372  13.352 -1.2385  0.6659  1.6607
  187DOPC  C31023080   6.608   2.217  13.471 -0.1059 -0.5620  0.4373
  187DOPC  H10X23081   6.546   2.287  13.528 -1.7361 -1.2261 -0.4436
  187DOPC  C31123082   6.591   2.079  13.524 -0.5075 -0.6085  0.0685
  187DOPC  H11X23083   6.606   2.009  13.439  0.3959 -0.2067 -0.1205
  187DOPC  H11Y23084   6.494   2.076  13.578 -0.6247 -3.4491 -0.1543
  187DOPC  C31223085   6.699   2.037  13.631 -0.2457  0.3901  0.0890
  187DOPC  H12X23086   6.798   2.063  13.589 -0.2304 -1.0288 -0.8334
  187DOPC  H12Y23087   6.703   1.928  13.652 -0.5109  0.4365  0.3930
  187DOPC  C31323088   6.668   2.117  13.763  0.0817 -0.0280  0.0161
  187DOPC  H13X23089   6.693   2.224  13.745 -1.3656  0.2785 -0.3494
  187DOPC  H13Y23090   6.558   2.119  13.782  0.1151  1.0135  0.1398
  187DOPC  C31423091   6.743   2.066  13.883 -0.6189  0.3706 -0.6014
  187DOPC  H14X23092   6.725   1.958  13.898 -1.4414  0.3935 -1.3493
  187DOPC  H14Y23093   6.851   2.087  13.867 -0.2523 -0.9467  0.0314
  187DOPC  C31523094   6.691   2.139  14.007  0.8274 -0.0431 -0.8669
  187DOPC  H15X23095   6.582   2.158  13.996  1.1294  0.4335 -4.0128
  187DOPC  H15Y23096   6.732   2.242  14.003 -2.2881  1.3037 -1.0370
  187DOPC  C31623097   6.724   2.065  14.134  0.1613 -0.2729  0.1164
  187DOPC  H16X23098   6.678   1.965  14.126  2.1885 -1.4836  2.1242
  187DOPC  H16Y23099   6.835   2.052  14.140  0.3373  0.6666 -0.9054
  187DOPC  C31723100   6.680   2.146  14.261  0.2155 -0.0728  0.9445
  187DOPC  H17X23101   6.739   2.239  14.249 -1.6282  1.2554  1.7017
  187DOPC  H17Y23102   6.572   2.171  14.255 -0.0586 -1.3136  0.1464
  187DOPC  C31823103   6.716   2.096  14.405  0.0719  0.3503  0.3335
  187DOPC  H18X23104   6.700   1.986  14.410 -1.0550  0.4299 -0.9753
  187DOPC  H18Y23105   6.826   2.101  14.421  0.4974  0.4931 -2.1072
  187DOPC  H18Z23106   6.658   2.153  14.480 -1.5747 -0.4949 -0.2311
  188DOPC     N23107   3.163   2.658  11.774  0.0401 -0.0589 -0.3982
  188DOPC   C1223108   3.062   2.697  11.667 -0.1862  0.4077 -0.8467
  188DOPC  H12A23109   2.970   2.647  11.696 -0.0556  0.8731  0.4385
  188DOPC  H12B23110   3.100   2.660  11.573 -0.7087 -1.0427 -0.5132
  188DOPC   C1323111   3.289   2.699  11.704 -0.1642  0.0411 -0.2513
  188DOPC  H13A23112   3.378   2.664  11.754 -0.8777 -0.2728  0.8695
  188DOPC  H13B23113   3.289   2.676  11.599 -2.5448  0.8983 -0.5113
  188DOPC  H13C23114   3.310   2.804  11.711  0.3733 -0.1311  0.9993
  188DOPC   C1423115   3.149   2.508  11.792 -0.5524  0.1477  0.1255
  188DOPC  H14A23116   3.225   2.457  11.849 -0.1788  0.5849  0.0189
  188DOPC  H14B23117   3.056   2.484  11.843 -1.1302  0.6206 -0.6993
  188DOPC  H14C23118   3.151   2.454  11.699 -1.4451  0.6254 -0.1845
  188DOPC   C1523119   3.135   2.733  11.903 -0.4992 -0.4521  0.0350
  188DOPC  H15A23120   3.120   2.838  11.882  1.3613  0.2371  1.8123
  188DOPC  H15B23121   3.211   2.730  11.981  2.7426  1.2720 -2.7828
  188DOPC  H15C23122   3.044   2.693  11.946 -0.3500 -0.8582 -0.0277
  188DOPC   C1123123   3.020   2.850  11.666  0.6977 -0.4807 -0.6103
  188DOPC  H11A23124   3.120   2.896  11.650 -0.0287  0.6081 -2.3668
  188DOPC  H11B23125   2.954   2.871  11.580 -0.1661 -0.1985  0.1107
  188DOPC     P23126   2.923   3.047  11.806  0.2783  0.6849  0.1597
  188DOPC   O1323127   2.800   3.085  11.730  0.4120  0.2892 -0.3052
  188DOPC   O1423128   3.044   3.119  11.756  0.8822  0.3141  0.0702
  188DOPC   O1223129   2.956   2.891  11.786  0.0909 -0.0715 -0.2391
  188DOPC   O1123130   2.894   3.077  11.961 -0.1127 -0.2598  0.4094
  188DOPC    C123131   2.932   2.993  12.071  0.4842 -0.1223  0.0529
  188DOPC    HA23132   3.036   2.955  12.073 -0.4727 -3.0144  0.0292
  188DOPC    HB23133   2.884   2.894  12.058  0.3242 -0.0945  0.4334
  188DOPC    C223134   2.899   3.061  12.205  0.5583 -0.1758  0.1118
  188DOPC    HS23135   2.799   3.109  12.210  1.0188  0.8395 -0.0520
  188DOPC   O2123136   2.995   3.168  12.220  0.0660 -0.3674  0.5214
  188DOPC   C2123137   2.974   3.256  12.317  0.8932 -0.0589 -0.0826
  188DOPC   O2223138   2.865   3.281  12.364  0.6077 -0.3290  0.3353
  188DOPC   C2223139   3.107   3.310  12.375 -0.0307  0.0617  0.1866
  188DOPC   H2R23140   3.107   3.419  12.394 -0.1072  0.3240 -1.2133
  188DOPC   H2S23141   3.181   3.305  12.292 -0.0400 -0.4890  0.2077
  188DOPC    C323142   2.909   2.951  12.322  0.7607  0.0897 -0.0930
  188DOPC    HX23143   3.012   2.911  12.320  1.0489  0.7614  0.7221
  188DOPC    HY23144   2.848   2.860  12.302  0.0557  0.3453  0.8016
  188DOPC   O3123145   2.881   3.005  12.454  0.1298  0.7610  0.0924
  188DOPC   C3123146   2.755   2.995  12.498  0.6430 -0.0827  0.5020
  188DOPC   O3223147   2.659   2.953  12.435  0.1061  0.6984 -0.1002
  188DOPC   C3223148   2.746   3.053  12.633  0.6779 -0.1401 -0.4868
  188DOPC   H2X23149   2.832   3.035  12.700 -0.4631  1.2816  1.4733
  188DOPC   H2Y23150   2.730   3.163  12.633  2.8580  0.2616 -2.8080
  188DOPC   C2323151   3.160   3.231  12.494 -1.0465 -0.2717  0.2388
  188DOPC   H3R23152   3.269   3.249  12.502 -0.7107 -1.5447 -1.0060
  188DOPC   H3S23153   3.156   3.123  12.468  1.3012 -0.1221 -0.9834
  188DOPC   C2423154   3.109   3.259  12.632 -0.2174  0.8264 -0.0325
  188DOPC   H4R23155   3.015   3.201  12.646  0.8768 -0.9428  0.3691
  188DOPC   H4S23156   3.102   3.367  12.655  0.2908  0.4585  2.1027
  188DOPC   C2523157   3.203   3.196  12.743  0.2870  0.4702 -0.4806
  188DOPC   H5R23158   3.302   3.242  12.724 -0.1656  1.4901 -0.4053
  188DOPC   H5S23159   3.215   3.086  12.728 -0.3647 -0.0704  2.3498
  188DOPC   C2623160   3.164   3.224  12.888 -0.1452  0.6826 -0.1727
  188DOPC   H6R23161   3.063   3.184  12.911 -0.5734  2.1614  0.6571
  188DOPC   H6S23162   3.161   3.335  12.901  2.2749  0.8224 -0.2483
  188DOPC   C2723163   3.255   3.161  12.981  0.2463  0.1495  0.8399
  188DOPC   H7R23164   3.358   3.198  12.966  0.6205 -0.3971  1.9222
  188DOPC   H7S23165   3.259   3.051  12.966  0.5670  0.1602  0.8471
  188DOPC   C2823166   3.228   3.194  13.133 -0.0556 -0.0319  0.3562
  188DOPC   H8R23167   3.240   3.304  13.143  3.0182 -0.3874  1.8400
  188DOPC   H8S23168   3.304   3.155  13.204  0.3917 -0.6107 -0.4240
  188DOPC   C2923169   3.095   3.156  13.179  0.0174  0.0859  0.6204
  188DOPC   H9R23170   3.012   3.192  13.117 -0.1495  2.2126  1.9629
  188DOPC  C21023171   3.053   3.074  13.280 -0.2942 -1.0094  0.2975
  188DOPC  H10R23172   2.944   3.059  13.282 -0.3471 -0.8747 -1.0285
  188DOPC  C21123173   3.123   2.989  13.382 -0.5089 -0.3493  1.3171
  188DOPC  H11R23174   3.232   2.991  13.361  0.0336 -1.1993  3.7039
  188DOPC  H11S23175   3.114   2.880  13.361  0.4241  0.1162 -2.0851
  188DOPC  C21223176   3.089   3.031  13.524 -0.1226 -0.3512 -0.2112
  188DOPC  H12R23177   3.143   2.956  13.587  0.2830 -0.5996 -0.8511
  188DOPC  H12S23178   2.979   3.027  13.539  0.1716  1.0371  3.3109
  188DOPC  C21323179   3.137   3.172  13.556 -0.0575 -0.1591  0.3857
  188DOPC  H13R23180   3.068   3.244  13.506 -1.0936 -2.1013 -1.1439
  188DOPC  H13S23181   3.229   3.176  13.495 -0.5739 -0.7133 -0.4582
  188DOPC  C21423182   3.157   3.204  13.703 -0.3922 -0.2630 -0.2512
  188DOPC  H14R23183   3.190   3.310  13.705 -0.3418 -0.2743 -0.4347
  188DOPC  H14S23184   3.244   3.151  13.747 -0.2312 -0.9001 -1.2924
  188DOPC  C21523185   3.034   3.191  13.798 -0.2837  0.6399 -0.2740
  188DOPC  H15R23186   2.990   3.091  13.776 -1.5349  1.3061 -0.9219
  188DOPC  H15S23187   2.962   3.270  13.767 -1.2860  0.5061  1.5622
  188DOPC  C21623188   3.082   3.188  13.945 -0.0550  0.4036 -0.9051
  188DOPC  H16R23189   3.127   3.289  13.962 -2.4368  1.6111 -1.2986
  188DOPC  H16S23190   3.157   3.107  13.954 -0.4953  0.0996  0.1867
  188DOPC  C21723191   2.961   3.176  14.039 -0.3100  0.0721  0.0500
  188DOPC  H17R23192   2.922   3.073  14.021 -0.3919  0.4722 -2.4053
  188DOPC  H17S23193   2.880   3.249  14.019 -1.4264 -0.9618  0.6008
  188DOPC  C21823194   2.987   3.195  14.186  0.1389 -0.8163 -0.0766
  188DOPC  H18R23195   2.899   3.186  14.253  2.2889  0.2390  3.1791
  188DOPC  H18S23196   3.023   3.297  14.211 -0.7243 -0.6604  0.5718
  188DOPC  H18T23197   3.059   3.119  14.222 -0.7265 -1.3331  0.6093
  188DOPC   C3323198   2.628   2.998  12.719  0.1949 -0.2015 -0.6672
  188DOPC   H3X23199   2.631   2.889  12.701  0.1221 -0.0054 -1.9215
  188DOPC   H3Y23200   2.534   3.038  12.675  1.3672  2.6353 -0.8456
  188DOPC   C3423201   2.639   3.032  12.870 -0.8111 -0.4577 -0.7904
  188DOPC   H4X23202   2.745   3.015  12.897 -0.1193 -0.1080 -3.1014
  188DOPC   H4Y23203   2.581   2.952  12.920 -1.8179 -0.2263 -1.5463
  188DOPC   C3523204   2.621   3.173  12.917 -0.0899 -0.0762  0.3586
  188DOPC   H5X23205   2.519   3.205  12.887 -0.3493 -0.1159  1.1747
  188DOPC   H5Y23206   2.676   3.240  12.848 -0.0891  0.3901  0.8076
  188DOPC   C3623207   2.660   3.213  13.062 -0.6180 -0.0237 -0.5002
  188DOPC   H6X23208   2.763   3.180  13.089  0.5152  1.2827 -2.9236
  188DOPC   H6Y23209   2.664   3.324  13.061 -1.5336  0.0143 -0.5264
  188DOPC   C3723210   2.570   3.157  13.167 -0.0582  0.0467 -0.1008
  188DOPC   H7X23211   2.484   3.222  13.194  1.4050  1.5768  1.0646
  188DOPC   H7Y23212   2.521   3.063  13.133 -0.6044  0.6024 -0.8736
  188DOPC   C3823213   2.650   3.100  13.293 -0.0222  0.3244  0.0959
  188DOPC   H8X23214   2.729   3.028  13.262 -0.1333 -1.0000  2.6072
  188DOPC   H8Y23215   2.580   3.038  13.353  3.2337 -1.9865  1.8481
  188DOPC   C3923216   2.705   3.222  13.367 -0.1025 -0.2695 -0.3265
  188DOPC   H9X23217   2.757   3.300  13.310  1.3859  0.6040  2.0490
  188DOPC  C31023218   2.690   3.251  13.501  0.1042 -0.8451  0.1553
  188DOPC  H10X23219   2.735   3.337  13.551 -0.3590 -0.7225  0.3697
  188DOPC  C31123220   2.611   3.168  13.601 -0.2650 -0.3683  0.4747
  188DOPC  H11X23221   2.659   3.070  13.620  0.1206 -0.3264 -0.2457
  188DOPC  H11Y23222   2.514   3.142  13.555  0.5899 -1.8700 -0.5560
  188DOPC  C31223223   2.596   3.235  13.738 -0.8924  0.0170  0.1657
  188DOPC  H12X23224   2.533   3.326  13.737 -0.2542  0.5376 -2.8849
  188DOPC  H12Y23225   2.700   3.270  13.758 -0.1201 -0.8227 -2.1321
  188DOPC  C31323226   2.544   3.135  13.848 -0.1002 -0.5047  0.2820
  188DOPC  H13X23227   2.443   3.102  13.816  0.3656 -1.9967  0.2995
  188DOPC  H13Y23228   2.623   3.058  13.854  1.6124  1.0876 -0.6901
  188DOPC  C31423229   2.523   3.185  13.989 -0.1160  0.3641 -0.4035
  188DOPC  H14X23230   2.601   3.257  14.021  0.3754  0.0009 -0.7657
  188DOPC  H14Y23231   2.430   3.245  13.985 -0.5652 -0.2826 -0.0030
  188DOPC  C31523232   2.529   3.068  14.093  0.0849  0.5209 -0.4361
  188DOPC  H15X23233   2.619   3.003  14.088  0.0716  0.4243  0.4494
  188DOPC  H15Y23234   2.439   3.004  14.086  0.0359  0.4342  0.7645
  188DOPC  C31623235   2.517   3.122  14.237  0.3584 -0.4203  0.6060
  188DOPC  H16X23236   2.620   3.148  14.268  1.5113 -1.9228 -1.6613
  188DOPC  H16Y23237   2.455   3.214  14.243  0.3624 -0.2641 -1.3336
  188DOPC  C31723238   2.444   3.034  14.336 -0.9037 -0.6334 -0.1260
  188DOPC  H17X23239   2.350   3.010  14.283 -0.3529  1.2965 -2.1276
  188DOPC  H17Y23240   2.494   2.935  14.348 -0.5002 -0.7295 -2.2377
  188DOPC  C31823241   2.418   3.086  14.480 -0.1902  0.0963  0.1838
  188DOPC  H18X23242   2.504   3.108  14.546  0.4692 -2.9923  0.5084
  188DOPC  H18Y23243   2.360   3.180  14.469  0.3921  0.3542 -0.8445
  188DOPC  H18Z23244   2.351   3.019  14.537 -1.7868  1.7867  0.4060
  189DOPC     N23245   4.104   0.438  11.358  0.1061  0.0218 -0.2138
  189DOPC   C1223246   4.030   0.314  11.409  0.3236  0.2120  0.6879
  189DOPC  H12A23247   4.097   0.231  11.393 -0.6000 -0.6828  1.3751
  189DOPC  H12B23248   3.945   0.316  11.342  2.1703  0.6325 -1.7518
  189DOPC   C1323249   4.008   0.561  11.360  0.6063  0.4386 -0.4691
  189DOPC  H13A23250   3.916   0.541  11.307 -0.2867  0.3518  1.0467
  189DOPC  H13B23251   3.978   0.587  11.460 -2.0906  0.4079 -1.1888
  189DOPC  H13C23252   4.052   0.653  11.324 -0.6702  2.3109  2.4057
  189DOPC   C1423253   4.152   0.428  11.218 -0.6497 -0.5802  0.3385
  189DOPC  H14A23254   4.176   0.524  11.176  3.1053 -0.7729  1.6508
  189DOPC  H14B23255   4.246   0.376  11.224 -0.7673 -1.0258 -1.3005
  189DOPC  H14C23256   4.086   0.370  11.156  0.6713 -1.7190 -0.0614
  189DOPC   C1523257   4.233   0.474  11.433  0.4727  0.0137 -0.0583
  189DOPC  H15A23258   4.265   0.576  11.420  0.0713  0.5103  2.3442
  189DOPC  H15B23259   4.307   0.406  11.393  0.8076  0.5685 -0.4002
  189DOPC  H15C23260   4.222   0.448  11.538  1.9421 -0.7322 -0.0569
  189DOPC   C1123261   3.994   0.313  11.557  0.2076  0.4292  0.1673
  189DOPC  H11A23262   3.945   0.409  11.583 -0.8589 -0.7188  2.7308
  189DOPC  H11B23263   3.926   0.225  11.562 -0.1900  0.4533 -2.7268
  189DOPC     P23264   4.127   0.219  11.766 -0.1749 -0.0219 -0.5682
  189DOPC   O1323265   4.269   0.224  11.810 -0.1852  0.5053 -0.3258
  189DOPC   O1423266   4.070   0.082  11.752 -0.4319 -0.1646 -0.0360
  189DOPC   O1223267   4.108   0.290  11.631 -0.2318 -0.1625 -0.0109
  189DOPC   O1123268   4.050   0.312  11.871 -0.3742  0.0684 -0.3696
  189DOPC    C123269   4.052   0.456  11.864 -0.7073  0.1678 -0.4180
  189DOPC    HA23270   3.952   0.504  11.867  1.0461  4.2613 -1.2546
  189DOPC    HB23271   4.099   0.485  11.767 -0.4460  0.9035 -0.0750
  189DOPC    C223272   4.135   0.513  11.979  0.4704  0.2355  0.0128
  189DOPC    HS23273   4.241   0.483  11.969  0.2042 -2.2511  3.0624
  189DOPC   O2123274   4.067   0.459  12.096 -0.7908 -0.1144  0.3401
  189DOPC   C2123275   4.166   0.432  12.186 -0.3201 -0.0307 -0.0780
  189DOPC   O2223276   4.287   0.429  12.168 -0.5555  0.0400  0.4808
  189DOPC   C2223277   4.110   0.398  12.326  0.2947  0.5683 -0.6321
  189DOPC   H2R23278   4.143   0.295  12.349 -0.3893  0.3275 -0.7034
  189DOPC   H2S23279   3.999   0.394  12.327  0.2965 -1.2857 -2.3558
  189DOPC    C323280   4.142   0.662  11.974 -0.8748  0.0086  0.3367
  189DOPC    HX23281   4.035   0.693  11.976 -0.3323  2.2624  4.3568
  189DOPC    HY23282   4.203   0.693  11.887  4.2958  0.0097  3.5277
  189DOPC   O3123283   4.210   0.716  12.093  0.0607  0.3302  0.1716
  189DOPC   C3123284   4.162   0.835  12.128 -0.5254  0.2803  0.2482
  189DOPC   O3223285   4.077   0.892  12.069  0.1289  0.1004 -0.1975
  189DOPC   C3223286   4.266   0.896  12.228  0.2756 -0.2435  0.4616
  189DOPC   H2X23287   4.334   0.815  12.262 -0.8247 -2.2343 -1.7684
  189DOPC   H2Y23288   4.318   0.968  12.161 -1.2165  0.0380 -0.4391
  189DOPC   C2323289   4.162   0.496  12.443 -0.2125  0.6117  0.5246
  189DOPC   H3R23290   4.127   0.601  12.435  1.3149  1.2840  2.1161
  189DOPC   H3S23291   4.272   0.499  12.428 -0.2743  0.5748  0.0269
  189DOPC   C2423292   4.148   0.446  12.588 -0.7423  0.4114 -0.0270
  189DOPC   H4R23293   4.165   0.337  12.605  0.0302  0.3925 -0.8433
  189DOPC   H4S23294   4.042   0.464  12.615 -0.6952  0.3556  0.1933
  189DOPC   C2523295   4.226   0.526  12.694  0.6453  0.4591  0.0718
  189DOPC   H5R23296   4.211   0.631  12.659 -0.1849 -0.9189 -4.4158
  189DOPC   H5S23297   4.334   0.507  12.680  0.3596 -0.9456 -0.4007
  189DOPC   C2623298   4.177   0.520  12.834 -0.4570  0.1613  0.7734
  189DOPC   H6R23299   4.196   0.418  12.873  1.7604  0.7500  1.4336
  189DOPC   H6S23300   4.067   0.535  12.837 -0.4539  0.7633 -1.0640
  189DOPC   C2723301   4.253   0.598  12.937 -0.7233 -0.2541 -0.8256
  189DOPC   H7R23302   4.242   0.707  12.916 -0.3537 -0.0806 -0.1489
  189DOPC   H7S23303   4.361   0.572  12.937 -1.0148 -1.5129 -0.5507
  189DOPC   C2823304   4.193   0.583  13.077  0.6399  0.5576 -0.9637
  189DOPC   H8R23305   4.082   0.591  13.070  0.5280 -0.8445 -0.9903
  189DOPC   H8S23306   4.216   0.668  13.144 -1.2833 -0.3409  0.9401
  189DOPC   C2923307   4.238   0.455  13.137  0.2152  0.5663 -0.6058
  189DOPC   H9R23308   4.343   0.425  13.130  0.1797 -1.0734  3.2695
  189DOPC  C21023309   4.161   0.382  13.225 -0.4271 -0.4917 -0.5730
  189DOPC  H10R23310   4.202   0.287  13.262 -0.9205 -0.1469  0.9586
  189DOPC  C21123311   4.022   0.422  13.274 -0.8899  0.8340 -0.1942
  189DOPC  H11R23312   3.944   0.350  13.243  1.2899 -0.8376 -2.2423
  189DOPC  H11S23313   4.007   0.529  13.252 -0.6673  0.9160  0.0381
  189DOPC  C21223314   4.035   0.417  13.428 -0.0175  0.2948  0.4751
  189DOPC  H12R23315   3.969   0.502  13.456 -1.9770 -0.4148 -1.7317
  189DOPC  H12S23316   4.137   0.452  13.455  1.1363  0.2715 -3.2464
  189DOPC  C21323317   3.997   0.287  13.502  0.4554  0.7087 -0.0768
  189DOPC  H13R23318   4.067   0.205  13.477 -0.2373 -0.4230  1.5141
  189DOPC  H13S23319   3.895   0.252  13.476  0.2401  0.1382  1.3929
  189DOPC  C21423320   3.981   0.301  13.653  0.5677 -0.2906  0.2405
  189DOPC  H14R23321   3.889   0.360  13.674  0.9649 -0.1663  1.7847
  189DOPC  H14S23322   4.065   0.360  13.695  0.2493  0.3777 -0.0522
  189DOPC  C21523323   3.979   0.167  13.722  0.0098 -0.0091 -0.4168
  189DOPC  H15R23324   4.070   0.107  13.701 -1.4776 -2.5553 -0.1144
  189DOPC  H15S23325   3.891   0.105  13.691  0.8557 -1.2382 -0.4158
  189DOPC  C21623326   3.977   0.188  13.879 -0.4272 -0.1714 -0.2424
  189DOPC  H16R23327   3.875   0.226  13.899  0.2172  0.6524  1.7551
  189DOPC  H16S23328   4.049   0.268  13.906 -1.5235 -0.1151  2.8776
  189DOPC  C21723329   4.010   0.062  13.963  0.2363  0.2244 -0.8481
  189DOPC  H17R23330   4.084  -0.003  13.911  0.5695  0.8125 -1.1190
  189DOPC  H17S23331   3.916   0.002  13.967  1.1554 -1.1756  0.8006
  189DOPC  C21823332   4.056   0.100  14.105  0.3238 -0.0818 -0.0643
  189DOPC  H18R23333   3.967   0.151  14.147 -0.3058 -0.7183 -0.6117
  189DOPC  H18S23334   4.145   0.167  14.110 -1.9391  3.0246  1.4608
  189DOPC  H18T23335   4.070   0.003  14.157 -0.3881 -0.2854 -0.2413
  189DOPC   C3323336   4.212   0.970  12.354 -0.2087 -0.2036  0.1406
  189DOPC   H3X23337   4.137   0.907  12.406  1.8444 -0.7192  2.6628
  189DOPC   H3Y23338   4.158   1.063  12.327 -0.6320 -1.0146 -1.9917
  189DOPC   C3423339   4.323   1.010  12.448 -0.0686  0.1167  0.9371
  189DOPC   H4X23340   4.400   1.062  12.387 -1.2413  1.8783  0.8893
  189DOPC   H4Y23341   4.376   0.929  12.502 -1.1795 -0.5408  1.0674
  189DOPC   C3523342   4.282   1.113  12.550  0.3204 -0.3101  0.5408
  189DOPC   H5X23343   4.230   1.190  12.490 -3.4426 -2.7671  0.2934
  189DOPC   H5Y23344   4.382   1.151  12.580  0.4416  1.2172 -1.5704
  189DOPC   C3623345   4.208   1.061  12.673  0.0161 -0.7354  0.6780
  189DOPC   H6X23346   4.103   1.055  12.636 -0.1142 -0.1999  0.9490
  189DOPC   H6Y23347   4.241   0.956  12.686 -2.2651 -1.5766  0.1787
  189DOPC   C3723348   4.219   1.140  12.805  0.8980 -0.2879 -0.3872
  189DOPC   H7X23349   4.323   1.174  12.823  0.4864  0.4748  0.7040
  189DOPC   H7Y23350   4.148   1.226  12.801 -0.7779 -1.4776  1.4696
  189DOPC   C3823351   4.179   1.054  12.924  0.3846  0.4814 -0.0389
  189DOPC   H8X23352   4.262   0.981  12.933  1.7563  2.1356  1.7380
  189DOPC   H8Y23353   4.087   0.999  12.897  0.6845 -0.6114  1.0990
  189DOPC   C3923354   4.159   1.136  13.048 -0.1147  0.4306 -0.5710
  189DOPC   H9X23355   4.071   1.201  13.043 -1.0947 -0.8936 -0.9712
  189DOPC  C31023356   4.243   1.147  13.153  0.3251  0.2956 -0.4722
  189DOPC  H10X23357   4.217   1.209  13.241 -2.2352 -0.3031 -0.7300
  189DOPC  C31123358   4.373   1.068  13.182  0.4903 -0.1487 -0.0248
  189DOPC  H11X23359   4.464   1.128  13.162  1.1061 -1.1445 -0.2730
  189DOPC  H11Y23360   4.382   0.980  13.115  1.3315  0.4523 -0.7245
  189DOPC  C31223361   4.390   1.011  13.330  0.3047 -0.0849 -0.5009
  189DOPC  H12X23362   4.379   1.103  13.392  2.4190  0.4990 -0.9146
  189DOPC  H12Y23363   4.493   0.979  13.354 -0.1084 -1.4120 -0.3925
  189DOPC  C31323364   4.299   0.886  13.358  0.3311  0.1101 -0.1899
  189DOPC  H13X23365   4.190   0.902  13.376  0.5670  2.0342 -0.2288
  189DOPC  H13Y23366   4.306   0.812  13.275  1.2320  3.4487 -3.3495
  189DOPC  C31423367   4.340   0.824  13.486 -0.6552  0.4191 -0.4895
  189DOPC  H14X23368   4.279   0.731  13.487  0.5393 -0.3984 -1.6087
  189DOPC  H14Y23369   4.445   0.790  13.476  0.4035  1.9008  3.5190
  189DOPC  C31523370   4.328   0.909  13.610 -0.6376 -0.2298 -0.3381
  189DOPC  H15X23371   4.228   0.957  13.616 -1.1279 -1.3082  0.2283
  189DOPC  H15Y23372   4.411   0.983  13.614 -0.7272 -0.1496  0.1749
  189DOPC  C31623373   4.354   0.823  13.735 -0.3198  0.0828  0.0466
  189DOPC  H16X23374   4.272   0.751  13.755  1.0749 -2.2778 -2.0665
  189DOPC  H16Y23375   4.434   0.749  13.714  0.0431  0.6075 -0.4737
  189DOPC  C31723376   4.396   0.899  13.858  0.1753 -0.0567  0.3115
  189DOPC  H17X23377   4.395   0.822  13.938  0.3154 -0.3479  0.0336
  189DOPC  H17Y23378   4.499   0.939  13.848  0.1788  0.0955  0.9010
  189DOPC  C31823379   4.302   1.014  13.898 -0.4496 -0.0441 -0.4541
  189DOPC  H18X23380   4.349   1.079  13.975 -1.6802  1.4127 -0.8639
  189DOPC  H18Y23381   4.285   1.076  13.807 -0.9746  3.0478  1.5686
  189DOPC  H18Z23382   4.210   0.971  13.943 -1.2450  0.3570 -1.6167
  190DOPC     N23383   3.091   1.699  11.861  0.5895 -0.2608  0.0565
  190DOPC   C1223384   3.058   1.619  11.984 -0.3646 -0.4684 -0.9529
  190DOPC  H12A23385   3.143   1.571  12.030 -1.2947 -1.6659 -0.4256
  190DOPC  H12B23386   2.991   1.541  11.951 -2.5418  0.6556  0.5131
  190DOPC   C1323387   2.954   1.724  11.796 -0.5552 -0.5598  0.6327
  190DOPC  H13A23388   2.954   1.804  11.723 -0.2045 -1.3674 -0.2635
  190DOPC  H13B23389   2.913   1.638  11.745 -1.8160  0.7937 -0.7457
  190DOPC  H13C23390   2.884   1.758  11.871 -2.5165  0.0826 -1.3557
  190DOPC   C1423391   3.175   1.611  11.775 -0.2972  0.3066  0.2271
  190DOPC  H14A23392   3.119   1.529  11.733  1.6600 -0.9199 -0.1519
  190DOPC  H14B23393   3.219   1.664  11.693  0.1066 -1.9269 -1.0950
  190DOPC  H14C23394   3.253   1.573  11.841  1.0946  0.8456 -1.0643
  190DOPC   C1523395   3.160   1.829  11.896  0.5678  0.2428  0.1796
  190DOPC  H15A23396   3.110   1.876  11.979  0.1958  0.6233 -0.2480
  190DOPC  H15B23397   3.145   1.910  11.827 -0.0141  0.4988  0.6035
  190DOPC  H15C23398   3.264   1.810  11.917  1.1686  1.2587 -1.6422
  190DOPC   C1123399   2.977   1.675  12.101 -0.0897 -0.2334 -0.0080
  190DOPC  H11A23400   2.985   1.593  12.176  0.6778 -0.7903 -0.6771
  190DOPC  H11B23401   3.029   1.764  12.143  1.6613 -0.7127 -1.0535
  190DOPC     P23402   2.745   1.799  12.140 -0.0538 -0.1635 -0.3902
  190DOPC   O1323403   2.605   1.747  12.152  0.6556 -0.0290  1.0552
  190DOPC   O1423404   2.765   1.935  12.085  1.0910 -0.3202  0.1703
  190DOPC   O1223405   2.842   1.697  12.068  0.0668  0.0936  0.1624
  190DOPC   O1123406   2.813   1.797  12.287  0.3708  0.5478 -0.3108
  190DOPC    C123407   2.782   1.695  12.382  0.2251  0.0466  0.4597
  190DOPC    HA23408   2.793   1.591  12.344  1.9440  1.1968 -2.5096
  190DOPC    HB23409   2.674   1.700  12.407  0.3369 -0.3450  1.0383
  190DOPC    C223410   2.880   1.706  12.500 -0.0486  0.3180 -0.8507
  190DOPC    HS23411   2.910   1.600  12.516 -1.1965 -0.1483 -1.6684
  190DOPC   O2123412   2.821   1.761  12.617 -0.2304  0.0248  0.7162
  190DOPC   C2123413   2.736   1.683  12.678 -0.6397  0.2741  0.3254
  190DOPC   O2223414   2.722   1.565  12.661 -1.2284  0.0214 -0.0726
  190DOPC   C2223415   2.669   1.765  12.787  0.0723  0.5935  0.0212
  190DOPC   H2R23416   2.581   1.821  12.751 -0.6783 -1.4516 -1.5587
  190DOPC   H2S23417   2.754   1.831  12.813 -0.8995  1.5023  0.9576
  190DOPC    C323418   3.023   1.764  12.463  0.8314 -1.0711 -0.7576
  190DOPC    HX23419   3.008   1.868  12.427  0.0051 -1.1731 -0.7281
  190DOPC    HY23420   3.068   1.703  12.382  2.1262 -1.9719  0.5945
  190DOPC   O3123421   3.120   1.766  12.565  0.1589  0.5147 -0.1382
  190DOPC   C3123422   3.236   1.812  12.524 -0.2798 -0.4861  0.0217
  190DOPC   O3223423   3.279   1.802  12.412 -0.9483 -0.0606 -0.1071
  190DOPC   C3223424   3.322   1.874  12.642  0.8483  0.1703  0.2720
  190DOPC   H2X23425   3.385   1.954  12.598 -0.4233  0.0604 -1.8431
  190DOPC   H2Y23426   3.246   1.926  12.704  0.9104 -0.2022  0.6676
  190DOPC   C2323427   2.621   1.680  12.906  0.1017  0.2263  0.3002
  190DOPC   H3R23428   2.718   1.647  12.949  1.1161  0.3183 -1.8027
  190DOPC   H3S23429   2.559   1.594  12.874 -1.6571  1.0239  1.3495
  190DOPC   C2423430   2.542   1.759  13.008  0.4099 -0.1601  0.3535
  190DOPC   H4R23431   2.445   1.797  12.968  0.4990  1.0085  1.1951
  190DOPC   H4S23432   2.590   1.854  13.040  0.7772 -0.3852  0.4676
  190DOPC   C2523433   2.519   1.686  13.141  0.6659 -0.0027 -0.4344
  190DOPC   H5R23434   2.615   1.664  13.192  0.4926 -0.7327 -0.4128
  190DOPC   H5S23435   2.471   1.589  13.116  2.1616 -2.1867  4.0970
  190DOPC   C2623436   2.429   1.763  13.241 -0.1483  0.0859 -0.2473
  190DOPC   H6R23437   2.346   1.803  13.178  0.1247  0.6675 -0.2459
  190DOPC   H6S23438   2.469   1.856  13.287 -0.0271 -0.7232  1.3359
  190DOPC   C2723439   2.365   1.664  13.342 -0.6125  0.6919  0.2602
  190DOPC   H7R23440   2.426   1.642  13.433 -1.3557 -1.3073  0.3146
  190DOPC   H7S23441   2.337   1.572  13.286 -3.4395  1.2323  0.6184
  190DOPC   C2823442   2.236   1.718  13.393  0.8059  0.5132 -0.3116
  190DOPC   H8R23443   2.186   1.644  13.458  0.0474  1.8168  0.6146
  190DOPC   H8S23444   2.172   1.724  13.302 -2.6771 -0.4094  1.8962
  190DOPC   C2923445   2.237   1.851  13.460 -0.2108 -0.3870 -0.6157
  190DOPC   H9R23446   2.214   1.936  13.394 -1.1109  0.8473  1.2212
  190DOPC  C21023447   2.275   1.873  13.587  0.0584  0.0295  0.0257
  190DOPC  H10R23448   2.269   1.974  13.631  2.8492 -0.5226  1.9664
  190DOPC  C21123449   2.307   1.776  13.689  0.3597 -0.0859 -0.3675
  190DOPC  H11R23450   2.418   1.781  13.692  0.3538  0.3212 -0.7295
  190DOPC  H11S23451   2.256   1.680  13.665 -1.3195  0.3345  1.3208
  190DOPC  C21223452   2.259   1.810  13.830 -0.0361 -0.5982  0.3501
  190DOPC  H12R23453   2.260   1.723  13.898  0.4463 -1.8764 -1.2238
  190DOPC  H12S23454   2.159   1.858  13.818 -0.6965 -1.9572  0.2361
  190DOPC  C21323455   2.345   1.919  13.894 -0.1812 -0.4751 -0.2215
  190DOPC  H13R23456   2.288   2.014  13.904  2.8743  1.2837  2.4556
  190DOPC  H13S23457   2.438   1.940  13.836  0.3521  0.9110  1.0562
  190DOPC  C21423458   2.411   1.896  14.032  0.2695  0.4336  0.3282
  190DOPC  H14R23459   2.503   1.958  14.038  2.2772 -2.3160 -0.0879
  190DOPC  H14S23460   2.442   1.790  14.019 -1.7140  0.2085 -4.6050
  190DOPC  C21523461   2.307   1.909  14.146 -0.8890  0.7201  0.1227
  190DOPC  H15R23462   2.214   1.857  14.116  0.6214 -1.5153 -1.0228
  190DOPC  H15S23463   2.291   2.018  14.156  0.5610  0.7521  3.0006
  190DOPC  C21623464   2.357   1.855  14.281  0.0126  0.4861  0.1934
  190DOPC  H16R23465   2.363   1.745  14.272  3.9155  0.4818  0.8864
  190DOPC  H16S23466   2.282   1.885  14.357  0.3408 -0.9694  1.1218
  190DOPC  C21723467   2.498   1.885  14.315 -0.5787 -0.6380 -0.5686
  190DOPC  H17R23468   2.508   1.996  14.318 -2.4966 -0.4569  1.7522
  190DOPC  H17S23469   2.560   1.853  14.228 -0.8619 -3.3297  0.1523
  190DOPC  C21823470   2.545   1.813  14.442  0.0711  0.3624  0.7223
  190DOPC  H18R23471   2.554   1.704  14.423 -1.6265 -0.0049  1.8234
  190DOPC  H18S23472   2.482   1.832  14.531  0.6191  0.0445  1.1888
  190DOPC  H18T23473   2.646   1.851  14.468  1.2369 -3.1942  1.9456
  190DOPC   C3323474   3.403   1.767  12.727 -0.0950  0.2755  0.0665
  190DOPC   H3X23475   3.495   1.745  12.668  0.8902 -0.6978  1.8744
  190DOPC   H3Y23476   3.347   1.676  12.758  0.4338 -0.6521 -1.5830
  190DOPC   C3423477   3.442   1.820  12.864 -0.4206 -0.9963  0.2509
  190DOPC   H4X23478   3.346   1.849  12.912 -1.5750  0.6893 -2.7576
  190DOPC   H4Y23479   3.502   1.913  12.860 -0.3751 -1.0758 -1.7556
  190DOPC   C3523480   3.511   1.710  12.945  0.1129 -0.4773 -0.4722
  190DOPC   H5X23481   3.613   1.686  12.906  0.5287  0.0663  0.2473
  190DOPC   H5Y23482   3.449   1.619  12.934 -1.0430  0.2819 -0.3744
  190DOPC   C3623483   3.536   1.751  13.092 -0.1850 -0.6386 -0.4124
  190DOPC   H6X23484   3.583   1.851  13.084  1.3733 -1.3205 -0.0774
  190DOPC   H6Y23485   3.440   1.750  13.148  0.8366 -1.7492  1.3842
  190DOPC   C3723486   3.625   1.655  13.176 -0.0893  0.5059  0.8959
  190DOPC   H7X23487   3.601   1.555  13.135  1.3821  1.4973 -2.7779
  190DOPC   H7Y23488   3.731   1.671  13.150 -0.4452  1.4919 -0.0363
  190DOPC   C3823489   3.598   1.670  13.329 -0.0046 -0.8161  0.3997
  190DOPC   H8X23490   3.657   1.595  13.385 -0.9077 -0.8709  1.3131
  190DOPC   H8Y23491   3.494   1.651  13.364  0.2510  0.8213  2.1984
  190DOPC   C3923492   3.641   1.808  13.372 -0.5137 -0.4597  0.1944
  190DOPC   H9X23493   3.578   1.879  13.316 -1.6640 -1.9783 -0.5159
  190DOPC  C31023494   3.714   1.844  13.477 -0.0820  0.1920  0.1539
  190DOPC  H10X23495   3.751   1.948  13.484 -0.8061  0.6978 -2.3914
  190DOPC  C31123496   3.778   1.757  13.575 -0.0478  0.4375  0.0437
  190DOPC  H11X23497   3.885   1.772  13.550  0.1916 -0.3909  0.5494
  190DOPC  H11Y23498   3.752   1.650  13.563 -1.8344  0.8882 -0.4255
  190DOPC  C31223499   3.752   1.803  13.719 -0.1037  0.0404 -0.0961
  190DOPC  H12X23500   3.644   1.785  13.736  0.3537 -1.4815  1.5189
  190DOPC  H12Y23501   3.777   1.909  13.740 -2.7206  0.7978 -0.3882
  190DOPC  C31323502   3.834   1.718  13.821 -0.7381 -0.0546  0.0387
  190DOPC  H13X23503   3.830   1.612  13.787 -0.8673  0.7050 -2.4920
  190DOPC  H13Y23504   3.941   1.746  13.831 -0.5906 -1.1458  2.3063
  190DOPC  C31423505   3.782   1.720  13.963  0.5183 -0.0553 -0.5566
  190DOPC  H14X23506   3.748   1.822  13.991  2.1854  0.7788 -1.4112
  190DOPC  H14Y23507   3.690   1.659  13.962 -0.2311  0.9579  1.2896
  190DOPC  C31523508   3.884   1.678  14.073 -0.0854  0.5706 -0.4758
  190DOPC  H15X23509   3.955   1.758  14.104 -0.0439  0.2858  0.1815
  190DOPC  H15Y23510   3.951   1.594  14.046 -1.0499 -0.3239 -0.1816
  190DOPC  C31623511   3.812   1.624  14.198 -0.3883 -0.0800 -0.7640
  190DOPC  H16X23512   3.747   1.537  14.176  1.7228 -2.0172  0.2475
  190DOPC  H16Y23513   3.882   1.579  14.272 -0.2771  0.0495 -0.7889
  190DOPC  C31723514   3.734   1.731  14.265 -0.0228 -0.5281 -0.6197
  190DOPC  H17X23515   3.800   1.810  14.305  0.1890 -1.6865  1.5046
  190DOPC  H17Y23516   3.656   1.779  14.202 -1.2221  1.2510  2.0256
  190DOPC  C31823517   3.653   1.668  14.378 -0.2982  0.8324 -0.5079
  190DOPC  H18X23518   3.605   1.578  14.334  1.5041  0.0816 -1.0435
  190DOPC  H18Y23519   3.724   1.629  14.454  2.0344  2.3966 -1.7576
  190DOPC  H18Z23520   3.588   1.743  14.428  0.5560  1.2505  0.0100
  191DOPC     N23521   4.702   1.530  11.715 -0.0706 -0.3485  0.2280
  191DOPC   C1223522   4.674   1.523  11.865  0.0846 -0.3958  0.0866
  191DOPC  H12A23523   4.577   1.477  11.873 -0.9155  0.4729 -4.2397
  191DOPC  H12B23524   4.672   1.624  11.903  1.0382 -0.7149  1.0266
  191DOPC   C1323525   4.577   1.580  11.645 -0.6882 -0.0340  0.1909
  191DOPC  H13A23526   4.535   1.663  11.701  0.6376 -0.4913  1.9464
  191DOPC  H13B23527   4.594   1.596  11.540  0.0588 -2.8546 -0.1938
  191DOPC  H13C23528   4.496   1.510  11.636 -0.5515 -0.0501 -1.0058
  191DOPC   C1423529   4.733   1.400  11.644 -0.4600 -0.2063 -0.1136
  191DOPC  H14A23530   4.648   1.334  11.638  0.0032 -0.8570  0.3458
  191DOPC  H14B23531   4.753   1.417  11.539 -2.0776  0.0388 -0.3997
  191DOPC  H14C23532   4.813   1.342  11.689  0.5053  1.9489  1.1258
  191DOPC   C1523533   4.813   1.626  11.691 -0.2949 -0.0049 -0.1335
  191DOPC  H15A23534   4.849   1.619  11.589  0.9893  1.3988  0.1889
  191DOPC  H15B23535   4.889   1.606  11.765 -1.1487 -0.5496  0.6178
  191DOPC  H15C23536   4.777   1.725  11.712  0.7710  1.1362 -3.1905
  191DOPC   C1123537   4.768   1.435  11.946 -0.7982  0.6764  0.1913
  191DOPC  H11A23538   4.736   1.432  12.052 -0.8752 -1.9135  0.1623
  191DOPC  H11B23539   4.760   1.328  11.917  1.1315  0.6958 -0.5922
  191DOPC     P23540   5.026   1.390  11.920 -0.0198 -0.3853 -0.0062
  191DOPC   O1323541   5.147   1.465  11.885 -0.1136 -0.4847  0.3663
  191DOPC   O1423542   4.987   1.292  11.821 -0.0327 -0.1418  0.0061
  191DOPC   O1223543   4.898   1.487  11.943  0.1216 -0.0470 -0.3066
  191DOPC   O1123544   5.061   1.318  12.059 -0.4914 -0.2015  0.2644
  191DOPC    C123545   5.025   1.384  12.182 -0.2769  0.5955  0.0703
  191DOPC    HA23546   4.936   1.327  12.218  0.3677 -2.1656 -2.3502
  191DOPC    HB23547   5.011   1.494  12.180 -0.0103  0.6855  1.6554
  191DOPC    C223548   5.138   1.346  12.286  0.0605 -0.3666  1.1038
  191DOPC    HS23549   5.141   1.236  12.299  3.4468 -0.5289 -0.0100
  191DOPC   O2123550   5.104   1.422  12.409  0.1636  0.1159  0.0729
  191DOPC   C2123551   5.136   1.354  12.517 -0.6547  0.6449  0.1570
  191DOPC   O2223552   5.182   1.240  12.518  0.4789  0.0950 -0.0013
  191DOPC   C2223553   5.127   1.443  12.646  0.1283 -0.1912  0.1329
  191DOPC   H2R23554   5.022   1.444  12.681 -0.4401 -1.9119 -1.3953
  191DOPC   H2S23555   5.163   1.546  12.625 -0.0841 -0.2183 -0.3700
  191DOPC    C323556   5.283   1.388  12.237 -0.3841 -0.1437 -0.2425
  191DOPC    HX23557   5.291   1.497  12.217  2.0517  0.0389  1.3150
  191DOPC    HY23558   5.302   1.333  12.143  3.0797  0.1943  0.1124
  191DOPC   O3123559   5.391   1.363  12.329  0.1635  0.0504  0.2180
  191DOPC   C3123560   5.439   1.237  12.343  0.0582 -0.1194  0.5262
  191DOPC   O3223561   5.438   1.151  12.257 -0.0483  0.5267 -0.0737
  191DOPC   C3223562   5.509   1.220  12.476 -0.0601 -0.5279 -0.0038
  191DOPC   H2X23563   5.594   1.292  12.472  0.2983 -0.9744 -1.1540
  191DOPC   H2Y23564   5.437   1.254  12.553 -1.0932  0.7083 -1.4563
  191DOPC   C2323565   5.216   1.398  12.764 -0.0309  0.1773 -0.3477
  191DOPC   H3R23566   5.326   1.412  12.753 -0.1145  1.7207  0.6263
  191DOPC   H3S23567   5.203   1.288  12.769 -0.6572  0.2254 -0.8399
  191DOPC   C2423568   5.177   1.452  12.901 -0.0720  0.5982 -0.4687
  191DOPC   H4R23569   5.072   1.427  12.927  0.6211 -0.0181  1.9994
  191DOPC   H4S23570   5.197   1.561  12.914 -2.7793  0.9549  1.6039
  191DOPC   C2523571   5.256   1.377  13.017  0.0207 -0.0118  1.0086
  191DOPC   H5R23572   5.358   1.362  12.977 -0.1470 -0.9076  0.8910
  191DOPC   H5S23573   5.218   1.275  13.036 -0.3607 -0.5088 -1.8714
  191DOPC   C2623574   5.252   1.456  13.152 -0.4448  0.3166  0.1608
  191DOPC   H6R23575   5.147   1.465  13.187  0.1683  0.2378  2.1163
  191DOPC   H6S23576   5.292   1.559  13.141  1.0887 -0.1878  0.6959
  191DOPC   C2723577   5.340   1.395  13.263  0.8055  0.0469  0.4798
  191DOPC   H7R23578   5.444   1.379  13.227  1.3485  1.7923  1.1931
  191DOPC   H7S23579   5.300   1.297  13.296 -1.0083  1.1086  1.5900
  191DOPC   C2823580   5.366   1.487  13.387  0.0598 -0.1616 -0.9698
  191DOPC   H8R23581   5.398   1.586  13.347 -0.9443  0.7015  0.3021
  191DOPC   H8S23582   5.455   1.447  13.439 -0.1333 -2.0046 -1.9762
  191DOPC   C2923583   5.252   1.499  13.481 -0.8931 -0.4922 -0.0531
  191DOPC   H9R23584   5.163   1.550  13.442  0.1556  0.3929 -1.3606
  191DOPC  C21023585   5.249   1.453  13.611  0.0490 -0.8878  0.6434
  191DOPC  H10R23586   5.163   1.470  13.677  0.3546  0.0383  0.8171
  191DOPC  C21123587   5.362   1.388  13.692  0.1291 -0.0918 -0.6051
  191DOPC  H11R23588   5.456   1.398  13.633 -0.1521  0.1905 -1.0185
  191DOPC  H11S23589   5.348   1.279  13.705 -0.7225  0.0682 -0.1350
  191DOPC  C21223590   5.398   1.438  13.832  0.2945 -0.0382  0.1454
  191DOPC  H12R23591   5.304   1.428  13.890  0.9691 -0.0560  1.2711
  191DOPC  H12S23592   5.425   1.546  13.822  2.7533 -0.6312 -0.4425
  191DOPC  C21323593   5.515   1.365  13.907  0.3351 -0.1200  0.3924
  191DOPC  H13R23594   5.601   1.374  13.837  1.1301  0.8356  1.4533
  191DOPC  H13S23595   5.485   1.259  13.921 -0.5330 -0.0594 -0.8265
  191DOPC  C21423596   5.550   1.423  14.047  0.2075  0.1875 -0.0930
  191DOPC  H14R23597   5.549   1.533  14.033 -2.4719  0.1396 -0.8363
  191DOPC  H14S23598   5.645   1.382  14.087 -1.4710 -2.4882  1.5322
  191DOPC  C21523599   5.451   1.379  14.160 -0.1099 -0.4961  0.4684
  191DOPC  H15R23600   5.486   1.433  14.251 -2.7387  0.1205  1.1889
  191DOPC  H15S23601   5.470   1.272  14.184  2.2115  0.3321  2.7818
  191DOPC  C21623602   5.297   1.409  14.144  0.0592 -0.2803  0.3239
  191DOPC  H16R23603   5.262   1.339  14.066  2.2728 -0.3696 -0.6777
  191DOPC  H16S23604   5.283   1.512  14.103 -1.0581 -0.1568  0.9755
  191DOPC  C21723605   5.207   1.377  14.260 -0.1234  0.2310  0.3101
  191DOPC  H17R23606   5.237   1.433  14.352  1.1432 -0.7559  0.5230
  191DOPC  H17S23607   5.218   1.271  14.290  2.2680  1.0277  2.7190
  191DOPC  C21823608   5.067   1.431  14.223 -0.2012  0.3586  0.9819
  191DOPC  H18R23609   4.997   1.422  14.308  0.4813  0.1786  1.5365
  191DOPC  H18S23610   5.037   1.379  14.130  0.1729  1.0059  0.4845
  191DOPC  H18T23611   5.080   1.534  14.183 -0.2447 -0.3023 -0.8536
  191DOPC   C3323612   5.558   1.080  12.506 -0.1802 -0.2450 -0.2481
  191DOPC   H3X23613   5.623   1.036  12.426  0.7549  0.8222 -0.0876
  191DOPC   H3Y23614   5.468   1.016  12.517 -2.7461  3.3672  1.5392
  191DOPC   C3423615   5.635   1.075  12.637  0.2104  0.2463 -0.1362
  191DOPC   H4X23616   5.734   1.125  12.629 -0.0416  1.0622  1.4762
  191DOPC   H4Y23617   5.660   0.971  12.667  0.4129  0.3661  0.1126
  191DOPC   C3523618   5.554   1.135  12.758 -0.5217  0.5177  0.3680
  191DOPC   H5X23619   5.447   1.107  12.766 -0.9029  1.7104 -0.3392
  191DOPC   H5Y23620   5.569   1.245  12.753  2.0990  0.2313  0.3540
  191DOPC   C3623621   5.617   1.095  12.895 -0.1113 -0.0063 -0.1096
  191DOPC   H6X23622   5.600   0.985  12.902  0.2207 -0.2061 -1.8957
  191DOPC   H6Y23623   5.726   1.117  12.886 -0.4841  1.6122 -1.0028
  191DOPC   C3723624   5.556   1.160  13.015 -0.0758 -0.5803 -0.3868
  191DOPC   H7X23625   5.571   1.270  13.023  1.6551 -0.9338  2.6453
  191DOPC   H7Y23626   5.446   1.146  13.004 -0.7883  1.8712  2.3404
  191DOPC   C3823627   5.599   1.114  13.156  0.5867 -0.2058 -0.0671
  191DOPC   H8X23628   5.566   1.008  13.157 -0.1081 -0.0089 -0.6895
  191DOPC   H8Y23629   5.544   1.172  13.233  0.4387 -1.4372  0.7806
  191DOPC   C3923630   5.745   1.136  13.173 -1.0432 -0.3317  0.2240
  191DOPC   H9X23631   5.809   1.107  13.088 -0.8987 -1.4202  0.6937
  191DOPC  C31023632   5.805   1.170  13.290 -0.3453  0.0902 -0.7904
  191DOPC  H10X23633   5.913   1.181  13.306 -0.3000  3.2692 -2.5288
  191DOPC  C31123634   5.738   1.207  13.427 -0.2572 -0.3335 -0.0363
  191DOPC  H11X23635   5.642   1.263  13.416 -0.8966 -1.1043  1.4178
  191DOPC  H11Y23636   5.809   1.267  13.487  0.6391  0.4602 -1.8264
  191DOPC  C31223637   5.706   1.090  13.511 -0.1630  0.2753  0.3595
  191DOPC  H12X23638   5.807   1.047  13.527  0.8997  2.1171 -1.0006
  191DOPC  H12Y23639   5.648   1.021  13.446 -1.4539  1.2460  0.4546
  191DOPC  C31323640   5.648   1.116  13.646  0.1809  0.2209  1.0809
  191DOPC  H13X23641   5.708   1.194  13.698 -2.1929  2.3710  0.8402
  191DOPC  H13Y23642   5.546   1.155  13.622  1.1389  1.3278 -1.5048
  191DOPC  C31423643   5.636   0.979  13.727 -0.1402 -0.3705  0.0103
  191DOPC  H14X23644   5.555   0.918  13.683 -0.1853  0.6300 -1.3348
  191DOPC  H14Y23645   5.739   0.937  13.725  1.3988  3.1165 -1.0862
  191DOPC  C31523646   5.606   0.995  13.881  0.9184  1.2729  0.4448
  191DOPC  H15X23647   5.512   1.054  13.882 -1.2858 -1.9114 -1.0451
  191DOPC  H15Y23648   5.685   1.061  13.923  1.0194 -0.6494  3.6782
  191DOPC  C31623649   5.613   0.867  13.952  0.1644  0.4709  0.1612
  191DOPC  H16X23650   5.528   0.802  13.922  1.7227 -1.6921  0.1718
  191DOPC  H16Y23651   5.704   0.804  13.935  1.0373  1.5349  0.7275
  191DOPC  C31723652   5.608   0.878  14.104  0.1289 -0.4256 -0.4987
  191DOPC  H17X23653   5.692   0.949  14.125 -0.3893  0.1563 -0.3406
  191DOPC  H17Y23654   5.519   0.929  14.148  0.0266 -2.2703  1.5792
  191DOPC  C31823655   5.634   0.748  14.178 -0.0652 -0.4900 -0.0664
  191DOPC  H18X23656   5.561   0.672  14.142 -0.7719  0.4648 -0.7178
  191DOPC  H18Y23657   5.733   0.715  14.139  0.2249  1.1465 -0.8121
  191DOPC  H18Z23658   5.629   0.746  14.289 -2.8001 -1.2140 -0.1240
  192DOPC     N23659   1.039   4.778  11.351  0.2365 -0.2374 -0.1650
  192DOPC   C1223660   1.131   4.885  11.405 -0.1539 -0.5713 -0.5614
  192DOPC  H12A23661   1.137   4.971  11.340 -2.8847 -0.3013 -0.5783
  192DOPC  H12B23662   1.229   4.839  11.415 -0.8328 -2.1970 -1.0453
  192DOPC   C1323663   1.063   4.647  11.420 -0.5078 -0.0961 -0.4393
  192DOPC  H13A23664   1.166   4.615  11.409 -1.0781 -1.9850 -0.5183
  192DOPC  H13B23665   1.034   4.652  11.524  1.7777  0.4839  0.2328
  192DOPC  H13C23666   1.003   4.572  11.372 -1.0388 -0.5215  0.8574
  192DOPC   C1423667   1.057   4.747  11.206 -0.4217  0.0139  0.6539
  192DOPC  H14A23668   1.038   4.832  11.142  2.1479 -0.5666 -1.0412
  192DOPC  H14B23669   1.155   4.712  11.177 -0.3284  0.8687 -0.1239
  192DOPC  H14C23670   0.992   4.667  11.173  1.3194 -0.8353 -0.9199
  192DOPC   C1523671   0.895   4.819  11.375 -0.2073  0.1415  0.2815
  192DOPC  H15A23672   0.886   4.875  11.468 -4.3747  0.3278 -0.0412
  192DOPC  H15B23673   0.823   4.745  11.406 -0.8929  0.2291 -1.0206
  192DOPC  H15C23674   0.874   4.885  11.292 -0.3521  2.2987  1.9190
  192DOPC   C1123675   1.115   4.949  11.547  0.0425  0.3365  0.0866
  192DOPC  H11A23676   1.105   4.865  11.620  2.7898 -0.6507 -0.5592
  192DOPC  H11B23677   1.203   5.012  11.569 -0.8270  2.5815 -2.4047
  192DOPC     P23678   0.994   5.179  11.559 -0.3804 -0.0850  0.2356
  192DOPC   O1323679   0.850   5.217  11.560  0.1594  0.4087  0.3271
  192DOPC   O1423680   1.080   5.232  11.455  0.4989  0.7223 -0.4420
  192DOPC   O1223681   0.997   5.023  11.554 -0.3889 -0.2076  0.4222
  192DOPC   O1123682   1.046   5.214  11.696  0.0370  0.1888 -0.5169
  192DOPC    C123683   1.036   5.121  11.811 -0.7684  0.4063  0.4732
  192DOPC    HA23684   1.123   5.052  11.817 -0.7199  0.4616  0.4086
  192DOPC    HB23685   0.942   5.064  11.795 -0.1365 -0.4497 -0.2459
  192DOPC    C223686   1.034   5.200  11.935  0.5156  0.5776 -0.5764
  192DOPC    HS23687   1.130   5.255  11.938  1.0889 -0.2763 -2.0347
  192DOPC   O2123688   1.004   5.111  12.042  0.6289  0.4081  0.1169
  192DOPC   C2123689   1.093   5.124  12.143  0.0920  0.1379  0.5733
  192DOPC   O2223690   1.178   5.208  12.149  0.6300 -0.7730 -0.1705
  192DOPC   C2223691   1.078   5.003  12.243  0.1231  0.5755  0.3242
  192DOPC   H2R23692   1.172   4.945  12.231  0.0906  0.7748 -0.9814
  192DOPC   H2S23693   1.006   4.929  12.204  0.8180  0.1666 -0.1934
  192DOPC    C323694   0.927   5.313  11.922  0.2888 -0.2934 -0.3553
  192DOPC    HX23695   0.853   5.260  11.858  0.6448 -2.3280  0.8309
  192DOPC    HY23696   0.962   5.394  11.854  1.6257  0.8815  1.6387
  192DOPC   O3123697   0.870   5.351  12.046  0.4833  0.4335  0.2588
  192DOPC   C3123698   0.935   5.450  12.111 -0.8282 -0.0888 -0.2578
  192DOPC   O3223699   1.031   5.505  12.065  0.0019 -0.2043 -0.0799
  192DOPC   C3223700   0.876   5.473  12.246 -0.6348 -0.0910 -0.1040
  192DOPC   H2X23701   0.864   5.582  12.265  0.9086  0.2283 -0.8060
  192DOPC   H2Y23702   0.775   5.428  12.247 -0.5378 -0.3005  0.3551
  192DOPC   C2323703   1.051   5.043  12.388 -0.0145  0.2274 -0.1970
  192DOPC   H3R23704   0.946   5.078  12.394  0.1527  0.8029 -0.5367
  192DOPC   H3S23705   1.119   5.130  12.401  0.9277 -0.8307  2.9324
  192DOPC   C2423706   1.085   4.923  12.480  0.2999 -0.1150 -0.2038
  192DOPC   H4R23707   1.185   4.878  12.464 -0.7074 -3.1725  1.2658
  192DOPC   H4S23708   1.025   4.835  12.448  0.3946  0.4073 -1.9563
  192DOPC   C2523709   1.048   4.969  12.622 -0.4035  0.0818 -0.4872
  192DOPC   H5R23710   0.954   5.028  12.612  0.1491  1.0464 -0.1996
  192DOPC   H5S23711   1.128   5.037  12.659 -2.0356  0.7525  2.0715
  192DOPC   C2623712   1.032   4.851  12.723 -0.0066  0.2896  0.3420
  192DOPC   H6R23713   1.136   4.815  12.743  0.6292  1.5843 -0.4969
  192DOPC   H6S23714   0.980   4.762  12.683  0.3387  1.3470 -2.6704
  192DOPC   C2723715   0.963   4.886  12.861 -0.0697  0.2674 -0.0246
  192DOPC   H7R23716   0.971   4.799  12.929 -3.0981  0.3219  0.5360
  192DOPC   H7S23717   0.858   4.893  12.824 -0.1507 -0.8963 -0.0483
  192DOPC   C2823718   1.009   5.019  12.923  0.0451  0.1249  0.6785
  192DOPC   H8R23719   0.953   5.034  13.017 -0.8717 -0.2338  0.1987
  192DOPC   H8S23720   0.984   5.101  12.853  2.3509 -0.9391 -1.5970
  192DOPC   C2923721   1.160   5.018  12.949 -0.4664  0.5219 -0.1787
  192DOPC   H9R23722   1.228   5.061  12.874  1.2545 -0.8625  0.5037
  192DOPC  C21023723   1.213   4.952  13.058 -0.8905 -0.5930  0.4193
  192DOPC  H10R23724   1.322   4.964  13.065 -0.7639  0.0211 -1.8162
  192DOPC  C21123725   1.150   4.879  13.177 -0.3853  0.3234  0.3949
  192DOPC  H11R23726   1.206   4.784  13.188  0.4204  0.8819  1.1993
  192DOPC  H11S23727   1.043   4.861  13.153 -0.3649 -0.7963  1.0676
  192DOPC  C21223728   1.160   4.951  13.310 -0.3491 -0.6622 -0.5530
  192DOPC  H12R23729   1.121   5.055  13.298  1.3437 -0.2095 -2.5767
  192DOPC  H12S23730   1.268   4.964  13.329 -0.2494 -0.5157 -1.2179
  192DOPC  C21323731   1.086   4.877  13.428 -0.5824  0.4360 -0.2990
  192DOPC  H13R23732   1.102   4.768  13.411 -0.2556  0.4675 -0.2078
  192DOPC  H13S23733   0.979   4.901  13.417 -0.5346  0.0839 -1.7659
  192DOPC  C21423734   1.152   4.927  13.554  0.3455 -0.2175 -0.5154
  192DOPC  H14R23735   1.167   5.037  13.548 -0.7263 -0.1109 -1.6749
  192DOPC  H14S23736   1.256   4.889  13.549  0.9878  1.3529  0.2327
  192DOPC  C21523737   1.078   4.899  13.684 -0.8402 -0.1108  0.3762
  192DOPC  H15R23738   1.147   4.890  13.770 -1.8920 -1.3271  1.1238
  192DOPC  H15S23739   1.028   4.800  13.682 -1.5184  0.1344  2.6252
  192DOPC  C21623740   0.968   5.000  13.717  0.1547 -0.8881 -0.1982
  192DOPC  H16R23741   0.897   5.006  13.632 -1.3005 -3.1284  0.7780
  192DOPC  H16S23742   1.017   5.097  13.741  1.2357 -1.7416  1.2511
  192DOPC  C21723743   0.883   4.963  13.842  0.2359  0.0531  1.1229
  192DOPC  H17R23744   0.943   4.951  13.934 -1.8348 -0.5601  2.4750
  192DOPC  H17S23745   0.845   4.865  13.806 -0.1923  1.0206 -1.2770
  192DOPC  C21823746   0.770   5.056  13.881  0.5385  0.0686 -0.4457
  192DOPC  H18R23747   0.711   5.016  13.967 -0.0823  0.6474 -0.5989
  192DOPC  H18S23748   0.703   5.065  13.794 -1.3909  1.1140  1.0797
  192DOPC  H18T23749   0.802   5.157  13.913  0.3939 -0.3629  1.1852
  192DOPC   C3323750   0.962   5.425  12.368 -0.0178 -0.2016 -0.2093
  192DOPC   H3X23751   1.049   5.494  12.377 -0.0146 -0.3605  1.3626
  192DOPC   H3Y23752   1.001   5.323  12.346  0.2508 -0.5347  1.6239
  192DOPC   C3423753   0.889   5.423  12.504  0.4007 -0.5428  0.2935
  192DOPC   H4X23754   0.827   5.331  12.511  1.3914 -1.3495 -1.0702
  192DOPC   H4Y23755   0.829   5.517  12.502 -1.5386 -1.7316 -1.8723
  192DOPC   C3523756   0.985   5.412  12.627  0.0141 -0.3067 -0.2858
  192DOPC   H5X23757   1.056   5.497  12.617  0.6235 -0.9776 -2.3703
  192DOPC   H5Y23758   1.051   5.324  12.635  0.2241 -0.1093  0.1767
  192DOPC   C3623759   0.902   5.408  12.753 -0.1963  0.2624  0.4429
  192DOPC   H6X23760   0.822   5.485  12.745  1.2753  1.8066  0.0346
  192DOPC   H6Y23761   0.858   5.306  12.752  1.4113 -0.4555  0.7286
  192DOPC   C3723762   0.994   5.431  12.872  0.1562  0.3823  0.2700
  192DOPC   H7X23763   1.077   5.360  12.848 -0.4880 -0.0857 -0.6238
  192DOPC   H7Y23764   1.025   5.538  12.873 -3.4709  1.5611 -0.3250
  192DOPC   C3823765   0.923   5.408  13.002  0.2080  0.8081 -0.5889
  192DOPC   H8X23766   0.876   5.307  12.999  1.6744  0.0780 -0.3155
  192DOPC   H8Y23767   0.844   5.481  13.027  1.4065  0.9672  3.3017
  192DOPC   C3923768   1.024   5.430  13.118 -0.7074  0.4316  0.1601
  192DOPC   H9X23769   1.120   5.469  13.082  1.1326 -2.9259  1.0913
  192DOPC  C31023770   1.001   5.396  13.253 -0.2087 -0.4001 -0.2176
  192DOPC  H10X23771   1.083   5.419  13.323  0.6308 -0.6639 -1.0972
  192DOPC  C31123772   0.881   5.342  13.318  0.8398  0.8678 -0.4710
  192DOPC  H11X23773   0.902   5.235  13.342  0.1750  0.4773 -1.5710
  192DOPC  H11Y23774   0.805   5.351  13.237  2.6404  0.9209 -2.2445
  192DOPC  C31223775   0.841   5.409  13.454  0.1572 -0.3637  0.2356
  192DOPC  H12X23776   0.750   5.361  13.494 -2.0152  2.7435 -0.5850
  192DOPC  H12Y23777   0.812   5.513  13.426 -1.9123 -0.9748 -0.0220
  192DOPC  C31323778   0.951   5.422  13.563  0.2076 -0.1596  0.2856
  192DOPC  H13X23779   0.999   5.323  13.578 -0.3704 -0.6479 -0.9752
  192DOPC  H13Y23780   1.035   5.483  13.524  0.2061 -1.6381 -2.2605
  192DOPC  C31423781   0.877   5.473  13.684 -0.5643 -0.4165  0.0184
  192DOPC  H14X23782   0.840   5.573  13.651  2.7720  0.3018 -2.0047
  192DOPC  H14Y23783   0.794   5.403  13.709 -0.5201  0.2620  2.3446
  192DOPC  C31523784   0.968   5.500  13.806 -0.2488 -0.3010 -0.5029
  192DOPC  H15X23785   1.059   5.554  13.774 -0.6192 -0.3323 -1.6558
  192DOPC  H15Y23786   0.988   5.396  13.839 -1.0033 -0.3397 -0.1310
  192DOPC  C31623787   0.881   5.572  13.907  0.6435  0.3990 -0.2216
  192DOPC  H16X23788   0.879   5.673  13.863 -2.0395  0.9791  1.0505
  192DOPC  H16Y23789   0.774   5.544  13.898  0.2624  1.8955 -0.6195
  192DOPC  C31723790   0.936   5.567  14.050 -0.1095  0.0824 -0.2111
  192DOPC  H17X23791   0.927   5.462  14.087 -2.7487  0.1576 -0.3933
  192DOPC  H17Y23792   1.041   5.595  14.029 -0.1613 -0.5884 -1.4641
  192DOPC  C31823793   0.864   5.668  14.138 -0.4997 -0.1369  0.4250
  192DOPC  H18X23794   0.863   5.766  14.086  2.7008 -0.8455 -1.2206
  192DOPC  H18Y23795   0.760   5.636  14.161 -1.2380  1.3989 -0.5970
  192DOPC  H18Z23796   0.925   5.678  14.231 -1.5160  0.2182  1.0690
  193DOPC     N23797   6.495   1.609  11.607 -0.2994 -0.0387  0.2896
  193DOPC   C1223798   6.637   1.647  11.658  0.3627 -0.1549  0.4289
  193DOPC  H12A23799   6.702   1.645  11.572 -1.7487 -1.4562 -1.2223
  193DOPC  H12B23800   6.652   1.579  11.740 -0.7578  0.1623  0.9249
  193DOPC   C1323801   6.388   1.646  11.700  0.4210 -0.6044 -0.0988
  193DOPC  H13A23802   6.381   1.752  11.722  0.4274 -0.5393 -0.4052
  193DOPC  H13B23803   6.289   1.621  11.665 -0.9700  2.7391  1.0449
  193DOPC  H13C23804   6.396   1.594  11.794  2.2058 -0.1132  0.0748
  193DOPC   C1423805   6.492   1.457  11.578  0.7850  0.2988 -0.0493
  193DOPC  H14A23806   6.500   1.392  11.664  1.6579 -2.0716 -1.7962
  193DOPC  H14B23807   6.400   1.424  11.531  1.5254 -2.3590  0.1913
  193DOPC  H14C23808   6.574   1.420  11.519  1.3648  1.2982  0.1130
  193DOPC   C1523809   6.474   1.683  11.480 -0.0907  0.4153  0.0975
  193DOPC  H15A23810   6.543   1.654  11.402  0.0620  2.1976 -0.4717
  193DOPC  H15B23811   6.468   1.790  11.486 -0.2692  0.4336 -0.3939
  193DOPC  H15C23812   6.374   1.657  11.449  0.0107  0.3974 -0.2230
  193DOPC   C1123813   6.655   1.798  11.701  0.0686 -0.6864  0.0905
  193DOPC  H11A23814   6.626   1.866  11.618 -1.5526  1.5655  2.3568
  193DOPC  H11B23815   6.590   1.829  11.786  0.9538 -0.1468  0.5748
  193DOPC     P23816   6.838   1.768  11.887 -0.3113 -0.3952  0.2006
  193DOPC   O1323817   6.840   1.889  11.966 -0.2393 -0.4080 -0.0530
  193DOPC   O1423818   6.971   1.705  11.868 -0.3623  0.1671  0.0117
  193DOPC   O1223819   6.791   1.809  11.745  0.7330 -0.2942 -0.1824
  193DOPC   O1123820   6.741   1.662  11.945 -0.3825  0.4280 -0.1171
  193DOPC    C123821   6.663   1.688  12.061 -0.2266 -0.5004 -0.0967
  193DOPC    HA23822   6.570   1.627  12.070 -1.2317  1.2262  2.5022
  193DOPC    HB23823   6.624   1.792  12.069 -0.3233 -0.6185  1.3868
  193DOPC    C223824   6.754   1.679  12.191 -0.4598  0.2656  0.1956
  193DOPC    HS23825   6.832   1.757  12.181  0.8254 -0.9159  0.7868
  193DOPC   O2123826   6.805   1.546  12.186 -0.0034  0.8230  0.3217
  193DOPC   C2123827   6.915   1.528  12.256 -0.0202 -1.3018  0.6281
  193DOPC   O2223828   6.985   1.622  12.299 -0.0676 -0.1787 -0.2562
  193DOPC   C2223829   6.953   1.380  12.269 -0.4194 -0.1204  0.3017
  193DOPC   H2R23830   7.045   1.361  12.210 -0.2873  1.6883 -0.1573
  193DOPC   H2S23831   6.871   1.322  12.223  0.5175 -1.0228 -0.2614
  193DOPC    C323832   6.669   1.711  12.318 -0.2458 -0.2357 -0.0348
  193DOPC    HX23833   6.586   1.640  12.337 -1.3090  0.8744 -0.4328
  193DOPC    HY23834   6.627   1.810  12.292  3.1863  0.7428 -2.5638
  193DOPC   O3123835   6.748   1.712  12.440  0.2176 -0.5628  0.3614
  193DOPC   C3123836   6.813   1.815  12.476 -0.4702 -0.2233 -0.9265
  193DOPC   O3223837   6.834   1.914  12.407  0.5474  0.1417  0.1395
  193DOPC   C3223838   6.859   1.806  12.623 -0.0929  0.9967 -0.1016
  193DOPC   H2X23839   6.772   1.791  12.690 -0.4237 -1.4779 -1.0026
  193DOPC   H2Y23840   6.918   1.714  12.641 -0.1415  1.1081  0.6787
  193DOPC   C2323841   6.959   1.356  12.420 -0.5646 -0.5619  0.4172
  193DOPC   H3R23842   7.039   1.419  12.465  0.5190 -0.8539 -1.0245
  193DOPC   H3S23843   6.995   1.251  12.436  0.2365 -0.4397 -0.4780
  193DOPC   C2423844   6.819   1.370  12.493 -0.1526  0.7563 -0.5017
  193DOPC   H4R23845   6.741   1.315  12.438  0.1692  1.2312 -1.4552
  193DOPC   H4S23846   6.788   1.477  12.493  0.8938  1.0698 -0.5958
  193DOPC   C2523847   6.815   1.305  12.632 -0.3618 -0.4500  0.2617
  193DOPC   H5R23848   6.846   1.201  12.612  0.6401  0.0301 -0.7900
  193DOPC   H5S23849   6.707   1.305  12.661 -0.6234  1.4728 -0.4886
  193DOPC   C2623850   6.888   1.378  12.739 -0.1960 -0.4522 -0.2784
  193DOPC   H6R23851   6.843   1.479  12.753  1.2564  0.1064  0.6555
  193DOPC   H6S23852   6.989   1.409  12.705  0.5579 -1.8367  0.6201
  193DOPC   C2723853   6.889   1.291  12.864  0.2427 -0.8737  0.1735
  193DOPC   H7R23854   6.959   1.206  12.851  1.7261  0.4360 -0.6148
  193DOPC   H7S23855   6.786   1.249  12.865 -0.0358 -0.2097  0.6086
  193DOPC   C2823856   6.903   1.369  12.994 -0.0574  0.1714 -0.2360
  193DOPC   H8R23857   6.849   1.325  13.080 -1.2298 -1.0654 -1.5501
  193DOPC   H8S23858   6.846   1.462  12.975  0.3302  0.4393 -0.0820
  193DOPC   C2923859   7.048   1.381  13.040 -0.0815  0.6010 -0.0586
  193DOPC   H9R23860   7.116   1.306  12.997  0.2868  2.1041 -2.2552
  193DOPC  C21023861   7.103   1.493  13.094  0.2028 -0.2449 -0.2593
  193DOPC  H10R23862   7.211   1.498  13.114 -0.0403  0.3593  0.9652
  193DOPC  C21123863   7.017   1.608  13.136 -0.3438  0.4027 -0.7375
  193DOPC  H11R23864   6.909   1.586  13.147 -0.6271  1.5723 -1.0714
  193DOPC  H11S23865   7.014   1.687  13.057  1.2243  1.6312  0.3706
  193DOPC  C21223866   7.039   1.669  13.272 -0.5811 -0.6302  0.4614
  193DOPC  H12R23867   7.149   1.681  13.277 -0.4078 -1.4884 -0.8359
  193DOPC  H12S23868   6.997   1.602  13.351  2.4918 -3.1381  0.1612
  193DOPC  C21323869   6.971   1.801  13.286  0.6866 -0.1051 -0.0430
  193DOPC  H13R23870   6.871   1.803  13.236  0.9362 -1.8583 -0.6847
  193DOPC  H13S23871   7.026   1.877  13.226 -0.2688  2.1536  1.7877
  193DOPC  C21423872   6.947   1.847  13.429 -0.0425 -0.5888 -0.1175
  193DOPC  H14R23873   6.925   1.759  13.493 -1.1250 -0.4345 -0.2687
  193DOPC  H14S23874   6.871   1.926  13.447  1.5156  1.0681 -0.4383
  193DOPC  C21523875   7.071   1.916  13.495 -0.3182  0.2895  0.0286
  193DOPC  H15R23876   7.084   2.014  13.444 -1.1276  1.0479  1.2236
  193DOPC  H15S23877   7.163   1.858  13.472 -0.0751  0.2129  1.1706
  193DOPC  C21623878   7.063   1.929  13.645 -0.6564 -0.1404 -0.6703
  193DOPC  H16R23879   6.984   2.006  13.664 -1.5080 -0.9411 -0.8945
  193DOPC  H16S23880   7.162   1.971  13.673 -0.3821 -0.3298 -1.3488
  193DOPC  C21723881   7.032   1.801  13.711 -0.0299  0.0513 -0.1283
  193DOPC  H17R23882   7.097   1.719  13.676 -1.0216  0.0322 -2.0934
  193DOPC  H17S23883   6.927   1.779  13.680  0.3944  0.6383 -2.1746
  193DOPC  C21823884   7.041   1.803  13.868 -0.5925  0.5706  0.2463
  193DOPC  H18R23885   6.954   1.859  13.909 -0.8905  0.4798 -0.2503
  193DOPC  H18S23886   7.128   1.857  13.909  1.1461 -1.5954 -0.4057
  193DOPC  H18T23887   7.058   1.706  13.920 -0.1011 -0.1434 -1.1839
  193DOPC   C3323888   6.941   1.931  12.662 -0.1122 -0.1063  0.0712
  193DOPC   H3X23889   6.880   2.023  12.653 -1.5179 -0.8308  1.7135
  193DOPC   H3Y23890   7.036   1.943  12.606  0.0838  1.7392  0.7515
  193DOPC   C3423891   6.991   1.919  12.804  0.0896  0.2031 -0.0985
  193DOPC   H4X23892   7.055   1.830  12.821 -1.4960 -0.9014  0.3373
  193DOPC   H4Y23893   6.909   1.892  12.874  0.9114  0.4675  0.9917
  193DOPC   C3523894   7.072   2.045  12.846 -0.1105  0.8883  0.2812
  193DOPC   H5X23895   7.028   2.137  12.802  1.8276  1.2663 -0.9750
  193DOPC   H5Y23896   7.165   2.036  12.786  1.0396 -1.6927  2.2295
  193DOPC   C3623897   7.089   2.052  12.994  0.0770 -0.3064 -0.1561
  193DOPC   H6X23898   6.986   2.066  13.034  0.4222 -0.9066  1.0016
  193DOPC   H6Y23899   7.113   1.949  13.030  0.4791  0.1309  0.8580
  193DOPC   C3723900   7.193   2.150  13.049  0.0318 -0.5605 -0.4764
  193DOPC   H7X23901   7.289   2.125  12.999 -1.5125 -4.3661 -1.8564
  193DOPC   H7Y23902   7.165   2.255  13.022  2.4723  1.2578  3.3061
  193DOPC   C3823903   7.228   2.138  13.198  0.5382  0.4088 -0.8067
  193DOPC   H8X23904   7.277   2.042  13.225  1.7121  1.5989  1.6048
  193DOPC   H8Y23905   7.136   2.129  13.260  0.6153 -0.0454 -0.7562
  193DOPC   C3923906   7.318   2.244  13.263 -0.2339 -0.3511 -0.2766
  193DOPC   H9X23907   7.410   2.264  13.205  1.7547 -4.3082  1.1270
  193DOPC  C31023908   7.291   2.327  13.358 -0.0383 -0.6275  0.1947
  193DOPC  H10X23909   7.381   2.380  13.393 -0.8860 -0.1179  1.7000
  193DOPC  C31123910   7.170   2.328  13.448 -0.5621  0.3774  0.5601
  193DOPC  H11X23911   7.082   2.273  13.409  0.4969 -2.2814  1.6573
  193DOPC  H11Y23912   7.135   2.434  13.455  1.3936  1.2232 -1.3329
  193DOPC  C31223913   7.201   2.278  13.592  0.5071  0.9962  0.1404
  193DOPC  H12X23914   7.301   2.311  13.627 -0.1139  2.2140  0.8292
  193DOPC  H12Y23915   7.203   2.167  13.584 -1.1045  0.9751 -0.2946
  193DOPC  C31323916   7.089   2.297  13.694 -0.4988 -0.1535  0.0372
  193DOPC  H13X23917   7.095   2.406  13.715  1.5774 -0.3802  0.8550
  193DOPC  H13Y23918   6.991   2.269  13.651 -1.0471  1.0880  0.4304
  193DOPC  C31423919   7.128   2.235  13.835  0.8831 -0.3661  0.7032
  193DOPC  H14X23920   7.094   2.130  13.832  1.9610 -0.7199  0.6497
  193DOPC  H14Y23921   7.238   2.240  13.849  1.0170 -1.5045  0.1213
  193DOPC  C31523922   7.057   2.315  13.947  0.5457 -0.4671 -0.1460
  193DOPC  H15X23923   6.947   2.315  13.936  0.5616  0.2786 -0.3416
  193DOPC  H15Y23924   7.089   2.421  13.956 -1.7905  0.2127  0.7792
  193DOPC  C31623925   7.083   2.262  14.087 -0.5967  0.3937 -0.6509
  193DOPC  H16X23926   7.041   2.160  14.088  0.2643  0.0294  0.4044
  193DOPC  H16Y23927   7.192   2.239  14.093 -0.5118  0.4604 -1.6430
  193DOPC  C31723928   7.041   2.336  14.213  0.0440 -0.1196  1.3904
  193DOPC  H17X23929   7.101   2.429  14.222 -0.6359  0.3695  0.9727
  193DOPC  H17Y23930   6.936   2.361  14.188  0.1577 -1.5151 -0.8023
  193DOPC  C31823931   7.055   2.258  14.344  0.0875 -0.2517 -0.1044
  193DOPC  H18X23932   6.985   2.307  14.415 -2.3119 -1.3336 -1.5862
  193DOPC  H18Y23933   7.023   2.151  14.343 -2.5304  0.4301  1.2153
  193DOPC  H18Z23934   7.155   2.253  14.391  0.5901  0.4981 -1.0523
  194DOPC     N23935   1.872   1.315  11.844  0.4775 -0.2752 -0.1319
  194DOPC   C1223936   2.009   1.286  11.901 -0.0738 -0.2801  0.1853
  194DOPC  H12A23937   2.029   1.182  11.923 -0.5613  0.1755  3.2527
  194DOPC  H12B23938   2.023   1.343  11.992  1.4066  3.2210 -2.0398
  194DOPC   C1323939   1.777   1.271  11.945  0.3428 -0.3129  0.4527
  194DOPC  H13A23940   1.811   1.179  11.989  2.2797 -0.6955 -1.6616
  194DOPC  H13B23941   1.763   1.345  12.023  0.0847 -1.8369  1.8946
  194DOPC  H13C23942   1.683   1.251  11.896  1.3206 -0.9374 -1.2480
  194DOPC   C1423943   1.855   1.226  11.727  0.1874  0.9826 -0.0567
  194DOPC  H14A23944   1.761   1.242  11.676  0.0511  1.9218  0.4701
  194DOPC  H14B23945   1.930   1.235  11.649 -3.0420  0.2208 -3.5526
  194DOPC  H14C23946   1.862   1.123  11.760 -0.1361  1.3840  1.3260
  194DOPC   C1523947   1.850   1.457  11.809  0.0637 -0.6364  0.1222
  194DOPC  H15A23948   1.848   1.519  11.897 -0.0231  1.1802 -1.1227
  194DOPC  H15B23949   1.755   1.467  11.759 -0.2093 -1.2511  0.4957
  194DOPC  H15C23950   1.924   1.484  11.735 -1.6494 -0.9330 -1.7936
  194DOPC   C1123951   2.132   1.320  11.818 -0.8046  0.0821  0.4320
  194DOPC  H11A23952   2.109   1.417  11.769  0.3020  1.1180  1.8797
  194DOPC  H11B23953   2.220   1.333  11.884 -1.2306 -1.0951  1.2489
  194DOPC     P23954   2.204   1.076  11.754 -0.4175  0.2032  0.2267
  194DOPC   O1323955   2.342   1.058  11.700 -0.6542 -0.0666  0.1835
  194DOPC   O1423956   2.098   0.973  11.713  0.0631 -0.2637 -0.2745
  194DOPC   O1223957   2.162   1.228  11.721  0.1666  0.2174  0.6750
  194DOPC   O1123958   2.218   1.078  11.907  0.8778  0.3131  0.5358
  194DOPC    C123959   2.330   1.095  11.987  0.4374 -0.4656  0.2485
  194DOPC    HA23960   2.401   1.168  11.942  0.9269 -0.9066  0.2961
  194DOPC    HB23961   2.379   0.996  12.001  0.3179 -0.6723 -0.7306
  194DOPC    C223962   2.287   1.147  12.126  0.6076  0.0351  0.3891
  194DOPC    HS23963   2.240   1.246  12.106 -1.3034 -1.0031 -0.5829
  194DOPC   O2123964   2.411   1.160  12.203 -0.1352 -0.1045  0.2304
  194DOPC   C2123965   2.419   1.265  12.289 -0.7715 -0.0813  0.9931
  194DOPC   O2223966   2.335   1.346  12.310 -0.0489 -0.1418  0.0865
  194DOPC   C2223967   2.570   1.272  12.335  1.0698  0.3309 -0.4145
  194DOPC   H2R23968   2.624   1.307  12.245  3.1132 -1.3617  0.0741
  194DOPC   H2S23969   2.619   1.177  12.364  0.4056 -0.1382 -0.8099
  194DOPC    C323970   2.188   1.057  12.199 -0.0073  0.0348  0.1387
  194DOPC    HX23971   2.236   0.960  12.225  1.6987  1.0525  1.0015
  194DOPC    HY23972   2.104   1.023  12.134 -0.0068 -0.8921  0.6068
  194DOPC   O3123973   2.137   1.115  12.320  0.1581 -0.2311  0.2926
  194DOPC   C3123974   2.062   1.229  12.303  0.7013  0.0399  0.2634
  194DOPC   O3223975   2.016   1.271  12.196  0.3683 -0.0121  0.3318
  194DOPC   C3223976   2.032   1.285  12.435  0.6569  0.0137 -0.4176
  194DOPC   H2X23977   1.962   1.205  12.470  3.2371 -1.9722  0.5040
  194DOPC   H2Y23978   2.119   1.307  12.499 -1.0947  3.4956  1.0156
  194DOPC   C2323979   2.577   1.368  12.458 -0.1740 -0.1569  0.4536
  194DOPC   H3R23980   2.506   1.451  12.436  0.9593  0.4675 -1.0097
  194DOPC   H3S23981   2.680   1.410  12.458 -1.2024  2.7526 -2.0636
  194DOPC   C2423982   2.562   1.295  12.599 -0.0565 -0.2847 -0.2334
  194DOPC   H4R23983   2.586   1.372  12.676  1.0620 -1.0823  0.2443
  194DOPC   H4S23984   2.632   1.212  12.624 -0.2411 -0.3159  0.1950
  194DOPC   C2523985   2.413   1.252  12.619  0.4917  0.2188  0.5785
  194DOPC   H5R23986   2.415   1.157  12.561  0.8559 -0.7873  2.1483
  194DOPC   H5S23987   2.346   1.325  12.570 -0.3181  0.2022  1.6345
  194DOPC   C2623988   2.364   1.217  12.764 -0.3471 -0.3261 -0.4074
  194DOPC   H6R23989   2.434   1.139  12.800  0.9463  1.0665  0.2097
  194DOPC   H6S23990   2.261   1.177  12.758 -0.1237 -0.7884 -1.3323
  194DOPC   C2723991   2.365   1.342  12.861  0.3635  0.2721 -0.7833
  194DOPC   H7R23992   2.322   1.423  12.799  0.7116  0.2157 -1.1079
  194DOPC   H7S23993   2.472   1.356  12.887  0.4701  0.2520 -1.2065
  194DOPC   C2823994   2.281   1.307  12.984  0.5008  0.6011  0.0086
  194DOPC   H8R23995   2.343   1.231  13.038  2.1742 -0.4148 -3.0509
  194DOPC   H8S23996   2.197   1.248  12.942  0.0394  0.5654  0.9628
  194DOPC   C2923997   2.215   1.415  13.060  0.1464 -0.1185 -0.0424
  194DOPC   H9R23998   2.228   1.520  13.030  0.5637 -0.1627 -0.0117
  194DOPC  C21023999   2.124   1.399  13.161 -1.0485 -0.5639 -0.0508
  194DOPC  H10R24000   2.101   1.491  13.216  1.4329  0.9780 -1.3724
  194DOPC  C21124001   2.079   1.271  13.220 -0.1497 -0.2309 -0.1488
  194DOPC  H11R24002   2.147   1.187  13.193 -0.5482 -0.6281  0.0886
  194DOPC  H11S24003   1.982   1.235  13.181  0.7637 -0.0262 -2.8223
  194DOPC  C21224004   2.084   1.288  13.375  0.5844  0.4332  0.3863
  194DOPC  H12R24005   2.025   1.207  13.424 -0.3522  2.1750  2.2631
  194DOPC  H12S24006   2.039   1.386  13.402 -0.8377 -0.3248  0.8864
  194DOPC  C21324007   2.237   1.290  13.422  0.3813  0.7831  0.4101
  194DOPC  H13R24008   2.301   1.347  13.352 -0.8460 -1.0078 -2.3234
  194DOPC  H13S24009   2.273   1.189  13.391  1.0988  2.2695 -4.3222
  194DOPC  C21424010   2.283   1.333  13.566 -0.1779  0.4668 -0.1231
  194DOPC  H14R24011   2.234   1.430  13.589 -0.3895  0.5437 -0.8780
  194DOPC  H14S24012   2.394   1.339  13.578  0.1828 -1.1090 -2.1275
  194DOPC  C21524013   2.245   1.225  13.671 -0.6250  0.0797  0.1864
  194DOPC  H15R24014   2.325   1.148  13.677 -1.5901 -0.8449  1.9897
  194DOPC  H15S24015   2.155   1.165  13.646  0.6328 -0.8902 -2.3936
  194DOPC  C21624016   2.228   1.282  13.809 -0.7792 -0.5739  0.1119
  194DOPC  H16R24017   2.240   1.196  13.878  1.6016 -1.0585 -0.8064
  194DOPC  H16S24018   2.125   1.325  13.812 -0.9308 -0.9942  1.9631
  194DOPC  C21724019   2.341   1.376  13.855 -0.2897 -0.6376 -0.7743
  194DOPC  H17R24020   2.325   1.476  13.810  0.9825 -0.2133 -0.3461
  194DOPC  H17S24021   2.436   1.336  13.814  0.1204 -0.1350 -0.3373
  194DOPC  C21824022   2.346   1.391  14.008 -0.3546 -0.9121 -0.1085
  194DOPC  H18R24023   2.354   1.289  14.051  1.4051 -0.3268  1.1191
  194DOPC  H18S24024   2.266   1.449  14.059 -0.2931 -1.4202  0.5873
  194DOPC  H18T24025   2.445   1.437  14.031  0.0257 -1.9518  0.3760
  194DOPC   C3324026   1.948   1.418  12.429  0.0078  0.7842  0.1023
  194DOPC   H3X24027   1.853   1.397  12.376 -0.3315 -0.5549  1.1779
  194DOPC   H3Y24028   2.009   1.490  12.370  2.2330  0.2968  1.6782
  194DOPC   C3424029   1.928   1.481  12.567 -0.0786  0.2704  0.1810
  194DOPC   H4X24030   1.859   1.567  12.556  0.0528  0.3254 -0.2475
  194DOPC   H4Y24031   2.030   1.520  12.587 -0.3507 -0.0949  2.6350
  194DOPC   C3524032   1.883   1.384  12.675  0.3837 -0.6959  0.1763
  194DOPC   H5X24033   1.962   1.311  12.702  0.6623 -0.2485  0.5828
  194DOPC   H5Y24034   1.792   1.331  12.641  0.0436 -0.0568  0.0722
  194DOPC   C3624035   1.852   1.449  12.810  0.5029 -0.4860 -0.1845
  194DOPC   H6X24036   1.948   1.472  12.862  0.9750 -2.9787  0.1582
  194DOPC   H6Y24037   1.797   1.542  12.783  0.4589 -0.2695  0.6237
  194DOPC   C3724038   1.760   1.365  12.897 -0.3644 -0.1068 -0.0150
  194DOPC   H7X24039   1.681   1.332  12.827  0.5988  1.2456 -1.8203
  194DOPC   H7Y24040   1.811   1.273  12.934  0.2449 -0.4183 -1.5672
  194DOPC   C3824041   1.686   1.434  13.014 -0.2582  0.0565  0.6134
  194DOPC   H8X24042   1.639   1.527  12.975 -0.7941 -0.3444  0.2736
  194DOPC   H8Y24043   1.760   1.473  13.087  0.7453  1.0921 -0.8993
  194DOPC   C3924044   1.581   1.345  13.069  0.0513  0.1089 -0.2934
  194DOPC   H9X24045   1.486   1.336  13.013  1.4489 -2.5498 -2.4448
  194DOPC  C31024046   1.582   1.293  13.196  0.5854  0.1064  0.8165
  194DOPC  H10X24047   1.496   1.229  13.219  0.5479  0.2337  1.0386
  194DOPC  C31124048   1.686   1.313  13.303 -0.1296 -0.2409  0.3175
  194DOPC  H11X24049   1.769   1.370  13.256 -0.8922 -0.7847 -1.7742
  194DOPC  H11Y24050   1.734   1.217  13.331 -0.1057 -0.2781  0.1483
  194DOPC  C31224051   1.642   1.382  13.434  0.0642  0.1607  0.1107
  194DOPC  H12X24052   1.551   1.328  13.467  0.6127 -1.0577 -0.3350
  194DOPC  H12Y24053   1.624   1.489  13.409  1.4043  0.7693  1.6550
  194DOPC  C31324054   1.749   1.367  13.539 -0.4405  0.6344  0.5275
  194DOPC  H13X24055   1.784   1.261  13.544  4.2573  1.9088 -0.0185
  194DOPC  H13Y24056   1.840   1.425  13.512  0.2681 -0.6134  0.1279
  194DOPC  C31424057   1.713   1.427  13.671  0.3649 -0.1934  0.4428
  194DOPC  H14X24058   1.689   1.535  13.657  2.2179  0.2332  0.2949
  194DOPC  H14Y24059   1.626   1.370  13.711 -0.0287 -0.0082 -0.1350
  194DOPC  C31524060   1.831   1.413  13.768  0.8619  0.0454  0.2566
  194DOPC  H15X24061   1.909   1.491  13.754  1.2905 -0.0860  1.7359
  194DOPC  H15Y24062   1.890   1.322  13.745  0.4198 -0.1451 -0.1290
  194DOPC  C31624063   1.787   1.408  13.914 -0.5275 -0.1167 -0.1078
  194DOPC  H16X24064   1.744   1.505  13.945  2.0611  0.7928  0.9310
  194DOPC  H16Y24065   1.716   1.324  13.931  0.7526 -1.9747 -3.1911
  194DOPC  C31724066   1.913   1.379  14.006  0.5544  0.4321  0.3556
  194DOPC  H17X24067   1.869   1.343  14.102  0.1651 -1.5695 -0.5161
  194DOPC  H17Y24068   1.967   1.296  13.955  0.0810  0.5809 -0.4093
  194DOPC  C31824069   2.001   1.501  14.022  0.7526 -0.2094  0.1835
  194DOPC  H18X24070   1.941   1.584  14.066  0.6298 -0.5743  0.7164
  194DOPC  H18Y24071   2.071   1.483  14.106 -0.0778 -0.2171  0.8908
  194DOPC  H18Z24072   2.050   1.527  13.926  0.3711  1.3798  0.3931
  195DOPC     N24073   6.047   1.331  11.643  0.2327 -0.4060 -0.2399
  195DOPC   C1224074   5.953   1.278  11.744  0.5913  0.4761 -0.3359
  195DOPC  H12A24075   5.955   1.171  11.738 -0.5512  0.4492 -0.4690
  195DOPC  H12B24076   5.849   1.299  11.727 -0.1204 -1.8110  0.8888
  195DOPC   C1324077   6.003   1.288  11.507  0.0461 -0.4531 -0.3183
  195DOPC  H13A24078   5.975   1.184  11.507 -0.7294 -0.2857  1.2678
  195DOPC  H13B24079   5.936   1.362  11.466 -1.5004  0.0398  2.7437
  195DOPC  H13C24080   6.087   1.302  11.441  1.2421  1.9020  1.5253
  195DOPC   C1424081   6.184   1.275  11.670  0.5308 -0.6426  0.3470
  195DOPC  H14A24082   6.245   1.332  11.738  0.8938 -0.9119  0.2487
  195DOPC  H14B24083   6.170   1.172  11.700 -1.9744 -0.3301  0.4690
  195DOPC  H14C24084   6.253   1.270  11.587  0.2327 -1.9110  0.1563
  195DOPC   C1524085   6.061   1.484  11.638 -0.4197  0.7234  0.1922
  195DOPC  H15A24086   6.101   1.523  11.731  0.6034 -3.9609  2.0254
  195DOPC  H15B24087   5.964   1.524  11.614 -0.2574 -0.0152 -1.9001
  195DOPC  H15C24088   6.123   1.510  11.554  0.0893 -2.0719 -0.4180
  195DOPC   C1124089   5.969   1.319  11.892  0.2355  0.8393 -0.9368
  195DOPC  H11A24090   5.933   1.228  11.945  0.7684  1.3350  0.3379
  195DOPC  H11B24091   6.078   1.315  11.913  0.3380 -2.7541 -1.4062
  195DOPC     P24092   5.731   1.435  11.956  0.4729 -0.0198  0.0962
  195DOPC   O1324093   5.669   1.313  11.899  0.1434  0.0579 -0.0159
  195DOPC   O1424094   5.676   1.559  11.912  0.2446  0.6635  0.1181
  195DOPC   O1224095   5.891   1.437  11.935  0.1918  0.4798  0.1272
  195DOPC   O1124096   5.712   1.439  12.116 -0.3512 -0.0630  0.0932
  195DOPC    C124097   5.807   1.394  12.211 -0.5847 -0.2578  0.7468
  195DOPC    HA24098   5.881   1.326  12.164 -1.1922 -0.2896 -0.1927
  195DOPC    HB24099   5.744   1.351  12.292 -1.3242 -0.2506  0.1912
  195DOPC    C224100   5.886   1.517  12.262  0.5705 -0.4502 -0.2920
  195DOPC    HS24101   5.976   1.532  12.198  0.2025 -1.3949 -1.0478
  195DOPC   O2124102   5.923   1.505  12.397  0.0873  0.2623  0.3804
  195DOPC   C2124103   6.003   1.409  12.433  0.0469 -0.2511 -0.0305
  195DOPC   O2224104   6.048   1.320  12.364  0.4480 -0.3276  0.0718
  195DOPC   C2224105   6.022   1.408  12.590  0.2947 -0.4104 -0.5939
  195DOPC   H2R24106   6.004   1.512  12.627 -0.0332 -1.1892  1.5806
  195DOPC   H2S24107   6.130   1.389  12.612 -0.1551 -1.9010  0.4233
  195DOPC    C324108   5.808   1.652  12.253 -0.1680 -0.1156  0.1481
  195DOPC    HX24109   5.790   1.678  12.146 -0.3024  0.6944  0.3590
  195DOPC    HY24110   5.875   1.733  12.290  0.3011  0.0751 -1.0824
  195DOPC   O3124111   5.692   1.640  12.328  0.4248  0.5994  0.4323
  195DOPC   C3124112   5.644   1.751  12.382 -0.6722  0.9906  0.0281
  195DOPC   O3224113   5.690   1.861  12.373  0.3868 -0.7741 -0.2470
  195DOPC   C3224114   5.528   1.710  12.473 -0.3584  0.5671  0.3831
  195DOPC   H2X24115   5.488   1.803  12.517  0.8129 -0.1273  3.1356
  195DOPC   H2Y24116   5.457   1.668  12.399 -0.0771 -0.1124  0.4847
  195DOPC   C2324117   5.923   1.314  12.664  0.4001 -0.3606 -0.0670
  195DOPC   H3R24118   5.955   1.209  12.647 -1.4688 -1.1919  1.2301
  195DOPC   H3S24119   5.820   1.331  12.626  0.9260  0.1704 -1.3308
  195DOPC   C2424120   5.915   1.358  12.810  0.2749 -0.3912  0.3264
  195DOPC   H4R24121   5.831   1.318  12.872  0.8227 -3.2641 -0.6362
  195DOPC   H4S24122   5.893   1.467  12.806  2.3733  0.0477 -0.3033
  195DOPC   C2524123   6.033   1.314  12.896 -0.2008  0.2058 -0.0016
  195DOPC   H5R24124   6.131   1.350  12.857  0.3530  0.7969  1.8314
  195DOPC   H5S24125   6.037   1.203  12.901 -0.2180  0.1890 -0.3087
  195DOPC   C2624126   6.006   1.374  13.033 -0.8480 -0.0083 -0.5208
  195DOPC   H6R24127   5.918   1.329  13.083  1.6982 -1.9822  2.6415
  195DOPC   H6S24128   5.984   1.482  13.023 -1.7623 -0.2660 -1.3936
  195DOPC   C2724129   6.133   1.368  13.123  0.0731 -0.0744  0.5475
  195DOPC   H7R24130   6.213   1.403  13.054  1.7206 -0.5915  2.1212
  195DOPC   H7S24131   6.152   1.259  13.139 -0.8119 -0.2544  0.4387
  195DOPC   C2824132   6.124   1.437  13.251  0.3899  0.1163 -0.1443
  195DOPC   H8R24133   6.025   1.417  13.299 -0.6325  2.3617 -1.1555
  195DOPC   H8S24134   6.116   1.545  13.225 -1.4844 -0.4186 -2.1732
  195DOPC   C2924135   6.243   1.407  13.342  0.8333 -0.0020  0.0146
  195DOPC   H9R24136   6.345   1.428  13.306  0.6470  2.7668  0.8526
  195DOPC  C21024137   6.231   1.356  13.469  0.4588  0.0053 -0.4988
  195DOPC  H10R24138   6.324   1.324  13.518 -0.0495 -1.6802 -0.5502
  195DOPC  C21124139   6.106   1.326  13.543 -0.6615  0.2077 -0.3606
  195DOPC  H11R24140   6.043   1.247  13.496 -2.6246  3.2082 -3.2189
  195DOPC  H11S24141   6.040   1.415  13.543 -1.6688 -0.5210 -0.7306
  195DOPC  C21224142   6.133   1.280  13.687 -0.4115 -0.2448 -0.1028
  195DOPC  H12R24143   6.179   1.362  13.748  0.4076  0.9920 -2.2608
  195DOPC  H12S24144   6.200   1.191  13.692 -1.1308 -0.7279  1.9615
  195DOPC  C21324145   6.015   1.227  13.770 -0.3002 -0.0473  0.1088
  195DOPC  H13R24146   5.977   1.135  13.720  0.5171 -0.5437  0.3897
  195DOPC  H13S24147   5.929   1.297  13.762 -0.8056 -0.5016  1.2184
  195DOPC  C21424148   6.058   1.173  13.914  0.7482  0.1820  0.3127
  195DOPC  H14R24149   6.129   1.244  13.962  0.3011  0.0031  1.2565
  195DOPC  H14S24150   6.119   1.081  13.903  0.0085 -0.2208 -0.5407
  195DOPC  C21524151   5.946   1.152  14.016 -0.4056  0.5973 -0.6770
  195DOPC  H15R24152   5.902   1.059  13.974  0.3396 -1.2560  2.3214
  195DOPC  H15S24153   5.876   1.238  14.014 -2.4667 -0.7142  3.0368
  195DOPC  C21624154   5.994   1.130  14.158 -0.4602 -0.7343  0.6504
  195DOPC  H16R24155   6.027   1.230  14.193  1.8390 -0.4522 -1.9950
  195DOPC  H16S24156   6.087   1.069  14.163  2.2611  3.1061  1.0138
  195DOPC  C21724157   5.894   1.067  14.250  0.4415 -0.1590 -0.0260
  195DOPC  H17R24158   5.907   0.959  14.226  2.3173  0.2420 -1.0507
  195DOPC  H17S24159   5.793   1.108  14.232  0.9565  1.4893  0.6149
  195DOPC  C21824160   5.931   1.107  14.388  0.4754  0.3305 -0.0096
  195DOPC  H18R24161   6.038   1.084  14.408  0.8881  1.3549 -0.9556
  195DOPC  H18S24162   5.875   1.061  14.472  1.6876  0.1551  0.7301
  195DOPC  H18T24163   5.921   1.217  14.397 -0.6350  0.2883 -0.5357
  195DOPC   C3324164   5.572   1.606  12.581 -0.0032  0.0717  0.1321
  195DOPC   H3X24165   5.624   1.517  12.539 -0.8668  0.2087 -1.2947
  195DOPC   H3Y24166   5.469   1.573  12.608 -0.2803  1.3460  0.6896
  195DOPC   C3424167   5.634   1.666  12.708 -0.1393 -0.3564  0.2892
  195DOPC   H4X24168   5.591   1.762  12.744 -1.3198 -1.2822  1.4608
  195DOPC   H4Y24169   5.739   1.681  12.675 -0.5654 -1.5321 -1.8093
  195DOPC   C3524170   5.625   1.570  12.835 -0.0215  0.3368  0.2046
  195DOPC   H5X24171   5.662   1.469  12.804 -1.2521 -0.0399 -0.1020
  195DOPC   H5Y24172   5.531   1.539  12.885  0.6181 -1.1750  0.5257
  195DOPC   C3624173   5.728   1.628  12.941 -0.1583 -0.5074  0.3221
  195DOPC   H6X24174   5.834   1.642  12.910 -0.2026  1.0778  0.8083
  195DOPC   H6Y24175   5.701   1.733  12.966  0.3072 -0.5278  0.9271
  195DOPC   C3724176   5.715   1.552  13.080 -0.2331 -0.6487 -0.3965
  195DOPC   H7X24177   5.612   1.531  13.117  0.2359 -0.6058  0.9869
  195DOPC   H7Y24178   5.753   1.453  13.046  2.2072  0.7823 -2.1264
  195DOPC   C3824179   5.812   1.605  13.188  1.0739  0.3071 -0.2226
  195DOPC   H8X24180   5.893   1.657  13.132 -0.5210  0.4571 -2.5087
  195DOPC   H8Y24181   5.848   1.519  13.248 -1.3339 -0.3608  0.3325
  195DOPC   C3924182   5.751   1.712  13.273  0.1599 -0.1860 -0.1913
  195DOPC   H9X24183   5.715   1.807  13.229 -1.5177 -0.1673  1.1435
  195DOPC  C31024184   5.729   1.696  13.406 -0.7961  0.6538 -0.3674
  195DOPC  H10X24185   5.687   1.782  13.460  0.5208  1.1274 -0.0733
  195DOPC  C31124186   5.737   1.574  13.490  0.1017  0.1518 -0.5780
  195DOPC  H11X24187   5.798   1.498  13.438  1.6354  0.6860  0.3704
  195DOPC  H11Y24188   5.633   1.540  13.513  0.1046  0.6401  0.2112
  195DOPC  C31224189   5.822   1.601  13.614 -0.2497  0.4312  0.0435
  195DOPC  H12X24190   5.917   1.651  13.589  0.0155 -0.9980 -2.1308
  195DOPC  H12Y24191   5.837   1.501  13.661 -0.4280 -0.2798 -1.3489
  195DOPC  C31324192   5.747   1.677  13.723  0.2380  0.4586 -0.2246
  195DOPC  H13X24193   5.729   1.779  13.685 -0.6914 -0.2573 -1.7857
  195DOPC  H13Y24194   5.651   1.629  13.750  0.0189  1.3382  0.5894
  195DOPC  C31424195   5.830   1.678  13.854 -0.2114  1.0716 -0.1754
  195DOPC  H14X24196   5.854   1.574  13.885 -1.8890  0.5276 -0.6028
  195DOPC  H14Y24197   5.926   1.733  13.843 -0.3210  1.3080  0.0452
  195DOPC  C31524198   5.751   1.740  13.973 -0.0788 -0.8633 -0.1615
  195DOPC  H15X24199   5.804   1.706  14.064 -0.6810 -1.6645 -0.0989
  195DOPC  H15Y24200   5.645   1.707  13.972 -0.3316 -0.1122 -2.0854
  195DOPC  C31624201   5.752   1.902  13.971  0.0087 -0.0184 -0.3060
  195DOPC  H16X24202   5.857   1.931  13.993  0.7461 -1.2503 -2.0449
  195DOPC  H16Y24203   5.720   1.932  13.869 -2.5172  2.5720  1.1001
  195DOPC  C31724204   5.662   1.967  14.075  0.5562 -0.6172 -0.1368
  195DOPC  H17X24205   5.558   1.944  14.043  0.2379 -0.1125  0.5146
  195DOPC  H17Y24206   5.669   1.906  14.167 -0.4714  0.7253  0.8646
  195DOPC  C31824207   5.675   2.117  14.083 -0.4593 -0.6166  0.3112
  195DOPC  H18X24208   5.782   2.145  14.098 -0.4012  0.1302 -1.2635
  195DOPC  H18Y24209   5.641   2.177  13.995 -2.5861  2.6302  3.1142
  195DOPC  H18Z24210   5.627   2.157  14.174  0.9129  1.2929  0.2654
  196DOPC     N24211   0.772   1.996  12.054  0.0184 -0.4071 -0.2205
  196DOPC   C1224212   0.891   2.023  11.969  0.5169 -0.3435  0.0914
  196DOPC  H12A24213   0.857   2.089  11.892 -0.6248  0.1719  1.0075
  196DOPC  H12B24214   0.925   1.931  11.924 -1.6960 -0.9183 -0.4869
  196DOPC   C1324215   0.709   2.122  12.113  0.7017  0.4537 -0.7854
  196DOPC  H13A24216   0.610   2.096  12.147  0.5109 -1.7528 -2.7816
  196DOPC  H13B24217   0.769   2.167  12.191  0.2382 -0.0424 -0.1208
  196DOPC  H13C24218   0.694   2.183  12.026  2.3967 -0.0255 -1.4519
  196DOPC   C1424219   0.799   1.908  12.172 -0.3205  0.0976  0.0814
  196DOPC  H14A24220   0.844   1.812  12.148  0.8718  0.4695  0.7108
  196DOPC  H14B24221   0.862   1.957  12.244  1.1629 -0.5336 -0.7313
  196DOPC  H14C24222   0.705   1.884  12.219 -0.0420 -1.3194 -0.0303
  196DOPC   C1524223   0.670   1.930  11.967  0.1763 -0.2306 -0.6759
  196DOPC  H15A24224   0.574   1.919  12.017  0.4815  1.1959  0.2822
  196DOPC  H15B24225   0.706   1.836  11.928  0.6558  0.1574 -1.1811
  196DOPC  H15C24226   0.652   2.000  11.887 -2.5730  0.1544  0.1613
  196DOPC   C1124227   0.998   2.112  12.027  1.2903 -0.2232  0.3929
  196DOPC  H11A24228   0.955   2.211  12.053  1.8950  0.1691 -0.0856
  196DOPC  H11B24229   1.022   2.063  12.123 -0.1837 -0.2135  0.7867
  196DOPC     P24230   1.190   2.253  11.917  0.1865  0.1943  0.0054
  196DOPC   O1324231   1.092   2.338  11.844 -0.5918 -0.2293 -0.4485
  196DOPC   O1424232   1.318   2.229  11.850 -0.1576 -0.0746  0.0106
  196DOPC   O1224233   1.119   2.115  11.946  0.0796  0.1945  0.1149
  196DOPC   O1124234   1.216   2.299  12.071  0.2989 -0.1410 -0.1712
  196DOPC    C124235   1.313   2.208  12.137 -0.2082 -0.8833 -0.1574
  196DOPC    HA24236   1.400   2.174  12.077  0.2413 -0.4205  0.2197
  196DOPC    HB24237   1.262   2.119  12.178  0.6543 -0.7956  1.1762
  196DOPC    C224238   1.375   2.280  12.255 -0.1860  0.6224  0.4809
  196DOPC    HS24239   1.429   2.204  12.315 -2.3537  0.4173  2.2715
  196DOPC   O2124240   1.263   2.339  12.334 -0.3871 -0.1439  0.4305
  196DOPC   C2124241   1.287   2.345  12.467 -0.6391 -1.1365  0.4746
  196DOPC   O2224242   1.376   2.295  12.530  0.3783  0.1574  0.1660
  196DOPC   C2224243   1.192   2.452  12.517 -0.0174 -0.1013  0.0746
  196DOPC   H2R24244   1.173   2.524  12.435 -3.2065 -0.6260  0.2316
  196DOPC   H2S24245   1.244   2.501  12.602  4.2970  0.2441 -2.4984
  196DOPC    C324246   1.469   2.395  12.215  0.4474 -0.0774 -0.0883
  196DOPC    HX24247   1.410   2.480  12.177  0.4748 -0.9475 -2.2433
  196DOPC    HY24248   1.528   2.357  12.128 -1.5093 -1.9757 -0.6816
  196DOPC   O3124249   1.545   2.446  12.336 -0.0879 -0.1663 -0.0139
  196DOPC   C3124250   1.665   2.386  12.356  0.3404  0.5414  0.6903
  196DOPC   O3224251   1.723   2.310  12.285  0.3770 -0.0588 -0.0145
  196DOPC   C3224252   1.710   2.425  12.496 -0.2587  0.5765  0.3684
  196DOPC   H2X24253   1.705   2.536  12.501  1.3591  0.6882  0.2258
  196DOPC   H2Y24254   1.634   2.387  12.567 -0.8105  1.9817  0.5585
  196DOPC   C2324255   1.057   2.394  12.562 -0.3873  0.5160  0.3390
  196DOPC   H3R24256   1.078   2.292  12.598 -1.4930 -0.8099 -2.4643
  196DOPC   H3S24257   0.989   2.385  12.474  1.1445  0.7873 -0.9083
  196DOPC   C2424258   0.974   2.479  12.659  0.4734  0.0269  0.3317
  196DOPC   H4R24259   0.873   2.434  12.663 -0.5587  2.2669  2.0203
  196DOPC   H4S24260   0.966   2.577  12.607 -1.1858 -0.1332  0.2301
  196DOPC   C2524261   1.036   2.502  12.795  0.1552 -0.6535  0.6864
  196DOPC   H5R24262   1.126   2.567  12.785  0.5100 -0.7446  2.7748
  196DOPC   H5S24263   1.081   2.407  12.830 -0.3747 -1.6018 -1.0844
  196DOPC   C2624264   0.934   2.541  12.896 -0.2457 -0.2806 -0.8624
  196DOPC   H6R24265   0.874   2.448  12.900 -3.0522  1.4313 -0.2488
  196DOPC   H6S24266   0.871   2.626  12.861  0.5573  0.5538 -0.3407
  196DOPC   C2724267   0.987   2.577  13.036 -0.1557 -0.0958  0.0127
  196DOPC   H7R24268   1.031   2.680  13.035  0.9325 -0.5480 -0.2128
  196DOPC   H7S24269   1.074   2.509  13.049  1.1876  1.4755 -0.3836
  196DOPC   C2824270   0.879   2.547  13.142 -0.0743  0.4441 -0.0054
  196DOPC   H8R24271   0.939   2.524  13.232  1.2095  0.3603 -0.8575
  196DOPC   H8S24272   0.825   2.456  13.109 -0.9558  0.7737  0.4971
  196DOPC   C2924273   0.780   2.658  13.173 -0.1699 -0.2762  0.0536
  196DOPC   H9R24274   0.734   2.695  13.080 -1.1465 -0.0664  0.6127
  196DOPC  C21024275   0.759   2.719  13.289  0.2803  0.0890 -0.0283
  196DOPC  H10R24276   0.692   2.806  13.283  1.6034  1.1586  0.0588
  196DOPC  C21124277   0.819   2.692  13.429 -0.4087  0.0688 -0.2780
  196DOPC  H11R24278   0.868   2.790  13.449 -1.2286  0.3825  0.2346
  196DOPC  H11S24279   0.893   2.609  13.423  2.9076  2.7212  0.4272
  196DOPC  C21224280   0.733   2.653  13.552 -0.1097  0.1883 -0.2285
  196DOPC  H12R24281   0.707   2.547  13.531  0.5233  0.4046 -2.4184
  196DOPC  H12S24282   0.638   2.711  13.558 -1.2608 -1.6697  0.3635
  196DOPC  C21324283   0.818   2.673  13.682  0.6486 -0.3144  1.2480
  196DOPC  H13R24284   0.828   2.783  13.697  1.4422 -0.2456  0.3028
  196DOPC  H13S24285   0.918   2.630  13.662 -0.1568 -0.7362 -2.5345
  196DOPC  C21424286   0.742   2.593  13.789 -0.1542  0.0864 -0.2112
  196DOPC  H14R24287   0.729   2.493  13.744 -1.0597  0.1977 -0.2189
  196DOPC  H14S24288   0.642   2.643  13.793 -0.6208 -0.7674 -0.8191
  196DOPC  C21524289   0.813   2.572  13.924  0.0047 -0.3189  0.9141
  196DOPC  H15R24290   0.854   2.671  13.951 -1.2835  0.4529  0.1038
  196DOPC  H15S24291   0.899   2.501  13.920  1.1576  1.0356  1.0821
  196DOPC  C21624292   0.721   2.532  14.031  0.4061  0.1941  0.2749
  196DOPC  H16R24293   0.671   2.436  14.007  0.4560  0.4435 -0.8952
  196DOPC  H16S24294   0.641   2.609  14.031  1.3945  1.2495  0.0572
  196DOPC  C21724295   0.788   2.540  14.172 -0.3307  0.6104  0.1379
  196DOPC  H17R24296   0.819   2.647  14.181 -2.9169  1.2761  2.3629
  196DOPC  H17S24297   0.876   2.472  14.166 -1.7239 -1.2174 -0.6393
  196DOPC  C21824298   0.696   2.503  14.288  0.3176  0.0700 -0.9063
  196DOPC  H18R24299   0.682   2.393  14.285  1.8258 -0.1242 -1.9066
  196DOPC  H18S24300   0.596   2.551  14.285  0.2104 -0.1691 -1.2625
  196DOPC  H18T24301   0.743   2.520  14.388 -1.8362  1.6566 -0.0872
  196DOPC   C3324302   1.848   2.367  12.536  0.7485 -0.0653  0.1417
  196DOPC   H3X24303   1.927   2.434  12.497  0.0509 -1.0531 -3.3063
  196DOPC   H3Y24304   1.866   2.270  12.484  0.2821  0.0078 -0.1574
  196DOPC   C3424305   1.845   2.320  12.680 -0.0144  1.0529  1.0158
  196DOPC   H4X24306   1.899   2.223  12.676 -1.9771 -0.0849  0.4211
  196DOPC   H4Y24307   1.745   2.294  12.722 -0.6137  1.0344 -0.3642
  196DOPC   C3524308   1.922   2.415  12.773 -1.1749 -0.7803 -1.2027
  196DOPC   H5X24309   2.028   2.422  12.739 -0.4863 -0.3981  0.9093
  196DOPC   H5Y24310   1.921   2.364  12.872 -0.4067  0.0885 -0.7341
  196DOPC   C3624311   1.861   2.556  12.799 -0.2420  0.1332 -0.1312
  196DOPC   H6X24312   1.830   2.583  12.696 -0.1821  2.1849  0.3487
  196DOPC   H6Y24313   1.763   2.546  12.852 -1.2648  0.1694 -1.9463
  196DOPC   C3724314   1.961   2.664  12.845  0.1372  0.7080 -0.4329
  196DOPC   H7X24315   2.056   2.661  12.788  1.4806  1.2129  1.6491
  196DOPC   H7Y24316   1.914   2.759  12.814  1.2827  0.8871 -1.7195
  196DOPC   C3824317   1.985   2.643  12.998 -0.5969 -0.5643  0.2466
  196DOPC   H8X24318   2.078   2.702  13.014 -0.3793 -1.0080  0.6668
  196DOPC   H8Y24319   2.025   2.541  13.019  0.3230  0.3813  4.0259
  196DOPC   C3924320   1.855   2.672  13.076  0.0740  0.2354  0.2644
  196DOPC   H9X24321   1.758   2.637  13.037  0.4906  0.3750 -0.9295
  196DOPC  C31024322   1.846   2.733  13.190  0.2974 -0.9408  0.2449
  196DOPC  H10X24323   1.745   2.755  13.227  0.1703 -0.0515 -0.5949
  196DOPC  C31124324   1.949   2.805  13.266 -1.0571  0.3018 -0.5904
  196DOPC  H11X24325   1.964   2.909  13.230 -0.4953  0.6369  0.5540
  196DOPC  H11Y24326   2.049   2.765  13.238 -0.2253  0.5756  1.7520
  196DOPC  C31224327   1.924   2.799  13.418 -0.6375 -0.0239  0.3511
  196DOPC  H12X24328   1.820   2.830  13.440 -0.5939 -1.2277  2.5883
  196DOPC  H12Y24329   2.002   2.868  13.458 -0.3226 -1.5140  2.4678
  196DOPC  C31324330   1.952   2.655  13.478 -0.4581  0.0025  0.1905
  196DOPC  H13X24331   1.877   2.591  13.427 -0.7658  0.3333  0.2191
  196DOPC  H13Y24332   2.045   2.613  13.436 -0.2001  1.3841 -0.6985
  196DOPC  C31424333   1.921   2.645  13.626 -0.6841  0.0405 -0.2132
  196DOPC  H14X24334   1.951   2.548  13.669  1.0138  0.3093 -0.7318
  196DOPC  H14Y24335   1.989   2.713  13.682  1.4439 -1.3334 -0.9943
  196DOPC  C31524336   1.778   2.683  13.665  0.3220  0.7330  0.2077
  196DOPC  H15X24337   1.717   2.611  13.607 -2.3353  2.3775  0.7692
  196DOPC  H15Y24338   1.740   2.780  13.626  0.4609  0.3917 -0.8008
  196DOPC  C31624339   1.745   2.676  13.811 -0.6928 -0.6213 -0.4752
  196DOPC  H16X24340   1.636   2.682  13.833 -0.2669 -0.6654  1.8621
  196DOPC  H16Y24341   1.794   2.588  13.858 -0.8440  0.0920  1.0886
  196DOPC  C31724342   1.806   2.802  13.884  0.5581  0.2137 -0.6740
  196DOPC  H17X24343   1.915   2.792  13.864  0.6079  1.4050 -1.0601
  196DOPC  H17Y24344   1.765   2.897  13.845 -0.9445  0.5954  1.6539
  196DOPC  C31824345   1.790   2.799  14.041  0.1653  0.0242  0.1569
  196DOPC  H18X24346   1.690   2.766  14.077 -0.6469  0.0002 -1.9819
  196DOPC  H18Y24347   1.866   2.726  14.078  0.0554 -0.4150 -0.4583
  196DOPC  H18Z24348   1.821   2.900  14.075  0.7008  0.4974 -1.6231
  197DOPC     N24349   2.469   6.039  11.648 -0.0556 -0.3971  0.0455
  197DOPC   C1224350   2.461   6.093  11.788  0.2112 -0.0091 -0.1009
  197DOPC  H12A24351   2.417   6.191  11.782 -2.6089 -1.2415 -1.5080
  197DOPC  H12B24352   2.561   6.098  11.829  0.7211 -1.6453 -1.0515
  197DOPC   C1324353   2.536   5.904  11.653 -0.3918  0.2045  1.3925
  197DOPC  H13A24354   2.507   5.848  11.566  0.4378  1.4016  0.3167
  197DOPC  H13B24355   2.642   5.916  11.666 -0.3192  0.9207  0.2775
  197DOPC  H13C24356   2.500   5.847  11.738  0.0297 -1.4745  0.4640
  197DOPC   C1424357   2.555   6.128  11.565  0.1211 -0.2420 -0.0872
  197DOPC  H14A24358   2.502   6.218  11.541 -0.4756 -0.4095  0.5755
  197DOPC  H14B24359   2.647   6.165  11.610  0.2145  1.9127 -1.9140
  197DOPC  H14C24360   2.572   6.076  11.472 -1.1768  0.0891 -0.5281
  197DOPC   C1524361   2.338   6.030  11.578 -0.4724  0.0416  0.0959
  197DOPC  H15A24362   2.352   5.995  11.477  3.1095  1.7147 -0.1381
  197DOPC  H15B24363   2.296   6.130  11.568  0.3288  0.2397 -1.7250
  197DOPC  H15C24364   2.266   5.974  11.637 -0.0500 -3.0430 -2.0957
  197DOPC   C1124365   2.371   6.012  11.891 -0.2562 -0.2985  0.5933
  197DOPC  H11A24366   2.384   5.903  11.881  1.0900  0.0296 -1.8807
  197DOPC  H11B24367   2.408   6.030  11.995 -0.3168  0.6135  0.4675
  197DOPC     P24368   2.176   6.182  11.939 -0.3640 -0.1931  0.4155
  197DOPC   O1324369   2.034   6.183  11.908  0.3037 -0.0510  0.6356
  197DOPC   O1424370   2.256   6.291  11.885 -0.1549 -0.7628  0.4867
  197DOPC   O1224371   2.231   6.044  11.891  0.3567  0.8086  0.0251
  197DOPC   O1124372   2.198   6.180  12.097 -0.2760  0.3783 -0.0893
  197DOPC    C124373   2.167   6.072  12.181 -0.6714  0.1193  0.0794
  197DOPC    HA24374   2.256   6.035  12.235 -1.6952 -2.0479  0.3867
  197DOPC    HB24375   2.142   5.983  12.119  0.3697 -0.4040  0.3900
  197DOPC    C224376   2.048   6.103  12.271 -0.2828 -0.5938 -0.6192
  197DOPC    HS24377   1.976   6.148  12.199  1.0363  0.5402 -1.2605
  197DOPC   O2124378   2.091   6.185  12.379  0.2728 -0.6208 -0.4205
  197DOPC   C2124379   2.022   6.299  12.402  0.5530 -0.2193  0.7325
  197DOPC   O2224380   1.935   6.344  12.330  0.2279  0.1278 -0.3046
  197DOPC   C2224381   2.058   6.357  12.536 -0.2236  0.1605 -0.2024
  197DOPC   H2R24382   2.166   6.383  12.540  0.0733 -1.1219  0.4213
  197DOPC   H2S24383   2.046   6.282  12.616  0.2670  1.4189  1.0889
  197DOPC    C324384   1.976   5.974  12.323 -0.6207  0.8542 -0.0490
  197DOPC    HX24385   1.915   5.932  12.240  1.4382  0.2596 -1.3335
  197DOPC    HY24386   1.907   6.002  12.405 -0.4475 -1.3603  0.9403
  197DOPC   O3124387   2.065   5.867  12.372 -0.0479 -0.0610  0.3983
  197DOPC   C3124388   2.093   5.876  12.495 -0.8656 -0.5379 -0.8436
  197DOPC   O3224389   2.059   5.962  12.573 -0.0486  0.4712 -0.5566
  197DOPC   C3224390   2.176   5.748  12.519  0.2938 -0.0712 -0.2388
  197DOPC   H2X24391   2.106   5.667  12.546  2.0210 -1.1709  1.1727
  197DOPC   H2Y24392   2.230   5.723  12.425 -1.4726 -1.1672 -1.0095
  197DOPC   C2324393   1.968   6.483  12.563 -0.0107 -0.3322 -0.1507
  197DOPC   H3R24394   1.860   6.456  12.552 -0.1520 -0.2589  0.9170
  197DOPC   H3S24395   1.991   6.559  12.485  0.5673 -3.0781 -2.8522
  197DOPC   C2424396   1.955   6.523  12.711 -0.0768 -0.0618 -0.4818
  197DOPC   H4R24397   1.929   6.437  12.776  0.3959 -1.1485 -1.6688
  197DOPC   H4S24398   1.871   6.596  12.713  1.5836  1.9627  3.0960
  197DOPC   C2524399   2.076   6.581  12.770  0.0531 -0.2218 -0.4584
  197DOPC   H5R24400   2.107   6.671  12.713  3.0890 -1.1691 -0.5172
  197DOPC   H5S24401   2.163   6.511  12.764  0.8308  0.7454 -0.7241
  197DOPC   C2624402   2.066   6.627  12.919 -0.1870  0.5617  0.7886
  197DOPC   H6R24403   2.016   6.551  12.983 -0.2110  1.1083  1.4200
  197DOPC   H6S24404   2.012   6.724  12.914 -0.4250  0.3890 -3.2212
  197DOPC   C2724405   2.198   6.661  12.988 -0.5755  0.2567 -0.5706
  197DOPC   H7R24406   2.182   6.726  13.076 -0.0791  0.7576 -0.8500
  197DOPC   H7S24407   2.262   6.695  12.905 -1.2814 -1.9506 -2.1282
  197DOPC   C2824408   2.267   6.537  13.048 -0.6663  0.0661 -0.2553
  197DOPC   H8R24409   2.372   6.571  13.060 -1.1032  2.0816 -1.5468
  197DOPC   H8S24410   2.279   6.447  12.985 -2.2564  0.1585 -0.7511
  197DOPC   C2924411   2.204   6.493  13.178  0.7940  0.0431  0.3437
  197DOPC   H9R24412   2.106   6.442  13.172  0.2959  0.7598  1.8835
  197DOPC  C21024413   2.242   6.526  13.302 -0.5262  0.2990 -0.5175
  197DOPC  H10R24414   2.178   6.494  13.386  0.2411  1.2177  0.4575
  197DOPC  C21124415   2.370   6.602  13.346  0.8602  0.6599  0.5951
  197DOPC  H11R24416   2.414   6.643  13.252  0.4420  1.5262  0.7751
  197DOPC  H11S24417   2.439   6.530  13.397 -1.5290 -1.6141  0.8351
  197DOPC  C21224418   2.323   6.724  13.436 -0.9177  0.5513 -0.3259
  197DOPC  H12R24419   2.258   6.796  13.383  0.4449  0.5850 -2.0280
  197DOPC  H12S24420   2.410   6.785  13.467 -0.4929 -1.1183  1.9993
  197DOPC  C21324421   2.272   6.683  13.574  0.1115  0.3812  0.1548
  197DOPC  H13R24422   2.343   6.606  13.612  1.0778  1.8744  1.4883
  197DOPC  H13S24423   2.166   6.649  13.576 -0.0825  0.9634 -0.0159
  197DOPC  C21424424   2.270   6.798  13.668 -0.3658 -0.4813 -0.0981
  197DOPC  H14R24425   2.198   6.879  13.644  1.0747  2.1415  3.4543
  197DOPC  H14S24426   2.374   6.837  13.662 -1.0109  1.1599 -1.5699
  197DOPC  C21524427   2.252   6.750  13.816 -0.1847 -0.4727 -0.3184
  197DOPC  H15R24428   2.343   6.693  13.843  1.1518  2.3514  1.6061
  197DOPC  H15S24429   2.160   6.687  13.816 -0.2929 -0.3172 -0.0846
  197DOPC  C21624430   2.234   6.867  13.914 -0.0956  0.2845 -0.4728
  197DOPC  H16R24431   2.141   6.859  13.974 -0.2584  0.6109 -0.6820
  197DOPC  H16S24432   2.234   6.960  13.853  0.7729 -0.2720 -1.3434
  197DOPC  C21724433   2.350   6.879  14.014 -0.0373  0.2529 -0.4155
  197DOPC  H17R24434   2.449   6.885  13.963  0.6628  0.1227  0.8816
  197DOPC  H17S24435   2.359   6.784  14.070  0.7785  0.1357 -0.7361
  197DOPC  C21824436   2.331   6.992  14.100 -0.1801 -0.7304  0.3792
  197DOPC  H18R24437   2.422   7.054  14.110 -0.3917 -0.3583  0.0449
  197DOPC  H18S24438   2.284   6.956  14.194  2.5405 -0.8024  1.7931
  197DOPC  H18T24439   2.260   7.069  14.062 -0.2436 -0.5566  0.8408
  197DOPC   C3324440   2.279   5.756  12.629 -1.3420 -0.8388  0.0342
  197DOPC   H3X24441   2.346   5.843  12.615  0.9038 -2.8526 -3.2357
  197DOPC   H3Y24442   2.348   5.669  12.627 -0.1441  0.0893 -1.6212
  197DOPC   C3424443   2.218   5.769  12.770 -0.4858 -0.0816 -0.2737
  197DOPC   H4X24444   2.137   5.693  12.781 -0.3615 -0.2280 -0.3694
  197DOPC   H4Y24445   2.175   5.871  12.783 -0.4775  0.0261 -1.0406
  197DOPC   C3524446   2.325   5.762  12.883 -0.0422  0.2042  0.9306
  197DOPC   H5X24447   2.413   5.824  12.857 -0.7339  0.7535 -0.1999
  197DOPC   H5Y24448   2.364   5.659  12.874  1.6786  0.8613  0.4771
  197DOPC   C3624449   2.274   5.787  13.025 -0.1796  0.0086 -0.2551
  197DOPC   H6X24450   2.265   5.897  13.029 -0.0174  0.1005 -1.9220
  197DOPC   H6Y24451   2.173   5.739  13.026 -0.1980  0.0338  0.6579
  197DOPC   C3724452   2.368   5.731  13.133 -0.4992  0.5393  0.0487
  197DOPC   H7X24453   2.388   5.622  13.125  1.4980  0.8466  0.1865
  197DOPC   H7Y24454   2.461   5.788  13.112 -0.9494  1.8865  1.5567
  197DOPC   C3824455   2.335   5.762  13.282 -1.5515  0.2768  0.5923
  197DOPC   H8X24456   2.341   5.871  13.305 -1.5499 -0.2221  3.2198
  197DOPC   H8Y24457   2.405   5.705  13.346 -0.3966  0.3188 -0.5818
  197DOPC   C3924458   2.193   5.736  13.321  0.3106 -0.0333 -0.2189
  197DOPC   H9X24459   2.118   5.773  13.250 -1.3144 -1.4532  0.6859
  197DOPC  C31024460   2.155   5.723  13.446  0.4782 -0.3900 -0.4206
  197DOPC  H10X24461   2.050   5.702  13.473  0.6732  1.6814  2.3152
  197DOPC  C31124462   2.241   5.716  13.564  0.0840 -0.6800 -0.4443
  197DOPC  H11X24463   2.346   5.748  13.546  0.5854 -1.0840  1.4903
  197DOPC  H11Y24464   2.256   5.612  13.602  0.0243  0.3086  2.4975
  197DOPC  C31224465   2.192   5.798  13.681  0.4986  0.6713  0.0449
  197DOPC  H12X24466   2.109   5.744  13.732  0.9579  0.8217  0.9514
  197DOPC  H12Y24467   2.148   5.889  13.634  1.2144  1.1270  0.2474
  197DOPC  C31324468   2.297   5.828  13.788  0.4472  0.0015 -0.2485
  197DOPC  H13X24469   2.346   5.731  13.810 -0.4137 -0.4339 -0.2157
  197DOPC  H13Y24470   2.376   5.896  13.750  2.0143 -0.3668  2.1724
  197DOPC  C31424471   2.232   5.887  13.916 -0.3145 -0.4339 -0.7761
  197DOPC  H14X24472   2.169   5.972  13.883 -0.5481 -0.7819 -1.2297
  197DOPC  H14Y24473   2.181   5.806  13.972 -0.6229  0.2776 -0.0136
  197DOPC  C31524474   2.348   5.940  14.008  1.0420  0.1498  0.6172
  197DOPC  H15X24475   2.390   6.032  13.962 -1.3975  0.5306 -1.0693
  197DOPC  H15Y24476   2.425   5.862  13.998  1.7841  0.7147  1.7461
  197DOPC  C31624477   2.300   5.972  14.149 -0.0745  0.1287  0.1124
  197DOPC  H16X24478   2.233   6.060  14.163 -2.2885 -1.9024  3.7521
  197DOPC  H16Y24479   2.242   5.881  14.175  0.2592 -0.4689 -1.1586
  197DOPC  C31724480   2.420   5.996  14.247  0.3207  0.3571  0.1226
  197DOPC  H17X24481   2.399   5.976  14.354 -1.6081 -1.1648 -0.4772
  197DOPC  H17Y24482   2.503   5.928  14.215  1.3238  1.3598  0.5213
  197DOPC  C31824483   2.472   6.134  14.219  0.4657 -0.1031 -0.4898
  197DOPC  H18X24484   2.525   6.142  14.122 -0.9262 -2.2052 -1.4823
  197DOPC  H18Y24485   2.385   6.202  14.227 -0.3947 -1.3410  1.6271
  197DOPC  H18Z24486   2.538   6.156  14.306 -0.9279  1.6370  0.1773
  198DOPC     N24487   6.473   0.274  11.474  0.0246  0.1844  0.5907
  198DOPC   C1224488   6.541   0.324  11.600 -0.0425  0.6202 -0.1321
  198DOPC  H12A24489   6.553   0.431  11.594 -0.0042  0.5899 -0.5712
  198DOPC  H12B24490   6.639   0.280  11.612 -0.5072 -0.5869 -0.5984
  198DOPC   C1324491   6.333   0.333  11.462  0.0182  0.3737  0.1412
  198DOPC  H13A24492   6.287   0.305  11.368 -0.7085  1.0635  0.2782
  198DOPC  H13B24493   6.272   0.306  11.546  0.7284 -1.5472  0.0952
  198DOPC  H13C24494   6.333   0.441  11.469 -0.7317  0.3925 -0.1043
  198DOPC   C1424495   6.475   0.124  11.466  0.1808 -0.0989 -0.4383
  198DOPC  H14A24496   6.408   0.078  11.537  0.7998  0.8927  0.8228
  198DOPC  H14B24497   6.445   0.102  11.364  1.5340  2.0916 -1.3954
  198DOPC  H14C24498   6.571   0.084  11.493 -0.2232 -0.5546  0.3587
  198DOPC   C1524499   6.549   0.326  11.352  0.0384  0.0280  0.2140
  198DOPC  H15A24500   6.540   0.433  11.342  0.8155 -0.0859 -2.5224
  198DOPC  H15B24501   6.501   0.282  11.265  0.2583  2.5725 -1.2991
  198DOPC  H15C24502   6.655   0.306  11.358 -0.5214 -3.3623  0.6394
  198DOPC   C1124503   6.465   0.290  11.727 -0.5480 -0.3786  0.1429
  198DOPC  H11A24504   6.442   0.182  11.724  1.7555 -0.9175 -0.3156
  198DOPC  H11B24505   6.528   0.293  11.819  0.6679 -0.9277 -0.6338
  198DOPC     P24506   6.360   0.519  11.811 -0.3245  0.4764 -0.0586
  198DOPC   O1324507   6.240   0.596  11.789 -0.2729  0.3360 -0.6315
  198DOPC   O1424508   6.481   0.586  11.768 -0.5672  0.4364 -0.2899
  198DOPC   O1224509   6.349   0.373  11.737  0.0959  0.1813 -0.4193
  198DOPC   O1124510   6.372   0.470  11.961  0.5057 -0.0294 -0.0578
  198DOPC    C124511   6.286   0.375  12.022  0.1766 -1.0640  0.0782
  198DOPC    HA24512   6.253   0.295  11.952  2.7459 -2.0503 -0.1299
  198DOPC    HB24513   6.195   0.434  12.044  1.1026  1.3444 -1.9909
  198DOPC    C224514   6.353   0.334  12.156  0.6376  0.2219 -0.1336
  198DOPC    HS24515   6.278   0.276  12.213 -0.0101  1.4775  0.3284
  198DOPC   O2124516   6.389   0.442  12.236  0.6659 -0.7598 -0.4633
  198DOPC   C2124517   6.292   0.528  12.277  0.3503  0.0150  0.0572
  198DOPC   O2224518   6.172   0.510  12.257 -0.0372  0.4474  0.2763
  198DOPC   C2224519   6.358   0.651  12.326 -0.5548 -0.0402 -1.2016
  198DOPC   H2R24520   6.297   0.730  12.278  0.0166  0.3389 -1.3235
  198DOPC   H2S24521   6.463   0.659  12.290 -0.7027  0.9017 -1.4420
  198DOPC    C324522   6.479   0.240  12.134 -0.5953  0.0694 -0.3110
  198DOPC    HX24523   6.557   0.309  12.094  0.1127  0.0892  1.0332
  198DOPC    HY24524   6.450   0.178  12.046  0.0135  1.5897 -1.6330
  198DOPC   O3124525   6.507   0.166  12.252  0.1158 -0.0201 -0.0917
  198DOPC   C3124526   6.581   0.233  12.340  0.5418 -0.7384 -0.1180
  198DOPC   O3224527   6.624   0.344  12.316  0.3648 -0.1399  0.7747
  198DOPC   C3224528   6.591   0.151  12.470 -0.2689 -0.2059 -0.1903
  198DOPC   H2X24529   6.503   0.163  12.537 -0.1967  0.9939 -0.2857
  198DOPC   H2Y24530   6.605   0.043  12.451  3.5015  0.1526 -0.2144
  198DOPC   C2324531   6.335   0.665  12.476 -0.0740  0.6877  0.2664
  198DOPC   H3R24532   6.226   0.669  12.497 -0.3450 -0.6809 -0.7350
  198DOPC   H3S24533   6.370   0.766  12.508 -2.3376  0.5403  3.7116
  198DOPC   C2424534   6.402   0.557  12.560 -0.1755 -0.1576 -0.0074
  198DOPC   H4R24535   6.507   0.557  12.524 -0.3826 -1.7240 -0.6945
  198DOPC   H4S24536   6.360   0.455  12.550  2.4214 -1.2885 -0.0916
  198DOPC   C2524537   6.419   0.584  12.711 -0.0186  0.1429 -0.2521
  198DOPC   H5R24538   6.315   0.573  12.749 -0.2102  1.9699 -0.1461
  198DOPC   H5S24539   6.451   0.690  12.712  0.2982  0.0566 -1.0945
  198DOPC   C2624540   6.510   0.495  12.800 -0.1067  0.2746 -0.2359
  198DOPC   H6R24541   6.616   0.506  12.769 -0.1551 -0.3016 -0.6257
  198DOPC   H6S24542   6.485   0.389  12.777 -0.5807  0.2382  0.4252
  198DOPC   C2724543   6.481   0.524  12.946  0.0737  0.1946 -0.3272
  198DOPC   H7R24544   6.541   0.440  12.986  1.2263 -0.3426 -2.9352
  198DOPC   H7S24545   6.378   0.488  12.966  1.3132 -1.9980  3.0067
  198DOPC   C2824546   6.508   0.669  13.000  0.7107 -0.7441  0.1819
  198DOPC   H8R24547   6.452   0.749  12.947  1.1561  2.8737  4.6095
  198DOPC   H8S24548   6.614   0.700  12.995  0.9616 -1.7185 -0.9927
  198DOPC   C2924549   6.449   0.683  13.141  0.1092  1.2200  0.2417
  198DOPC   H9R24550   6.346   0.720  13.151 -0.7474 -1.3480  1.6746
  198DOPC  C21024551   6.494   0.636  13.260 -0.1480  0.8902 -0.7530
  198DOPC  H10R24552   6.439   0.653  13.353  1.1772  0.0044  0.2245
  198DOPC  C21124553   6.622   0.556  13.267  0.5132  0.2415  0.2278
  198DOPC  H11R24554   6.702   0.584  13.196 -1.8293 -0.6958 -3.0061
  198DOPC  H11S24555   6.607   0.448  13.248 -0.1287  0.3117  0.3256
  198DOPC  C21224556   6.678   0.567  13.412  0.8038  0.0197  0.0153
  198DOPC  H12R24557   6.671   0.676  13.432 -1.9548  0.0569 -0.7106
  198DOPC  H12S24558   6.784   0.546  13.386  1.2924 -0.8856  2.5317
  198DOPC  C21324559   6.611   0.466  13.516  0.0484 -0.0884  0.2528
  198DOPC  H13R24560   6.649   0.364  13.493  0.7308  0.8638 -3.5432
  198DOPC  H13S24561   6.501   0.471  13.504 -0.1294 -0.4287  1.5711
  198DOPC  C21424562   6.646   0.512  13.657  0.7680 -0.7083 -0.0731
  198DOPC  H14R24563   6.609   0.424  13.715  1.2144 -0.6997  0.2238
  198DOPC  H14S24564   6.575   0.594  13.680  0.8773 -1.0428  1.6201
  198DOPC  C21524565   6.790   0.530  13.684 -0.3009  0.4141  0.0449
  198DOPC  H15R24566   6.830   0.628  13.648  0.4343  0.3397  0.6283
  198DOPC  H15S24567   6.845   0.449  13.631 -0.7992 -0.4252  0.7998
  198DOPC  C21624568   6.830   0.499  13.828  0.4805  0.0346  0.3771
  198DOPC  H16R24569   6.828   0.389  13.847  0.5249 -0.0307  0.0046
  198DOPC  H16S24570   6.774   0.550  13.910 -0.3685  0.3516 -0.3858
  198DOPC  C21724571   6.978   0.538  13.860 -0.8782  0.3742  0.7398
  198DOPC  H17R24572   6.993   0.648  13.865  0.6338  0.1889  0.6436
  198DOPC  H17S24573   7.045   0.505  13.779 -0.0802  0.4275  1.3611
  198DOPC  C21824574   7.028   0.477  13.999  0.2760 -0.0947  0.2481
  198DOPC  H18R24575   6.977   0.536  14.078 -0.2701 -0.5229  0.2282
  198DOPC  H18S24576   7.138   0.487  14.003  0.3776 -0.6446 -0.8460
  198DOPC  H18T24577   7.001   0.369  14.001  3.6508 -1.2632 -3.5930
  198DOPC   C3324578   6.710   0.192  12.558 -0.0590  1.1555  0.2035
  198DOPC   H3X24579   6.698   0.300  12.584 -0.1660  1.0322  0.6611
  198DOPC   H3Y24580   6.805   0.198  12.500  0.1983  2.0777  0.7031
  198DOPC   C3424581   6.716   0.105  12.687 -0.0297  0.3567  0.4685
  198DOPC   H4X24582   6.717  -0.004  12.666  0.9576  0.5876 -0.8129
  198DOPC   H4Y24583   6.619   0.125  12.737 -1.0075 -0.2459 -1.1022
  198DOPC   C3524584   6.820   0.150  12.788 -0.1092  0.4030  0.1258
  198DOPC   H5X24585   6.821   0.260  12.776 -0.0349  0.4561  0.6061
  198DOPC   H5Y24586   6.913   0.098  12.756 -0.6584 -0.6928  0.2665
  198DOPC   C3624587   6.781   0.127  12.940  0.1921  0.4314  0.7177
  198DOPC   H6X24588   6.674   0.154  12.954  0.0404 -0.2692  0.9643
  198DOPC   H6Y24589   6.789   0.017  12.957 -0.7180  0.4867  1.5754
  198DOPC   C3724590   6.862   0.210  13.040 -0.5222 -0.0060 -0.3520
  198DOPC   H7X24591   6.970   0.185  13.026 -0.8592 -0.6620 -1.9588
  198DOPC   H7Y24592   6.848   0.312  12.998  2.1751 -0.6272 -3.1465
  198DOPC   C3824593   6.813   0.190  13.183  0.0415 -0.6969 -0.2905
  198DOPC   H8X24594   6.834   0.084  13.208  0.6804 -0.6519 -0.6215
  198DOPC   H8Y24595   6.703   0.207  13.182 -0.1549 -1.6298  1.5861
  198DOPC   C3924596   6.879   0.285  13.276 -0.3166 -0.4842  0.2533
  198DOPC   H9X24597   6.904   0.380  13.226 -0.5604 -0.0086  1.0136
  198DOPC  C31024598   6.897   0.263  13.409 -0.4207 -0.6510  0.3576
  198DOPC  H10X24599   6.936   0.342  13.474 -2.1618 -0.0986  0.8000
  198DOPC  C31124600   6.836   0.143  13.478  0.2249  0.7632  0.0128
  198DOPC  H11X24601   6.756   0.097  13.416  1.0660  1.9544 -2.0777
  198DOPC  H11Y24602   6.796   0.177  13.575  0.9110 -2.8130  1.6926
  198DOPC  C31224603   6.945   0.042  13.504  0.1820  0.1229  0.0250
  198DOPC  H12X24604   7.032   0.085  13.558  1.3490 -0.2280 -1.4945
  198DOPC  H12Y24605   6.971  -0.001  13.405  0.3229 -0.0308  0.1285
  198DOPC  C31324606   6.878  -0.077  13.574 -0.6379  0.4879 -0.3183
  198DOPC  H13X24607   6.830  -0.040  13.667 -0.2029  0.2416  0.0085
  198DOPC  H13Y24608   6.794  -0.112  13.510 -1.2459  1.5969 -0.1578
  198DOPC  C31424609   6.979  -0.194  13.609  0.5380 -0.1009  0.7585
  198DOPC  H14X24610   7.003  -0.232  13.507  1.7675 -2.1760  1.7387
  198DOPC  H14Y24611   7.072  -0.157  13.657  0.1775  0.4990  0.9980
  198DOPC  C31524612   6.907  -0.307  13.683 -0.2426  0.5705 -0.1942
  198DOPC  H15X24613   6.823  -0.343  13.621 -0.2741 -0.6122  0.4942
  198DOPC  H15Y24614   6.866  -0.280  13.782 -1.3234  0.5285 -0.6221
  198DOPC  C31624615   7.001  -0.427  13.715 -0.0029 -0.2896 -0.2836
  198DOPC  H16X24616   6.999  -0.490  13.624  0.1487  1.4370 -1.5383
  198DOPC  H16Y24617   7.107  -0.394  13.727 -0.1423  0.1894 -0.3404
  198DOPC  C31724618   6.966  -0.513  13.834 -0.4667  0.2845  0.2973
  198DOPC  H17X24619   6.856  -0.530  13.832 -0.2542 -1.4454  1.4091
  198DOPC  H17Y24620   7.010  -0.614  13.821  2.4899  1.6022 -1.0516
  198DOPC  C31824621   7.001  -0.461  13.978  0.3093  0.2874 -0.1485
  198DOPC  H18X24622   6.956  -0.536  14.047  1.1558 -0.6537 -0.6124
  198DOPC  H18Y24623   7.110  -0.457  13.998  0.3740 -1.0630 -0.1290
  198DOPC  H18Z24624   6.943  -0.371  14.011 -0.1127 -0.2969  0.7504
  199DOPC     N24625   5.410   0.852  11.377 -1.1939 -0.0083  0.8057
  199DOPC   C1224626   5.392   0.894  11.518  0.4455 -0.1699 -0.2801
  199DOPC  H12A24627   5.290   0.884  11.554  0.9774  0.7139  1.6373
  199DOPC  H12B24628   5.412   0.999  11.533 -0.5584  0.0914 -0.6900
  199DOPC   C1324629   5.320   0.928  11.287 -0.5603 -0.8122  0.1785
  199DOPC  H13A24630   5.344   1.033  11.282 -2.3992 -0.1045  3.0474
  199DOPC  H13B24631   5.321   0.879  11.191  2.9550 -0.1956 -0.2254
  199DOPC  H13C24632   5.218   0.922  11.322 -0.8898 -2.2513 -0.9393
  199DOPC   C1424633   5.390   0.704  11.358 -0.6867  0.6520 -0.1644
  199DOPC  H14A24634   5.287   0.674  11.368 -0.4617  0.3060  1.2617
  199DOPC  H14B24635   5.425   0.680  11.258  2.1870  0.2665  0.8610
  199DOPC  H14C24636   5.445   0.653  11.435 -0.8219 -1.6334 -1.4659
  199DOPC   C1524637   5.549   0.881  11.328 -0.0390  0.3806 -0.3969
  199DOPC  H15A24638   5.591   0.976  11.361  1.3212 -0.5472  0.6587
  199DOPC  H15B24639   5.565   0.867  11.222 -1.5490  2.0321 -0.8987
  199DOPC  H15C24640   5.618   0.814  11.377 -0.9894 -0.2623  0.0811
  199DOPC   C1124641   5.482   0.820  11.622 -0.4031 -0.0771 -0.3231
  199DOPC  H11A24642   5.425   0.838  11.716 -1.0469  0.7483 -0.8486
  199DOPC  H11B24643   5.491   0.710  11.622  1.7703  0.0573 -0.3066
  199DOPC     P24644   5.652   1.014  11.673  0.0898 -0.1096 -0.3327
  199DOPC   O1324645   5.539   1.105  11.647  0.2509 -0.8051 -0.0473
  199DOPC   O1424646   5.789   1.049  11.626  0.3489  0.3079 -0.3334
  199DOPC   O1224647   5.616   0.868  11.629  0.1167 -0.0814 -0.4999
  199DOPC   O1124648   5.668   1.000  11.834 -0.6342  0.3248 -0.2311
  199DOPC    C124649   5.745   0.892  11.894 -0.0570 -0.1024  0.0267
  199DOPC    HA24650   5.851   0.913  11.866  0.4062 -0.0887  1.6741
  199DOPC    HB24651   5.713   0.800  11.842 -0.0409  0.4657 -1.0330
  199DOPC    C224652   5.740   0.888  12.041 -0.2740  0.3349 -0.2904
  199DOPC    HS24653   5.790   0.796  12.079 -2.2246 -0.2245  1.1053
  199DOPC   O2124654   5.599   0.884  12.100 -0.4667 -0.1894 -0.1678
  199DOPC   C2124655   5.540   0.770  12.079  0.7557 -0.2424 -0.2122
  199DOPC   O2224656   5.579   0.682  12.003  0.1439 -0.1522 -0.1649
  199DOPC   C2224657   5.395   0.767  12.134 -1.1917  0.3757 -0.2151
  199DOPC   H2R24658   5.323   0.764  12.049  0.1697  0.8281 -1.4271
  199DOPC   H2S24659   5.367   0.860  12.188 -1.3474  0.5063 -0.5160
  199DOPC    C324660   5.821   1.007  12.105  0.6726 -0.4779  0.1179
  199DOPC    HX24661   5.751   1.092  12.097  0.1352 -0.8493  0.7513
  199DOPC    HY24662   5.918   1.022  12.053 -0.3134  1.9402 -1.1296
  199DOPC   O3124663   5.844   0.988  12.243 -0.2784 -0.0896  0.0572
  199DOPC   C3124664   5.936   0.895  12.269 -0.3458  0.7406  0.3198
  199DOPC   O3224665   6.010   0.841  12.189  0.1103 -0.2184 -0.3287
  199DOPC   C3224666   5.930   0.852  12.418 -0.1646  0.1249 -0.5122
  199DOPC   H2X24667   5.833   0.879  12.465  0.6238  0.7239  0.8507
  199DOPC   H2Y24668   5.959   0.745  12.420 -0.0043  0.1141  3.1019
  199DOPC   C2324669   5.382   0.658  12.236  0.2810  0.0619  1.0955
  199DOPC   H3R24670   5.412   0.562  12.189  0.1744  1.2602 -1.5940
  199DOPC   H3S24671   5.276   0.651  12.269 -0.1713 -2.8101 -0.5845
  199DOPC   C2424672   5.468   0.665  12.360  0.6061 -0.7477  0.1307
  199DOPC   H4R24673   5.440   0.749  12.427 -0.7165 -0.9548 -0.1344
  199DOPC   H4S24674   5.577   0.665  12.341  0.4096 -1.3180 -1.1103
  199DOPC   C2524675   5.452   0.541  12.448  0.5589  0.8408 -0.0210
  199DOPC   H5R24676   5.538   0.470  12.440 -0.3875 -0.7152  2.2789
  199DOPC   H5S24677   5.362   0.488  12.411  0.6410  2.0576 -2.0836
  199DOPC   C2624678   5.429   0.557  12.600 -0.0670 -0.7429  0.5731
  199DOPC   H6R24679   5.426   0.462  12.657  2.5558 -0.9267  0.5483
  199DOPC   H6S24680   5.340   0.622  12.616 -0.0125 -0.2499 -0.9708
  199DOPC   C2724681   5.556   0.633  12.659 -0.6764 -0.3467 -0.3761
  199DOPC   H7R24682   5.589   0.717  12.594 -1.0626  0.2553  0.1939
  199DOPC   H7S24683   5.638   0.559  12.652  0.0781  0.5313 -1.0220
  199DOPC   C2824684   5.540   0.695  12.797  0.3597 -0.9898 -0.2051
  199DOPC   H8R24685   5.456   0.764  12.774  0.3029 -0.2216  2.1078
  199DOPC   H8S24686   5.634   0.745  12.829 -0.2288 -0.2774  0.4539
  199DOPC   C2924687   5.500   0.582  12.886  0.1224 -0.6800 -0.5737
  199DOPC   H9R24688   5.398   0.546  12.867 -0.3040  0.0983  0.1804
  199DOPC  C21024689   5.572   0.532  12.985  0.3393 -0.2282  0.2400
  199DOPC  H10R24690   5.531   0.447  13.041  0.2484 -0.8632 -0.7526
  199DOPC  C21124691   5.710   0.566  13.020 -0.3224  0.4330 -0.6328
  199DOPC  H11R24692   5.738   0.673  13.008  1.3023  0.8312  4.5049
  199DOPC  H11S24693   5.787   0.505  12.967 -0.0849 -0.9742  1.2484
  199DOPC  C21224694   5.718   0.543  13.175 -0.3659 -0.0943 -0.3195
  199DOPC  H12R24695   5.823   0.555  13.210  0.8845 -0.7170 -3.5112
  199DOPC  H12S24696   5.683   0.441  13.203 -1.3180  0.6217  1.2062
  199DOPC  C21324697   5.638   0.638  13.270  0.2697  0.3707  1.1684
  199DOPC  H13R24698   5.531   0.650  13.244  0.3358  2.1597  1.6096
  199DOPC  H13S24699   5.691   0.736  13.274  0.9958 -0.0598  3.0750
  199DOPC  C21424700   5.627   0.591  13.420  0.2786  0.6127 -0.1279
  199DOPC  H14R24701   5.576   0.669  13.481 -2.6081  0.6227 -2.3605
  199DOPC  H14S24702   5.726   0.566  13.465 -0.8443 -1.7838  1.1966
  199DOPC  C21524703   5.522   0.481  13.436  0.7795 -1.3267  0.3845
  199DOPC  H15R24704   5.566   0.390  13.390  1.9899 -1.5872  1.9472
  199DOPC  H15S24705   5.425   0.502  13.387  1.1079  0.7497  0.5316
  199DOPC  C21624706   5.496   0.447  13.587  0.0355  0.7179  1.2710
  199DOPC  H16R24707   5.593   0.442  13.642 -0.0983  0.3523  1.4805
  199DOPC  H16S24708   5.456   0.344  13.585 -1.8938  1.4268 -0.0702
  199DOPC  C21724709   5.404   0.545  13.667  0.3218  0.0491  0.3095
  199DOPC  H17R24710   5.435   0.651  13.654  0.8425 -0.0450  0.7596
  199DOPC  H17S24711   5.402   0.526  13.776  1.2506  2.7513  0.8858
  199DOPC  C21824712   5.257   0.533  13.614 -0.1741  0.5104 -0.0703
  199DOPC  H18R24713   5.258   0.536  13.503 -0.5144 -0.6786 -0.1219
  199DOPC  H18S24714   5.197   0.617  13.655 -1.2107  0.4628 -1.4508
  199DOPC  H18T24715   5.216   0.433  13.640  2.4990 -0.5633  0.3408
  199DOPC   C3324716   6.029   0.937  12.505  0.2743 -0.3845  0.5643
  199DOPC   H3X24717   5.992   1.042  12.499 -1.5170 -1.0119 -0.0988
  199DOPC   H3Y24718   6.129   0.938  12.459 -0.0855  0.8757 -0.2335
  199DOPC   C3424719   6.045   0.900  12.655  0.7548 -0.2622 -0.2554
  199DOPC   H4X24720   6.116   0.972  12.702 -0.5335  0.5567  0.4811
  199DOPC   H4Y24721   6.099   0.803  12.661  0.6972 -0.4069 -1.7139
  199DOPC   C3524722   5.920   0.904  12.739  0.5287 -0.0655 -0.1277
  199DOPC   H5X24723   5.853   0.821  12.711  0.0454  0.1383  0.3943
  199DOPC   H5Y24724   5.859   0.995  12.719 -1.9421 -1.7652 -0.8479
  199DOPC   C3624725   5.949   0.903  12.891  0.1055 -0.4080 -0.7574
  199DOPC   H6X24726   6.007   0.992  12.921  0.4045 -1.2481  1.3148
  199DOPC   H6Y24727   5.852   0.910  12.944  0.2189  1.9423 -0.7842
  199DOPC   C3724728   6.035   0.788  12.941  0.2515 -0.2074 -0.3364
  199DOPC   H7X24729   5.984   0.695  12.909 -0.6082  0.7724 -1.9599
  199DOPC   H7Y24730   6.137   0.786  12.897  0.1182 -1.4142 -0.6396
  199DOPC   C3824731   6.046   0.791  13.100  0.3547  0.8291  0.4568
  199DOPC   H8X24732   6.091   0.693  13.127 -1.8668 -0.0544  1.2314
  199DOPC   H8Y24733   5.941   0.782  13.137  0.4178 -0.7868  0.3275
  199DOPC   C3924734   6.122   0.909  13.161  0.1655 -0.7414  0.6646
  199DOPC   H9X24735   6.152   0.983  13.085 -0.0877 -2.2124 -0.9632
  199DOPC  C31024736   6.135   0.940  13.290 -0.0532 -0.1619  0.1187
  199DOPC  H10X24737   6.188   1.036  13.302  0.6223 -0.4782 -0.2819
  199DOPC  C31124738   6.092   0.860  13.410  0.8895 -0.3153 -0.6280
  199DOPC  H11X24739   6.025   0.774  13.390 -0.6967  0.0090  2.6004
  199DOPC  H11Y24740   6.034   0.933  13.471 -2.4818 -1.1588 -2.5378
  199DOPC  C31224741   6.214   0.808  13.491  0.0477 -0.2168  0.0746
  199DOPC  H12X24742   6.290   0.889  13.496 -0.3325  0.1903 -0.5291
  199DOPC  H12Y24743   6.260   0.718  13.445  0.7491 -0.3410  0.9889
  199DOPC  C31324744   6.168   0.751  13.625  0.2589  0.8615 -0.7721
  199DOPC  H13X24745   6.137   0.832  13.694  0.0040  0.2711 -0.1841
  199DOPC  H13Y24746   6.070   0.699  13.613 -0.0302  1.1553  0.2857
  199DOPC  C31424747   6.270   0.657  13.682 -0.5511 -0.7170  0.5186
  199DOPC  H14X24748   6.301   0.575  13.615 -0.2029  0.0628 -0.2883
  199DOPC  H14Y24749   6.362   0.709  13.716 -0.1925 -1.3051  0.4554
  199DOPC  C31524750   6.226   0.588  13.809  0.1250 -0.3449 -0.0410
  199DOPC  H15X24751   6.124   0.546  13.801  0.1408 -0.2232 -1.1028
  199DOPC  H15Y24752   6.219   0.662  13.891 -0.7502 -0.9484  0.4348
  199DOPC  C31624753   6.321   0.472  13.853  0.4810 -0.2330 -0.1992
  199DOPC  H16X24754   6.338   0.408  13.764  1.9188  0.1931 -0.2495
  199DOPC  H16Y24755   6.420   0.507  13.887  0.7824 -0.6793 -0.6081
  199DOPC  C31724756   6.271   0.386  13.967  0.1051  0.3683  0.3460
  199DOPC  H17X24757   6.243   0.457  14.047 -0.5763  0.4937  0.0037
  199DOPC  H17Y24758   6.184   0.324  13.936  1.3888 -2.0962  1.3698
  199DOPC  C31824759   6.386   0.301  14.016 -0.6552  0.6201  0.1476
  199DOPC  H18X24760   6.481   0.356  14.003 -1.2550  2.0075  1.2663
  199DOPC  H18Y24761   6.362   0.293  14.125  2.1252  0.0027  0.7945
  199DOPC  H18Z24762   6.385   0.197  13.979  0.7650  0.1247  1.4085
  200DOPC     N24763   1.084   1.537  11.502  0.2901  0.4687  0.0592
  200DOPC   C1224764   1.111   1.403  11.570 -0.4618  0.0356  0.2921
  200DOPC  H12A24765   1.060   1.320  11.522  0.4365 -0.8760  0.8806
  200DOPC  H12B24766   1.076   1.416  11.671  0.7660 -0.5330  0.8116
  200DOPC   C1324767   0.937   1.572  11.495  0.5167 -0.0599 -0.3201
  200DOPC  H13A24768   0.873   1.501  11.445  0.5493  1.1362 -2.1704
  200DOPC  H13B24769   0.904   1.585  11.598  0.2073 -0.2975 -0.3866
  200DOPC  H13C24770   0.925   1.674  11.462  0.4099  0.2431  0.5996
  200DOPC   C1424771   1.132   1.533  11.363 -0.4141  0.4286 -0.0699
  200DOPC  H14A24772   1.238   1.513  11.363 -0.4709 -0.0145 -1.3949
  200DOPC  H14B24773   1.078   1.469  11.294  1.2713 -1.6209  0.4230
  200DOPC  H14C24774   1.131   1.634  11.325 -2.1748  2.5831  4.8830
  200DOPC   C1524775   1.156   1.651  11.566  0.2635 -0.1066  0.1164
  200DOPC  H15A24776   1.150   1.647  11.674 -2.4821 -1.6490  0.0145
  200DOPC  H15B24777   1.118   1.746  11.532 -1.9718 -1.1071 -0.3653
  200DOPC  H15C24778   1.261   1.651  11.542  0.8762  0.5238  2.5575
  200DOPC   C1124779   1.258   1.366  11.602 -0.5508  0.9288 -0.5002
  200DOPC  H11A24780   1.271   1.256  11.599  0.4989  0.9297  1.5753
  200DOPC  H11B24781   1.322   1.410  11.522  2.1466 -0.7120  0.6111
  200DOPC     P24782   1.437   1.407  11.794  0.0580  0.0846  0.4900
  200DOPC   O1324783   1.532   1.486  11.712  0.3687 -0.1964  0.3026
  200DOPC   O1424784   1.473   1.266  11.805 -0.1844 -0.1333  0.2877
  200DOPC   O1224785   1.294   1.416  11.730 -0.4602 -0.4681 -0.3918
  200DOPC   O1124786   1.420   1.470  11.941 -0.4023  0.3204  0.7274
  200DOPC    C124787   1.455   1.611  11.957 -0.6644 -0.5839 -0.1336
  200DOPC    HA24788   1.359   1.668  11.960 -1.3156 -1.6358 -0.4463
  200DOPC    HB24789   1.522   1.650  11.878  0.4544 -1.8683  0.1508
  200DOPC    C224790   1.526   1.642  12.084  0.8186  0.6056  0.0214
  200DOPC    HS24791   1.627   1.600  12.072 -0.0494 -1.3103 -0.9527
  200DOPC   O2124792   1.455   1.587  12.192  0.1731 -0.1986 -0.5157
  200DOPC   C2124793   1.523   1.522  12.275 -0.7291 -0.8299  0.0363
  200DOPC   O2224794   1.644   1.491  12.268 -0.1511 -0.4493  0.7650
  200DOPC   C2224795   1.445   1.509  12.400 -0.0112  0.0115 -0.5327
  200DOPC   H2R24796   1.394   1.411  12.392  0.5204 -0.1819 -1.6942
  200DOPC   H2S24797   1.379   1.597  12.412 -1.1616 -0.9280  0.2616
  200DOPC    C324798   1.541   1.798  12.117  0.5331  0.3418 -0.7317
  200DOPC    HX24799   1.444   1.852  12.127 -0.5079 -1.1730 -2.0784
  200DOPC    HY24800   1.584   1.840  12.024 -2.6075 -0.2384 -2.6175
  200DOPC   O3124801   1.634   1.810  12.233  0.0519  0.0152  0.5654
  200DOPC   C3124802   1.662   1.936  12.255  0.0686 -0.4867 -0.2407
  200DOPC   O3224803   1.598   2.032  12.216 -0.1056 -0.1526  0.1009
  200DOPC   C3224804   1.792   1.951  12.336  0.1328 -0.3826 -0.0952
  200DOPC   H2X24805   1.882   1.938  12.272  1.1062 -1.0911  1.3498
  200DOPC   H2Y24806   1.795   2.058  12.364 -0.2987 -0.2251 -0.6437
  200DOPC   C2324807   1.533   1.488  12.526  0.0608 -0.1395  0.1863
  200DOPC   H3R24808   1.586   1.585  12.539  0.9085 -0.7312  1.2496
  200DOPC   H3S24809   1.608   1.408  12.509 -1.2263 -1.1783 -0.8570
  200DOPC   C2424810   1.458   1.455  12.655  1.1843 -0.6630 -0.2145
  200DOPC   H4R24811   1.530   1.453  12.740 -0.4773 -1.2186  1.2600
  200DOPC   H4S24812   1.415   1.353  12.645  1.4341 -0.9016  0.9261
  200DOPC   C2524813   1.341   1.546  12.664 -0.4909  0.4851 -0.4355
  200DOPC   H5R24814   1.264   1.527  12.587 -0.7817  1.8369 -0.5141
  200DOPC   H5S24815   1.373   1.651  12.644  0.9481  0.6295  2.1978
  200DOPC   C2624816   1.261   1.543  12.796  0.6344 -0.4864  0.1492
  200DOPC   H6R24817   1.239   1.438  12.822 -1.8447 -0.5888 -2.0540
  200DOPC   H6S24818   1.167   1.601  12.791  0.1413 -0.7829  3.6352
  200DOPC   C2724819   1.344   1.610  12.914 -1.0921 -0.0492 -0.8609
  200DOPC   H7R24820   1.347   1.717  12.885 -2.4373 -0.1852 -1.5921
  200DOPC   H7S24821   1.445   1.569  12.892 -0.0680  2.4009 -1.0044
  200DOPC   C2824822   1.293   1.595  13.053 -0.0676  0.5972  0.3051
  200DOPC   H8R24823   1.274   1.486  13.062 -0.6344  0.6603 -0.0795
  200DOPC   H8S24824   1.197   1.650  13.065  0.1731  1.2490 -0.6629
  200DOPC   C2924825   1.391   1.633  13.162  0.0395 -0.7237 -0.1554
  200DOPC   H9R24826   1.486   1.580  13.151  0.8644  1.0488 -2.5256
  200DOPC  C21024827   1.370   1.732  13.262  0.2311  0.0673 -0.5932
  200DOPC  H10R24828   1.448   1.746  13.338 -0.3860 -0.0835  0.0847
  200DOPC  C21124829   1.245   1.814  13.288  1.0326 -0.0529  0.1060
  200DOPC  H11R24830   1.166   1.801  13.211  0.7674  1.6556  0.0618
  200DOPC  H11S24831   1.263   1.923  13.294 -0.8139  0.4895 -2.3946
  200DOPC  C21224832   1.180   1.764  13.412  0.9252  0.9955 -0.5448
  200DOPC  H12R24833   1.168   1.653  13.409  0.9381  0.9782 -0.0470
  200DOPC  H12S24834   1.076   1.799  13.428  0.4531 -0.4552 -0.2591
  200DOPC  C21324835   1.252   1.798  13.542  0.0135 -0.2025 -0.5389
  200DOPC  H13R24836   1.270   1.907  13.550  0.2910 -0.2988  0.2844
  200DOPC  H13S24837   1.350   1.748  13.534  0.0365 -0.2409 -0.0512
  200DOPC  C21424838   1.185   1.751  13.670  0.1617  0.1828 -0.0735
  200DOPC  H14R24839   1.163   1.642  13.669  0.4327  0.1291 -0.7522
  200DOPC  H14S24840   1.085   1.799  13.667 -0.5920 -1.3393 -0.3983
  200DOPC  C21524841   1.252   1.793  13.800 -0.6786  0.2648  0.0612
  200DOPC  H15R24842   1.263   1.902  13.818  0.9037  0.2768 -0.8833
  200DOPC  H15S24843   1.359   1.767  13.789 -1.0024 -1.2576  0.3322
  200DOPC  C21624844   1.186   1.721  13.921  0.7481 -0.1347 -0.0058
  200DOPC  H16R24845   1.195   1.611  13.911  0.3309 -0.2112  0.4276
  200DOPC  H16S24846   1.077   1.743  13.917  0.9303  0.6962 -0.6629
  200DOPC  C21724847   1.253   1.753  14.059 -0.5253 -0.3360 -0.2919
  200DOPC  H17R24848   1.360   1.726  14.054 -0.8997 -2.2082  0.7517
  200DOPC  H17S24849   1.212   1.683  14.135  1.8537 -1.2010  0.2714
  200DOPC  C21824850   1.238   1.898  14.117  0.4281 -0.1586  0.5641
  200DOPC  H18R24851   1.276   1.921  14.219 -2.0105  0.5358  1.3972
  200DOPC  H18S24852   1.131   1.927  14.129  0.6390  0.4468  1.0561
  200DOPC  H18T24853   1.278   1.971  14.044  0.8638 -1.0513 -0.0944
  200DOPC   C3324854   1.794   1.863  12.466 -0.4841  1.1305 -0.6381
  200DOPC   H3X24855   1.894   1.853  12.512 -1.9149 -0.3565  2.4940
  200DOPC   H3Y24856   1.752   1.764  12.439 -1.8115  1.5970 -0.3770
  200DOPC   C3424857   1.708   1.915  12.571 -0.3921  0.2109 -0.5507
  200DOPC   H4X24858   1.605   1.922  12.531 -0.2369  2.4095 -0.7006
  200DOPC   H4Y24859   1.747   2.017  12.593  0.6634 -0.4406  0.6626
  200DOPC   C3524860   1.693   1.837  12.705 -0.1368 -0.3481  0.4294
  200DOPC   H5X24861   1.799   1.817  12.730  0.4283 -1.2104 -2.2761
  200DOPC   H5Y24862   1.655   1.741  12.665 -0.7941  1.1522 -3.0189
  200DOPC   C3624863   1.601   1.904  12.807 -0.5091 -0.0845  0.0260
  200DOPC   H6X24864   1.501   1.897  12.759  1.3071 -2.2625 -3.8912
  200DOPC   H6Y24865   1.616   1.856  12.906 -0.5428 -0.9511 -0.3811
  200DOPC   C3724866   1.646   2.050  12.842  0.8881 -0.5173  0.4542
  200DOPC   H7X24867   1.755   2.040  12.859  1.4565 -0.3398 -2.6633
  200DOPC   H7Y24868   1.623   2.112  12.753  1.1367  1.3400  1.6427
  200DOPC   C3824869   1.578   2.101  12.958 -0.0235  0.1157  0.0510
  200DOPC   H8X24870   1.616   2.049  13.049 -1.6201 -3.0077 -0.9601
  200DOPC   H8Y24871   1.469   2.085  12.950 -0.3567  1.9240  0.5130
  200DOPC   C3924872   1.587   2.255  12.986  0.3425  0.0060  0.1786
  200DOPC   H9X24873   1.545   2.316  12.905 -1.6740 -0.3877  0.8596
  200DOPC  C31024874   1.633   2.320  13.094 -0.5500  0.4244 -0.3886
  200DOPC  H10X24875   1.611   2.428  13.097  0.8207  0.6907  1.7693
  200DOPC  C31124876   1.707   2.275  13.218 -0.0615  0.0782 -0.7829
  200DOPC  H11X24877   1.796   2.339  13.230  0.7317 -1.0595 -0.4372
  200DOPC  H11Y24878   1.742   2.170  13.212  2.9712  0.9850 -0.4135
  200DOPC  C31224879   1.631   2.305  13.354 -0.1451  0.9221 -0.6670
  200DOPC  H12X24880   1.587   2.407  13.352  2.2314  2.0508  0.5151
  200DOPC  H12Y24881   1.703   2.310  13.439 -0.3056 -0.3967 -0.4380
  200DOPC  C31324882   1.528   2.201  13.393 -0.4101  0.1416 -0.7543
  200DOPC  H13X24883   1.458   2.190  13.307 -1.5380 -0.4556  0.2072
  200DOPC  H13Y24884   1.575   2.101  13.403 -0.4023 -0.0479 -2.3417
  200DOPC  C31424885   1.452   2.222  13.528 -0.4021  0.8719 -0.6221
  200DOPC  H14X24886   1.361   2.279  13.499 -0.3151  1.6362  0.5554
  200DOPC  H14Y24887   1.419   2.120  13.558  0.8663  0.3166 -1.0803
  200DOPC  C31524888   1.528   2.290  13.645 -0.1087  0.5480  0.1415
  200DOPC  H15X24889   1.583   2.383  13.617 -1.0159  0.9002 -0.4984
  200DOPC  H15Y24890   1.597   2.208  13.678 -0.0038  0.5362 -0.1053
  200DOPC  C31624891   1.421   2.306  13.764  0.1918  0.5764 -0.4029
  200DOPC  H16X24892   1.339   2.379  13.746  0.3943  1.7721  2.7966
  200DOPC  H16Y24893   1.383   2.203  13.782  1.8549 -0.5709 -2.9847
  200DOPC  C31724894   1.485   2.363  13.894  0.2924  0.4361 -0.2964
  200DOPC  H17X24895   1.587   2.318  13.905  0.3991  0.7926  0.2529
  200DOPC  H17Y24896   1.507   2.472  13.889  3.0453 -0.0900 -1.3339
  200DOPC  C31824897   1.394   2.349  14.021  0.0060 -0.5475  0.2342
  200DOPC  H18X24898   1.293   2.369  13.978  1.4479 -2.1981 -4.5228
  200DOPC  H18Y24899   1.402   2.244  14.057 -0.8197 -0.2776  1.2596
  200DOPC  H18Z24900   1.407   2.421  14.105 -1.7901 -0.3862  0.4233
  201SOD    SOD24901   4.208   5.934  19.701  0.5372  0.1322  0.4879
  202SOD    SOD24902   4.978   5.119  11.987 -0.1393 -0.1507 -0.1420
  203SOD    SOD24903   3.674   5.682  17.921 -0.1265  0.2023  0.2553
  204SOD    SOD24904   2.209   1.967  10.794  0.3593 -0.1217  0.2729
  205SOD    SOD24905   1.894   1.321  18.275 -0.0201 -0.4089 -0.3418
  206SOD    SOD24906   1.540   5.824  10.911  0.1097 -0.5122 -0.1322
  207SOD    SOD24907   3.455   0.678   9.141 -0.4698 -0.8143  0.1091
  208SOD    SOD24908   3.604   3.057  17.219 -0.3332  0.5129 -0.2852
  209SOD    SOD24909   1.610   6.388  11.361 -0.4070  0.4591  0.0896
  210SOD    SOD24910   5.754   2.441  18.704  0.3321  0.7770  0.1740
  211SOD    SOD24911   6.243   4.149  18.174 -0.4839 -0.1480 -0.1750
  212SOD    SOD24912   5.340   5.984  18.755 -0.3849 -0.2677  0.1574
  213SOD    SOD24913   0.591   2.002   9.460  0.3914 -0.3042  0.0548
  214SOD    SOD24914   0.849   5.801  16.702 -0.4562  0.0134  0.3313
  215SOD    SOD24915   1.595   3.795  17.058  0.0824 -0.3667  0.0606
  216SOD    SOD24916   5.053   1.155  18.286  0.2654  0.4164  0.3393
  217SOD    SOD24917   4.489   1.411  11.062  0.1160  0.0055  0.2827
  218SOD    SOD24918   2.993   5.890  19.645 -0.4403  0.1590 -0.2954
  219SOD    SOD24919   3.809   0.577  16.670  0.7218 -0.7823  0.0158
  220SOD    SOD24920   0.997   2.054  10.306 -0.1357 -0.5817 -0.2751
  221SOD    SOD24921   5.273   3.728   9.969 -0.0706  0.0006  0.2168
  222SOD    SOD24922   1.614   3.829  19.615  0.0217 -0.0403  0.2130
  223SOD    SOD24923   5.823   6.368   9.449 -0.3250 -0.3362  0.0605
  224SOD    SOD24924   1.514   0.827  11.050  0.1597 -0.4905 -0.4305
  225SOD    SOD24925   2.576   4.046  11.395 -0.2331 -0.1975 -0.3261
  226SOD    SOD24926   3.831   6.477  17.031  0.0333  0.7055  0.1238
  227CLA    CLA24927   6.136   2.368  11.122 -0.2881 -0.0549  0.0433
  228CLA    CLA24928   0.696   4.013  10.488 -0.2931 -0.0576  0.2300
  229CLA    CLA24929   1.780   2.042   9.885  0.6522 -0.4237  0.4080
  230CLA    CLA24930   5.325   1.314  19.160  0.1477 -0.0840 -0.2732
  231CLA    CLA24931   4.930   0.656  18.316  0.4199 -0.0764 -0.2174
  232CLA    CLA24932   2.495   3.825  17.456  0.4293 -0.0124  0.0195
  233CLA    CLA24933   5.440   4.164  19.731 -0.0748 -0.1148  0.2021
  234CLA    CLA24934   3.443   5.277  19.397 -0.4149  0.2122 -0.2176
  235CLA    CLA24935   0.592   1.489   9.261  0.4036 -0.2318 -0.2111
  236CLA    CLA24936   1.472   1.206  18.173  0.0587  0.0299  0.0361
  237CLA    CLA24937   4.423   4.161  18.064  0.0754 -0.3849  0.0924
  238CLA    CLA24938   2.691   5.935   8.980  0.2224 -0.4947 -0.0655
  239CLA    CLA24939   0.650   6.507   9.737 -0.0212  0.1812  0.1255
  240CLA    CLA24940   1.883   2.232  19.450  0.0931 -0.3297 -0.1882
  241CLA    CLA24941   1.135   1.900   9.724  0.5757 -0.3963 -0.1926
  242CLA    CLA24942   2.128   1.232  19.952 -0.3693 -0.1685  0.4761
  243CLA    CLA24943   2.000   1.324  11.080  0.0361  0.3040  0.3956
  244CLA    CLA24944   4.979   2.568  10.739  0.4739  0.1287  0.4832
  245CLA    CLA24945   1.286   5.975  11.234  0.2034 -0.1553 -0.0819
  246CLA    CLA24946   5.240   4.311  17.456 -0.4983  0.1655  0.1680
  247CLA    CLA24947   1.309   0.038  11.247  0.2012 -0.0450  0.3758
  248CLA    CLA24948   3.166   5.030  10.832  0.0607  0.4561 -0.2364
  249CLA    CLA24949   3.608   1.757   9.269  0.2284 -0.0758  0.1992
  250CLA    CLA24950   4.366   2.118  18.810  0.0436 -0.7537 -0.2893
  251CLA    CLA24951   3.625   6.605  17.498 -0.0776 -0.2282 -0.1916
  252CLA    CLA24952   6.658   1.814   9.987 -0.0877  0.2743  0.3176
  253TIP3   OH224953   3.906   0.599  17.090 -0.5664  0.7217 -0.1076
  253TIP3    H124954   3.884   0.676  17.037  2.4113  1.8829  0.1785
  253TIP3    H224955   3.975   0.629  17.149  0.9193 -2.2375 -0.1671
  254TIP3   OH224956   6.550   5.559  18.488  0.4498 -0.0606 -0.2808
  254TIP3    H124957   6.610   5.522  18.552  0.2363 -0.5538 -0.3641
  254TIP3    H224958   6.472   5.503  18.493 -0.0373  0.6176 -0.1126
  255TIP3   OH224959   2.115   5.839  16.462 -0.1048 -0.9373  0.1824
  255TIP3    H124960   2.135   5.777  16.392  0.6708  1.3221 -1.7314
  255TIP3    H224961   2.165   5.808  16.538 -1.4417 -3.7912  0.0188
  256TIP3   OH224962   0.534   0.187  18.955  0.3748 -0.0672 -0.4329
  256TIP3    H124963   0.509   0.255  19.018  0.3923 -0.2127 -0.2675
  256TIP3    H224964   0.518   0.104  19.001 -1.4832 -0.2350 -1.2912
  257TIP3   OH224965   1.946   5.785  18.433 -0.2257  0.2627 -0.2750
  257TIP3    H124966   1.961   5.874  18.464  1.6839 -0.3167  0.6392
  257TIP3    H224967   2.014   5.771  18.367 -1.1168 -0.2088 -1.1156
  258TIP3   OH224968   5.177   4.277  18.808 -0.1642 -0.2389  0.6223
  258TIP3    H124969   5.242   4.310  18.870  0.0150  0.5924  0.0046
  258TIP3    H224970   5.169   4.184  18.830  1.4714 -0.4461  0.5113
  259TIP3   OH224971   1.148   2.573  18.586 -0.0549  0.4916 -0.3983
  259TIP3    H124972   1.191   2.490  18.567 -0.2633  0.5989 -1.4351
  259TIP3    H224973   1.192   2.636  18.529 -0.8916  0.7928 -0.7322
  260TIP3   OH224974   6.475   6.651  17.255  0.9396 -0.0598  0.3648
  260TIP3    H124975   6.480   6.635  17.161  0.0521 -0.4005  0.3618
  260TIP3    H224976   6.438   6.570  17.291 -0.7039  0.8183  0.7411
  261TIP3   OH224977   5.627   1.242  19.917 -0.1696 -0.3475 -0.5171
  261TIP3    H124978   5.633   1.321  19.970 -1.3316  2.1404 -3.7605
  261TIP3    H224979   5.553   1.194  19.954 -1.7504  1.9080 -0.5386
  262TIP3   OH224980   1.685   4.543  18.405 -0.2957 -0.0459  0.0883
  262TIP3    H124981   1.769   4.515  18.367  0.6332  1.6528  0.7534
  262TIP3    H224982   1.620   4.487  18.364  1.3536 -3.1265  1.3020
  263TIP3   OH224983   6.310   6.016  17.278  0.1921 -0.2963 -0.1628
  263TIP3    H124984   6.255   5.938  17.284 -0.9676  0.5532  0.9085
  263TIP3    H224985   6.288   6.055  17.193  1.0319 -1.2753 -0.8592
  264TIP3   OH224986   3.950   4.339  17.521 -0.0806 -0.1549 -0.2418
  264TIP3    H124987   3.941   4.434  17.515  1.0747 -0.0451 -0.5968
  264TIP3    H224988   3.874   4.310  17.572 -1.0471  0.8230 -1.0858
  265TIP3   OH224989   0.593   2.761  19.737 -0.0350  0.7562  0.1944
  265TIP3    H124990   0.594   2.679  19.786 -0.3315  0.7030  0.1086
  265TIP3    H224991   0.501   2.779  19.721  0.0811  0.5299 -0.7573
  266TIP3   OH224992   0.536   1.639  18.479 -0.0775  0.0617  0.0127
  266TIP3    H124993   0.453   1.608  18.513 -0.1537 -0.8878 -1.0094
  266TIP3    H224994   0.527   1.636  18.384  1.3781 -0.7912 -0.1295
  267TIP3   OH224995   2.580   1.999  19.274  0.0165  0.6319  0.0038
  267TIP3    H124996   2.626   1.971  19.195  0.8579 -0.3905  0.8254
  267TIP3    H224997   2.649   2.035  19.331 -0.1181 -1.1040  1.3328
  268TIP3   OH224998   4.485   6.098  17.621  0.7751 -0.1952  0.1336
  268TIP3    H124999   4.449   6.160  17.685 -1.3881 -0.3942 -0.7894
  268TIP3    H225000   4.492   6.148  17.540  0.7188 -0.6760 -0.1748
  269TIP3   OH225001   6.667   2.214  20.181  0.5815 -0.0096 -0.4319
  269TIP3    H125002   6.662   2.120  20.163  0.8083 -0.3592  1.2064
  269TIP3    H225003   6.656   2.221  20.276  0.1141  1.6625 -0.5769
  270TIP3   OH225004   1.652   5.976  20.086 -0.0903  0.2318  0.5831
  270TIP3    H125005   1.737   5.933  20.074  0.2682  1.0339  0.1353
  270TIP3    H225006   1.663   6.061  20.043 -1.4442 -0.0473 -0.3700
  271TIP3   OH225007   0.247   6.378  18.431  0.0518 -0.2602 -0.2862
  271TIP3    H125008   0.264   6.331  18.513 -0.7761 -1.7316 -0.9247
  271TIP3    H225009   0.173   6.436  18.452  0.6322  0.2835  0.3183
  272TIP3   OH225010   4.453   3.230  16.895  0.3756 -0.7234  0.5284
  272TIP3    H125011   4.538   3.189  16.913 -0.0410 -0.7257  2.7747
  272TIP3    H225012   4.398   3.204  16.969 -2.3009 -2.5202 -1.8768
  273TIP3   OH225013   1.070   3.139  18.105  0.3313 -0.0917 -0.0000
  273TIP3    H125014   1.099   3.167  18.019  0.9271 -1.3283 -0.2286
  273TIP3    H225015   1.110   3.201  18.166 -0.8942  1.3878 -0.6470
  274TIP3   OH225016   0.432   3.846  18.224 -0.4847 -0.5038  0.0529
  274TIP3    H125017   0.483   3.926  18.208 -0.3300 -0.6110  0.0078
  274TIP3    H225018   0.359   3.851  18.163 -0.6090 -0.2779  0.2166
  275TIP3   OH225019   6.284   5.136  17.276 -0.6755  0.5437  0.5577
  275TIP3    H125020   6.345   5.096  17.338 -2.2534 -1.3047  1.0122
  275TIP3    H225021   6.207   5.157  17.328 -0.8008  2.0253 -0.1784
  276TIP3   OH225022   2.425   0.399  19.050  0.0283 -0.8512  0.8739
  276TIP3    H125023   2.452   0.439  19.132  0.3033  1.1727 -0.1314
  276TIP3    H225024   2.421   0.306  19.068  1.4222 -0.5814  2.7930
  277TIP3   OH225025   3.865   2.825  19.978  0.1332  0.1112 -0.1292
  277TIP3    H125026   3.911   2.906  19.998  0.4742 -0.0683 -0.1835
  277TIP3    H225027   3.800   2.850  19.912  0.5384  0.2552 -0.4751
  278TIP3   OH225028   1.147   2.132  19.288 -0.0905  0.2621  0.0518
  278TIP3    H125029   1.222   2.158  19.341 -0.4876  0.3047  0.6042
  278TIP3    H225030   1.084   2.203  19.298 -0.6972 -0.3319  0.5967
  279TIP3   OH225031   4.111   5.467  17.689  0.5151  0.3253  0.6133
  279TIP3    H125032   4.198   5.479  17.652  0.0796  0.2475 -0.4834
  279TIP3    H225033   4.121   5.394  17.751  0.7831 -1.3111 -1.2404
  280TIP3   OH225034   5.173   1.484  18.711 -0.1823 -0.1828  0.3228
  280TIP3    H125035   5.156   1.466  18.803 -0.6629  1.4164  0.5687
  280TIP3    H225036   5.117   1.422  18.663  1.0922 -1.9844  1.0476
  281TIP3   OH225037   5.184   2.447  17.066 -0.1889 -0.2536  0.0163
  281TIP3    H125038   5.269   2.403  17.066  0.7334  1.3706 -1.6621
  281TIP3    H225039   5.148   2.429  16.979 -0.2237  1.4624 -0.3502
  282TIP3   OH225040   3.679   0.044  19.684 -0.1349  0.5545  0.1811
  282TIP3    H125041   3.616   0.086  19.743 -2.5460 -1.6658 -0.5940
  282TIP3    H225042   3.748   0.012  19.742 -2.5435 -1.7930  2.0326
  283TIP3   OH225043   5.300   5.905  17.418  0.3532  0.7521 -0.1261
  283TIP3    H125044   5.344   5.870  17.340 -0.6541  0.6683 -0.6782
  283TIP3    H225045   5.345   5.987  17.437 -0.6150  1.7856 -1.9997
  284TIP3   OH225046   3.061   2.354  11.470  0.0421  0.1448  0.1371
  284TIP3    H125047   3.144   2.311  11.450  1.6292  3.0670 -0.1298
  284TIP3    H225048   3.057   2.428  11.409 -1.8698  1.1051  1.3313
  285TIP3   OH225049   0.313   1.620   9.375 -0.1351 -0.1012 -0.0821
  285TIP3    H125050   0.392   1.592   9.330  1.2658  1.0966  1.4968
  285TIP3    H225051   0.288   1.701   9.331 -1.3316 -1.1684 -1.4611
  286TIP3   OH225052   2.010   6.477  11.182  0.0265 -0.0552 -0.3184
  286TIP3    H125053   1.932   6.451  11.231 -0.3349 -0.0284 -0.8792
  286TIP3    H225054   2.055   6.539  11.240 -0.1234 -0.4168  0.1963
  287TIP3   OH225055   2.389   5.370   9.161 -0.1930  0.2189  0.0167
  287TIP3    H125056   2.401   5.406   9.073 -0.7973  0.0296 -0.1488
  287TIP3    H225057   2.418   5.440   9.220  1.6370 -0.1976 -0.3489
  288TIP3   OH225058   3.145   3.824  10.767 -0.6369  0.0876  0.1589
  288TIP3    H125059   3.161   3.918  10.759 -0.4483 -0.0787 -2.1818
  288TIP3    H225060   3.050   3.817  10.780 -0.7516  0.5992 -0.3318
  289TIP3   OH225061   3.209   4.529   8.213 -0.2756  0.1279 -0.0740
  289TIP3    H125062   3.148   4.560   8.280  0.5828 -1.3854  1.4983
  289TIP3    H225063   3.155   4.480   8.151 -1.0464  1.3068 -0.3487
  290TIP3   OH225064   3.322   6.300  10.323 -0.3565 -0.1084  0.3650
  290TIP3    H125065   3.399   6.355  10.313  1.0752 -1.6920  1.9901
  290TIP3    H225066   3.248   6.362  10.324  0.9150  1.5007 -0.5360
  291TIP3   OH225067   4.752   6.520  11.435 -0.0375 -0.3098  0.0937
  291TIP3    H125068   4.800   6.441  11.461  1.0538  0.9494  2.1310
  291TIP3    H225069   4.819   6.581  11.408 -0.6110  0.8587  1.2136
  292TIP3   OH225070   0.579   3.035  11.132  0.2270  0.1981  0.0019
  292TIP3    H125071   0.588   3.013  11.225  2.4396  1.5448  0.1728
  292TIP3    H225072   0.630   2.967  11.087  0.2039  0.2743 -0.1378
  293TIP3   OH225073   4.453   4.600   9.203  0.0535 -0.3556 -0.2606
  293TIP3    H125074   4.411   4.548   9.134  1.6533 -0.6737 -1.0590
  293TIP3    H225075   4.479   4.536   9.269 -2.3358  0.0540  1.1871
  294TIP3   OH225076   1.356   1.127   9.967 -0.1268 -0.2072  0.0878
  294TIP3    H125077   1.413   1.201   9.983  0.1089 -0.5432  0.8254
  294TIP3    H225078   1.362   1.112   9.872  1.7341 -0.8196  0.2610
  295TIP3   OH225079   0.584   5.363   9.606  0.0518 -0.4319 -0.0006
  295TIP3    H125080   0.608   5.291   9.664  1.6649  0.4636  0.4963
  295TIP3    H225081   0.494   5.343   9.578 -0.8788 -0.7736  2.9453
  296TIP3   OH225082   5.702   0.193   9.882 -0.2058 -0.1431 -0.3778
  296TIP3    H125083   5.749   0.276   9.892  0.7259 -0.8481  1.5489
  296TIP3    H225084   5.770   0.126   9.888 -1.0179 -1.0897 -1.2870
  297TIP3   OH225085   5.293   0.129  11.298  0.0114  0.5061  0.5346
  297TIP3    H125086   5.375   0.140  11.346  0.4691 -0.1103 -0.1042
  297TIP3    H225087   5.291   0.037  11.274 -1.6868  0.0966  2.0149
  298TIP3   OH225088   2.320   0.863  10.657 -0.0688 -0.5082 -0.4537
  298TIP3    H125089   2.334   0.893  10.567 -0.8861  0.1589 -0.3777
  298TIP3    H225090   2.242   0.808  10.651  0.3896 -1.1790 -0.2909
  299TIP3   OH225091   4.767   3.049   9.146  0.2324  0.1903  0.7270
  299TIP3    H125092   4.706   3.108   9.101  0.6303 -0.1695 -0.3329
  299TIP3    H225093   4.838   3.106   9.176  0.8042  0.2443 -0.6221
  300TIP3   OH225094   0.315   0.833  10.059 -0.3305  0.2954 -0.3518
  300TIP3    H125095   0.367   0.803   9.984  1.0023 -0.1253  0.6840
  300TIP3    H225096   0.304   0.927  10.044  1.3528  0.5347 -0.2802
  301TIP3   OH225097   2.001   2.790   8.856 -0.0082 -0.4526  0.0580
  301TIP3    H125098   2.057   2.838   8.796  0.7538 -0.7991  0.4735
  301TIP3    H225099   2.061   2.734   8.905 -0.6408 -0.3511  0.9764
  302TIP3   OH225100   4.280   3.388  11.137 -0.1851  0.0812  0.6534
  302TIP3    H125101   4.336   3.464  11.122 -1.2454  0.8242  0.3448
  302TIP3    H225102   4.256   3.358  11.049  0.4924 -0.8401  0.7618
  303TIP3   OH225103   4.789   6.117   9.098  0.4068  0.5140 -0.4265
  303TIP3    H125104   4.764   6.128   9.006 -0.6058 -0.3831 -0.2842
  303TIP3    H225105   4.802   6.022   9.108  1.1509  0.6777  0.1995
  304TIP3   OH225106   1.476   1.777  10.405  0.2204 -0.2413  0.2152
  304TIP3    H125107   1.401   1.815  10.450 -0.9601 -0.1243 -1.7401
  304TIP3    H225108   1.439   1.706  10.352  1.6879 -0.9642  0.0943
  305TIP3   OH225109   3.862   2.038  11.480 -0.0258 -0.4298  0.1864
  305TIP3    H125110   3.935   2.099  11.475  0.3394 -0.8805 -0.0184
  305TIP3    H225111   3.892   1.969  11.539 -0.4409 -0.4067  0.4275
  306TIP3   OH225112   3.521   6.229  10.526 -0.4232  0.3924 -0.4004
  306TIP3    H125113   3.598   6.222  10.469 -0.6224 -1.3169 -0.5069
  306TIP3    H225114   3.452   6.261  10.468  0.1001  1.6429 -0.3758
  307TIP3   OH225115   5.367   2.534   9.141  0.2241 -0.4443  0.2117
  307TIP3    H125116   5.451   2.574   9.118 -0.0881 -0.8945 -1.8672
  307TIP3    H225117   5.304   2.574   9.081 -0.5577 -2.0711 -0.1047
  308TIP3   OH225118   3.110   1.704   9.885 -0.5104 -0.4633  0.0046
  308TIP3    H125119   3.059   1.785   9.892 -1.2891 -1.0357  1.3309
  308TIP3    H225120   3.063   1.652   9.819  0.0333  0.1782 -0.9044
  309TIP3   OH225121   1.925   1.051   8.500  0.5406 -0.5677 -0.4231
  309TIP3    H125122   1.840   1.058   8.545 -0.5199 -2.1322 -2.0540
  309TIP3    H225123   1.943   1.140   8.471 -0.9716 -0.3365 -0.7554
  310TIP3   OH225124   0.536   4.910   8.330  0.1808 -0.4292  0.0800
  310TIP3    H125125   0.626   4.917   8.363  0.4038  0.2793 -0.6349
  310TIP3    H225126   0.507   4.823   8.356  0.3450  0.0794  2.1194
  311TIP3   OH225127   4.646   3.991   9.156  0.2995  0.2531 -0.5136
  311TIP3    H125128   4.562   4.027   9.184  0.4219  0.3468 -0.2626
  311TIP3    H225129   4.654   4.018   9.064  0.0164  0.1686 -0.5642
  312TIP3   OH225130   0.965   6.290  11.403  0.0286 -0.0227 -0.3839
  312TIP3    H125131   1.030   6.277  11.335 -0.3491 -0.1141 -0.7298
  312TIP3    H225132   0.976   6.214  11.461  1.6692  1.0157  0.7643
  313TIP3   OH225133   4.645   6.151  10.583 -0.3808  0.2313  0.1670
  313TIP3    H125134   4.631   6.224  10.644  0.1380  2.0100 -1.7391
  313TIP3    H225135   4.595   6.079  10.621  2.4179  0.1576  4.4087
  314TIP3   OH225136   0.644   6.429  11.625  0.0840  0.9691  0.2419
  314TIP3    H125137   0.556   6.391  11.633 -0.3996 -0.2723 -6.0926
  314TIP3    H225138   0.703   6.356  11.644 -0.5525 -0.1085 -1.7187
  315TIP3   OH225139   3.935   1.404   9.270  0.5279 -0.4526  0.2938
  315TIP3    H125140   3.908   1.458   9.344 -0.8372 -0.9142  0.1734
  315TIP3    H225141   3.935   1.314   9.305  0.4052 -0.6155 -0.1127
  316TIP3   OH225142   0.933   0.345  11.256  0.4932 -0.4209  0.1779
  316TIP3    H125143   0.977   0.269  11.217  0.9225 -0.4079  0.6339
  316TIP3    H225144   0.954   0.340  11.349 -0.0036 -0.0921  0.3106
  317TIP3   OH225145   0.733   3.302   8.753 -0.2610  0.2232 -0.2582
  317TIP3    H125146   0.651   3.277   8.796  0.4141  0.2973  1.1414
  317TIP3    H225147   0.789   3.226   8.765 -0.0532  0.2554 -1.0222
  318TIP3   OH225148   1.760   1.576  10.216  0.5532  0.2873  0.0009
  318TIP3    H125149   1.716   1.496  10.188 -0.2827 -0.2983  2.6868
  318TIP3    H225150   1.853   1.553  10.218  0.4339 -0.2406 -0.2824
  319TIP3   OH225151   0.933   2.203  10.703  0.1496  0.1009  0.2425
  319TIP3    H125152   0.872   2.170  10.768  0.4536  0.4281  0.6960
  319TIP3    H225153   1.019   2.171  10.730  0.1109 -0.9447 -0.7763
  320TIP3   OH225154   6.528   5.305  11.109  0.1600 -0.3184 -0.4669
  320TIP3    H125155   6.612   5.295  11.153 -0.1435 -1.9406 -0.1962
  320TIP3    H225156   6.522   5.229  11.050  0.3153  1.4785 -2.9931
  321TIP3   OH225157   6.138   5.162   9.498 -0.4811 -0.1736 -0.3913
  321TIP3    H125158   6.170   5.191   9.412  0.1821  1.4241  0.3505
  321TIP3    H225159   6.166   5.230   9.558 -0.3382 -1.6028  1.2317
  322TIP3   OH225160   5.023   0.335  10.262 -0.3999  0.2953  0.2935
  322TIP3    H125161   5.007   0.429  10.268 -0.3780  0.2941  0.3809
  322TIP3    H225162   5.019   0.315  10.169  0.3581  0.5077  0.2122
  323TIP3   OH225163   2.827   1.121  19.289 -0.6948 -0.2360  0.2191
  323TIP3    H125164   2.853   1.065  19.362  1.2237  0.6539  0.2833
  323TIP3    H225165   2.760   1.071  19.243  0.4596 -2.3017  0.6650
  324TIP3   OH225166   3.913   6.178  18.104  0.4774 -0.2080 -0.0419
  324TIP3    H125167   3.900   6.197  18.197  1.5672 -1.9534  0.5333
  324TIP3    H225168   3.854   6.238  18.058  0.1000  0.8708  1.7522
  325TIP3   OH225169   5.211   0.435  19.088 -0.8809 -0.0934  0.2922
  325TIP3    H125170   5.173   0.499  19.150 -0.3248  1.0629 -0.5247
  325TIP3    H225171   5.234   0.488  19.011 -0.5605 -1.3280 -0.4768
  326TIP3   OH225172   6.109   4.951  20.089 -0.1073  0.1228 -0.4763
  326TIP3    H125173   6.170   4.904  20.032 -1.1179 -0.7911 -0.8384
  326TIP3    H225174   6.073   5.021  20.034 -1.7198 -1.2749 -1.2972
  327TIP3   OH225175   5.057   6.350  20.239 -0.0258  0.3819 -0.7645
  327TIP3    H125176   5.122   6.285  20.213 -1.5351 -1.6740  0.2869
  327TIP3    H225177   4.993   6.350  20.168  0.4323  1.4769 -1.2091
  328TIP3   OH225178   5.173   4.080  17.641 -0.0550 -0.0840  0.7542
  328TIP3    H125179   5.081   4.092  17.664  0.2411 -0.7804  2.4234
  328TIP3    H225180   5.194   4.157  17.588 -2.6370 -1.8168 -3.3534
  329TIP3   OH225181   3.406   1.299  18.445 -0.5138  0.2459 -0.0691
  329TIP3    H125182   3.417   1.358  18.371  0.1413  1.3262  0.8576
  329TIP3    H225183   3.352   1.227  18.411 -0.7360  1.0166 -1.4068
  330TIP3   OH225184   3.582   1.798  18.487  0.5415 -0.1275 -0.0960
  330TIP3    H125185   3.573   1.831  18.576  0.1309  0.6979 -0.4289
  330TIP3    H225186   3.661   1.745  18.488  1.1008  0.6955  0.5195
  331TIP3   OH225187   2.087   6.538  16.615  0.2156 -0.0351 -0.1377
  331TIP3    H125188   2.047   6.466  16.566 -0.1929  0.5087 -0.6243
  331TIP3    H225189   2.098   6.607  16.550  0.2365  0.4780  0.4067
  332TIP3   OH225190   2.434   0.230  19.349 -0.5477 -0.2939  0.2430
  332TIP3    H125191   2.341   0.214  19.368 -1.3667  0.2385 -2.8291
  332TIP3    H225192   2.446   0.323  19.366 -0.6940 -0.2763  0.2568
  333TIP3   OH225193   5.104   0.934  18.337 -0.4532 -0.3028 -0.0196
  333TIP3    H125194   5.042   0.861  18.341  0.6230 -1.2949 -0.9623
  333TIP3    H225195   5.187   0.894  18.314  0.6534  0.9572  1.5661
  334TIP3   OH225196   5.000   4.539  20.402 -0.1757  0.3205  0.2781
  334TIP3    H125197   4.964   4.537  20.491  1.4920  1.9533  1.0557
  334TIP3    H225198   5.060   4.613  20.402  0.5407 -0.1776 -1.9786
  335TIP3   OH225199   3.130   0.027  19.198  0.2859 -0.5733  0.3505
  335TIP3    H125200   3.139  -0.064  19.226 -0.4027 -0.4884  0.8714
  335TIP3    H225201   3.087   0.071  19.272 -0.8883 -0.1859 -0.5250
  336TIP3   OH225202   0.500   0.075  19.208 -0.2398 -0.2994 -0.3874
  336TIP3    H125203   0.525  -0.015  19.228  2.6170  0.3748 -0.4997
  336TIP3    H225204   0.506   0.121  19.292  0.9627  0.3080 -0.7879
  337TIP3   OH225205   0.419   2.256  18.145 -0.0034  0.0582  0.5831
  337TIP3    H125206   0.493   2.301  18.105 -1.0954  0.2815 -1.3193
  337TIP3    H225207   0.412   2.173  18.097 -0.7238 -0.1446  1.0211
  338TIP3   OH225208   0.150   2.103  17.497 -0.1864  0.0776  0.2149
  338TIP3    H125209   0.207   2.132  17.568  1.3947  0.5271 -1.1779
  338TIP3    H225210   0.062   2.127  17.526  0.4441  0.5973  1.8299
  339TIP3   OH225211   4.025   3.838  19.433  0.3966  0.3772  0.0655
  339TIP3    H125212   4.109   3.875  19.459  0.5962 -0.0290  0.0206
  339TIP3    H225213   4.039   3.806  19.344 -0.1690  1.4104 -0.4132
  340TIP3   OH225214   1.702   5.394  19.191 -0.2052  0.1384  0.3490
  340TIP3    H125215   1.692   5.386  19.096  2.0943 -1.6050  0.1724
  340TIP3    H225216   1.779   5.450  19.203  0.1725 -0.5373  1.1599
  341TIP3   OH225217   6.605   2.495  17.642  0.2671 -0.0050  0.0945
  341TIP3    H125218   6.587   2.557  17.571 -0.5223 -0.1935  0.1162
  341TIP3    H225219   6.609   2.410  17.599  0.1493 -0.0776  0.2256
  342TIP3   OH225220   2.602   3.413  20.060  0.6268  0.1369 -0.1160
  342TIP3    H125221   2.587   3.504  20.037 -2.5129 -0.7778 -2.2190
  342TIP3    H225222   2.649   3.377  19.985 -0.3856 -0.5156 -0.4504
  343TIP3   OH225223   4.205   4.430  18.368 -0.4261  0.2148  0.8328
  343TIP3    H125224   4.157   4.371  18.310  0.0545  0.1189  0.5288
  343TIP3    H225225   4.277   4.377  18.402  0.4212  0.8022  0.0195
  344TIP3   OH225226   5.309   3.356  17.189 -0.0713  0.2285 -0.4634
  344TIP3    H125227   5.331   3.286  17.250  0.8295  0.5140 -0.4452
  344TIP3    H225228   5.331   3.320  17.103  0.4660  0.5061 -0.4467
  345TIP3   OH225229   4.722   1.286  18.696 -0.3519  0.1644  0.1223
  345TIP3    H125230   4.645   1.322  18.739 -0.6323 -0.5322  0.2145
  345TIP3    H225231   4.688   1.218  18.637 -0.0506  1.5325 -1.7110
  346TIP3   OH225232   2.694   0.887  18.091  0.7786 -0.0396  0.1529
  346TIP3    H125233   2.774   0.924  18.127  1.1033 -0.2122 -0.3966
  346TIP3    H225234   2.626   0.911  18.155  1.7715 -2.7303  2.4083
  347TIP3   OH225235   4.489   3.037  18.693  0.1493  0.2308  0.1751
  347TIP3    H125236   4.572   2.988  18.693  0.0794  0.1018 -0.5417
  347TIP3    H225237   4.422   2.969  18.702  0.0962  0.2879  0.2060
  348TIP3   OH225238   0.873   5.796  19.520 -0.0366 -0.6764 -0.2950
  348TIP3    H125239   0.779   5.794  19.503 -0.0588  0.6204 -0.3892
  348TIP3    H225240   0.881   5.821  19.612  0.2043 -2.3244  0.1620
  349TIP3   OH225241   5.800   2.720  19.315  0.2128  0.5774  0.0899
  349TIP3    H125242   5.894   2.738  19.323  0.3486 -0.4163  0.8702
  349TIP3    H225243   5.792   2.664  19.238  0.2843  0.4996  0.1389
  350TIP3   OH225244   5.737   4.248  17.823  0.1188 -0.3958 -0.9622
  350TIP3    H125245   5.719   4.157  17.847  0.7962 -0.1017  0.8327
  350TIP3    H225246   5.657   4.295  17.844  0.1882 -0.3848 -0.7203
  351TIP3   OH225247   0.388   0.137  17.383  0.3951  0.1004 -0.1436
  351TIP3    H125248   0.339   0.191  17.321 -2.6702  0.6022  2.4515
  351TIP3    H225249   0.387   0.049  17.346 -1.4999  0.3552 -0.7754
  352TIP3   OH225250   0.267   4.064  19.617  0.4866  0.1174 -0.4530
  352TIP3    H125251   0.219   3.985  19.640  0.8231  0.0496  0.0372
  352TIP3    H225252   0.247   4.126  19.687  0.1578  0.4982 -0.8758
  353TIP3   OH225253   2.706   0.012  18.014  0.2680  0.0481 -0.1388
  353TIP3    H125254   2.740   0.100  17.996 -0.4550  0.3407 -0.1220
  353TIP3    H225255   2.654   0.023  18.094  0.7249 -0.5425  0.2525
  354TIP3   OH225256   6.346   4.864  17.773 -0.0058  0.1655 -0.0164
  354TIP3    H125257   6.314   4.945  17.734 -0.8323 -0.4186 -0.6099
  354TIP3    H225258   6.421   4.839  17.718  0.1647  0.4605  0.0850
  355TIP3   OH225259   5.885   5.713  19.819 -0.0856 -0.5509  0.0693
  355TIP3    H125260   5.944   5.674  19.884 -0.1688  0.3030  0.6705
  355TIP3    H225261   5.802   5.667  19.832  0.0889 -0.8681  0.0835
  356TIP3   OH225262   3.709   6.607  17.192 -0.4657  0.4069 -0.6686
  356TIP3    H125263   3.689   6.696  17.163 -0.3877 -0.0088 -2.0712
  356TIP3    H225264   3.687   6.606  17.285  1.5219  2.5061 -0.0960
  357TIP3   OH225265   0.600   0.684  17.965  0.5098  0.4664  0.1220
  357TIP3    H125266   0.582   0.707  17.874  1.1654  0.0110 -0.1282
  357TIP3    H225267   0.546   0.607  17.982 -1.9396  2.2488  1.0593
  358TIP3   OH225268   5.616   3.302  17.103 -0.3465  0.0542  0.1278
  358TIP3    H125269   5.597   3.379  17.050 -1.8148 -0.3599 -0.0013
  358TIP3    H225270   5.583   3.324  17.190 -0.9305 -0.4665  0.0496
  359TIP3   OH225271   0.217   3.846  17.018 -0.5364 -0.2077  0.3913
  359TIP3    H125272   0.290   3.835  16.957 -0.8448 -0.8236  0.1227
  359TIP3    H225273   0.191   3.938  17.008  0.1414 -0.0023  0.4322
  360TIP3   OH225274   3.461   3.714  17.463  0.3561  0.7314 -0.2617
  360TIP3    H125275   3.480   3.780  17.396 -3.0433  0.6456 -1.4804
  360TIP3    H225276   3.395   3.754  17.519 -0.8466 -1.0954 -0.2686
  361TIP3   OH225277   0.303   2.535  16.619 -0.0649  0.1130 -0.0725
  361TIP3    H125278   0.289   2.492  16.535 -1.0099 -0.7094  0.4767
  361TIP3    H225279   0.297   2.464  16.684 -2.9177  1.1481  0.9758
  362TIP3   OH225280   6.000   1.125  17.522  0.2232 -0.4929  0.1655
  362TIP3    H125281   6.037   1.192  17.580 -1.2218  0.0099  0.5674
  362TIP3    H225282   6.021   1.154  17.434  0.2911  0.0729  0.3667
  363TIP3   OH225283   6.092   3.401  17.642  0.2620  0.0733  0.4482
  363TIP3    H125284   6.051   3.397  17.556 -0.1731 -1.6017  0.6985
  363TIP3    H225285   6.030   3.356  17.700  0.7816  0.7319  1.5449
  364TIP3   OH225286   3.001   3.417  18.326 -0.6178  1.1192  0.1583
  364TIP3    H125287   2.998   3.501  18.372 -0.4712  1.1921  0.0360
  364TIP3    H225288   2.962   3.354  18.387  1.5825  0.7909  1.3320
  365TIP3   OH225289   0.879   4.136  17.947 -0.1549 -0.4567 -0.1067
  365TIP3    H125290   0.876   4.200  17.875 -0.4462 -1.6066 -1.1618
  365TIP3    H225291   0.871   4.189  18.026 -1.3045  0.7463 -0.9673
  366TIP3   OH225292   5.712   0.232  18.155 -0.1185  0.4792 -0.0525
  366TIP3    H125293   5.773   0.158  18.155  0.3403  0.8493 -0.7753
  366TIP3    H225294   5.634   0.199  18.200 -0.6547 -1.0436 -2.0053
  367TIP3   OH225295   0.034   4.383  16.777  0.3748 -0.2302 -0.3785
  367TIP3    H125296  -0.039   4.346  16.728  2.4042 -3.6742 -1.1279
  367TIP3    H225297   0.015   4.359  16.868  0.4634 -0.9821 -0.5487
  368TIP3   OH225298   5.491   5.896  19.295  0.2989  0.2238 -0.7061
  368TIP3    H125299   5.525   5.919  19.209 -0.8090  1.3287 -0.8707
  368TIP3    H225300   5.399   5.877  19.281  0.3397 -0.6442  0.0770
  369TIP3   OH225301   1.577   0.314  16.410 -0.2181 -0.5763  0.2540
  369TIP3    H125302   1.616   0.253  16.472 -1.0141 -0.2618  1.0852
  369TIP3    H225303   1.495   0.341  16.451 -0.9118 -0.5910 -1.0751
  370TIP3   OH225304   2.488   3.227  20.229 -0.2094  0.4503  0.3565
  370TIP3    H125305   2.536   3.296  20.183  0.2149 -0.4160 -0.5348
  370TIP3    H225306   2.514   3.147  20.185 -1.5066 -0.1809  0.7005
  371TIP3   OH225307   2.891   1.309  19.679  0.1426 -0.0512 -0.1295
  371TIP3    H125308   2.962   1.257  19.642 -0.5348 -0.2197 -1.2533
  371TIP3    H225309   2.824   1.311  19.610 -0.3395  1.3178  0.3426
  372TIP3   OH225310   1.985   5.151  16.643 -0.3806  0.1194 -0.1750
  372TIP3    H125311   1.915   5.165  16.578  0.0352  3.1085 -0.1298
  372TIP3    H225312   1.943   5.101  16.713 -1.5105 -1.0466 -1.6199
  373TIP3   OH225313   2.935   3.166  17.362  0.6286 -0.0808  0.1450
  373TIP3    H125314   2.917   3.074  17.379 -0.2528 -0.1393 -1.0178
  373TIP3    H225315   2.988   3.166  17.282  2.8511  0.3106  1.5041
  374TIP3   OH225316   6.271   1.138  18.547  0.1615  0.4565 -0.2547
  374TIP3    H125317   6.205   1.109  18.485  1.7699 -0.5632 -1.5660
  374TIP3    H225318   6.277   1.233  18.534  1.5214  0.0921 -2.8147
  375TIP3   OH225319   1.593   4.240  17.043  0.0684  0.5223  0.0536
  375TIP3    H125320   1.555   4.284  17.119  1.0817 -3.1334  2.9865
  375TIP3    H225321   1.521   4.188  17.008  0.0022  0.9897 -0.5132
  376TIP3   OH225322   0.865   4.874  18.831 -0.4647 -0.0357 -0.0959
  376TIP3    H125323   0.794   4.818  18.800 -0.0374 -1.0543  0.7129
  376TIP3    H225324   0.935   4.813  18.856  0.8490  0.9529 -1.1886
  377TIP3   OH225325   5.731   1.446  19.724  0.3940 -0.2838  0.0440
  377TIP3    H125326   5.763   1.388  19.793 -0.3653  0.4749  1.0772
  377TIP3    H225327   5.794   1.518  19.721  1.4621 -1.2368 -1.3962
  378TIP3   OH225328   6.451   0.423  19.799  0.9260 -0.0561 -0.0451
  378TIP3    H125329   6.499   0.499  19.831 -0.7868  1.1849 -0.3030
  378TIP3    H225330   6.486   0.350  19.851  2.3268  0.9475  0.4891
  379TIP3   OH225331   1.088   1.757  18.942 -0.2772  0.4572 -0.4437
  379TIP3    H125332   0.999   1.750  18.976 -0.2418 -1.7605 -0.6538
  379TIP3    H225333   1.143   1.770  19.019 -0.4780 -1.7793  0.1682
  380TIP3   OH225334   3.764   4.943  17.200 -0.3220  0.0503 -0.0116
  380TIP3    H125335   3.819   4.866  17.213 -1.1451 -0.5804 -0.1553
  380TIP3    H225336   3.682   4.908  17.165 -1.0738  0.8856  0.8536
  381TIP3   OH225337   2.354   4.856  19.802  0.1289 -0.0905  0.2020
  381TIP3    H125338   2.337   4.821  19.715  0.1708  0.7566 -0.1606
  381TIP3    H225339   2.346   4.951  19.791  1.1449  0.0868  0.8909
  382TIP3   OH225340   5.087   6.355  19.780  0.1949 -0.0345 -0.5046
  382TIP3    H125341   5.155   6.288  19.788  0.6740  0.6409  1.7063
  382TIP3    H225342   5.014   6.310  19.738  1.3034 -1.2904 -1.1724
  383TIP3   OH225343   6.011   4.744  19.858  0.2313  0.1113  0.1016
  383TIP3    H125344   6.076   4.763  19.791  0.0417 -0.3387 -0.2207
  383TIP3    H225345   5.928   4.772  19.820  0.2000  0.4376  0.4055
  384TIP3   OH225346   2.164   4.961  18.812 -0.2283 -0.4381 -0.2579
  384TIP3    H125347   2.075   4.948  18.779 -0.3672 -2.1076  0.6659
  384TIP3    H225348   2.156   4.957  18.907  0.8955 -1.1723 -0.1688
  385TIP3   OH225349   1.001   0.445  17.418 -0.3421 -0.1113  0.7376
  385TIP3    H125350   1.018   0.533  17.386 -1.3756  0.0066  0.4873
  385TIP3    H225351   0.906   0.440  17.426 -0.3882 -1.5878 -0.3677
  386TIP3   OH225352   2.587   4.211  17.844  0.4619  0.0811 -0.2599
  386TIP3    H125353   2.504   4.253  17.823  0.5038  0.3301  0.0701
  386TIP3    H225354   2.563   4.127  17.884  0.3205  1.0330  1.7545
  387TIP3   OH225355   6.153   5.791  16.675  0.4948 -0.7374  0.2781
  387TIP3    H125356   6.241   5.787  16.636  0.1084 -0.0388 -0.7022
  387TIP3    H225357   6.113   5.707  16.650  1.4375 -1.8072  2.1732
  388TIP3   OH225358   6.095   2.235  18.419  0.8128 -0.1721  0.1809
  388TIP3    H125359   6.115   2.306  18.479  1.8279 -0.6239  0.4006
  388TIP3    H225360   6.172   2.178  18.422 -0.5660 -2.1225  1.2310
  389TIP3   OH225361   4.934   5.726  19.503 -0.2178  0.5536  0.2410
  389TIP3    H125362   4.874   5.749  19.574 -1.4218 -1.1655 -0.1675
  389TIP3    H225363   4.946   5.631  19.511  0.2963  0.4530 -1.3394
  390TIP3   OH225364   4.539   2.946  19.288  0.1128 -0.3922 -0.0918
  390TIP3    H125365   4.488   3.026  19.299  0.7423  0.1107 -0.7505
  390TIP3    H225366   4.481   2.888  19.239 -0.1340 -0.1403 -0.1044
  391TIP3   OH225367   6.406   1.961  16.479  0.1960  0.3973  0.3512
  391TIP3    H125368   6.333   1.900  16.470 -0.3789  1.0689  0.3600
  391TIP3    H225369   6.476   1.924  16.425 -0.4859  0.2611 -0.4508
  392TIP3   OH225370   1.755   5.399  18.711 -0.4964  0.1211  1.0252
  392TIP3    H125371   1.841   5.370  18.680 -0.7940 -0.1718  0.4623
  392TIP3    H225372   1.743   5.486  18.671 -1.7217 -1.0517 -1.3661
  393TIP3   OH225373   5.396   3.505  18.886 -0.1440  0.3399  0.4441
  393TIP3    H125374   5.411   3.569  18.956 -0.1758 -0.7039  1.4416
  393TIP3    H225375   5.301   3.503  18.876 -0.0738  2.4889 -1.6088
  394TIP3   OH225376   5.229   5.646  17.139 -0.2150  0.1278 -0.0067
  394TIP3    H125377   5.288   5.638  17.064  1.6873  2.0844  1.1733
  394TIP3    H225378   5.207   5.739  17.143 -1.3054 -0.1500  1.1363
  395TIP3   OH225379   3.679   4.680  18.359 -0.6325  0.0426  0.2547
  395TIP3    H125380   3.740   4.749  18.385  0.9597 -0.9955 -0.5186
  395TIP3    H225381   3.675   4.621  18.435 -0.5330  0.0358  0.2558
  396TIP3   OH225382   1.701   2.094  17.644 -0.1977  0.2848  0.2229
  396TIP3    H125383   1.645   2.051  17.579  0.4932 -0.2513 -0.0260
  396TIP3    H225384   1.739   2.168  17.598  1.6293 -1.0571 -0.5452
  397TIP3   OH225385   1.371   5.011  18.001  0.4720 -0.3406  0.0420
  397TIP3    H125386   1.448   5.024  18.058  0.2933  1.1740 -0.0145
  397TIP3    H225387   1.308   5.077  18.031  0.3610  0.5022 -1.8921
  398TIP3   OH225388   5.506   5.878  17.998  0.4948  0.2451 -0.0404
  398TIP3    H125389   5.519   5.972  18.012 -0.4152  0.3937 -0.1239
  398TIP3    H225390   5.411   5.867  17.999  0.5680 -0.5527 -0.8110
  399TIP3   OH225391   5.984   2.924  18.413  0.0106 -0.2325  0.0384
  399TIP3    H125392   6.078   2.908  18.397  0.2147  1.5545 -0.8017
  399TIP3    H225393   5.945   2.837  18.410  1.5532 -0.9611 -0.3098
  400TIP3   OH225394   4.341   5.276  16.508 -0.1064  0.3177 -0.2001
  400TIP3    H125395   4.257   5.318  16.527 -0.2247 -0.1178  0.2844
  400TIP3    H225396   4.365   5.233  16.591  0.2468 -0.1473 -0.5402
  401TIP3   OH225397   1.706   1.465  16.416  0.4505  0.3068  0.6817
  401TIP3    H125398   1.632   1.526  16.414 -0.7033 -0.9328  2.3284
  401TIP3    H225399   1.674   1.386  16.373  1.0751 -0.0027  0.7699
  402TIP3   OH225400   2.366   3.780  18.817  0.1849 -0.2964  0.0183
  402TIP3    H125401   2.370   3.874  18.829 -0.1461 -0.4211  1.2720
  402TIP3    H225402   2.371   3.744  18.906 -0.7858 -1.4069 -0.3401
  403TIP3   OH225403   1.111   0.498  18.544  0.4821 -0.3999 -0.6073
  403TIP3    H125404   1.142   0.589  18.543 -0.7347  0.0354 -1.7652
  403TIP3    H225405   1.186   0.448  18.576  1.5183  0.8864 -0.9040
  404TIP3   OH225406   5.858   0.823  19.527  0.0759  0.2519 -0.1668
  404TIP3    H125407   5.766   0.805  19.545  0.0271  1.2583  0.6415
  404TIP3    H225408   5.889   0.745  19.480 -1.5602  0.5151 -1.7810
  405TIP3   OH225409   0.100   5.719  20.138 -0.2403 -0.6348 -0.4233
  405TIP3    H125410   0.143   5.700  20.054  1.1824  0.5580 -0.0066
  405TIP3    H225411   0.171   5.713  20.202 -1.1690 -0.7971  0.6095
  406TIP3   OH225412   5.623   5.755  18.479 -0.2009 -0.4906  0.3566
  406TIP3    H125413   5.680   5.794  18.412 -0.6767 -0.4866 -0.0489
  406TIP3    H225414   5.538   5.749  18.437 -0.8108  0.6425  1.3575
  407TIP3   OH225415   2.405   0.886  17.552  0.3978  0.1228 -0.4725
  407TIP3    H125416   2.383   0.807  17.600 -1.2627  0.6468 -0.3022
  407TIP3    H225417   2.498   0.878  17.533  0.4371 -1.4636  0.2704
  408TIP3   OH225418   6.193   3.710  18.214 -0.5863 -0.4685  0.4616
  408TIP3    H125419   6.228   3.715  18.125  0.3668 -0.0655  0.8479
  408TIP3    H225420   6.130   3.638  18.211 -1.5630  0.3905 -0.8681
  409TIP3   OH225421   1.820   3.938  18.928  0.0661  0.2579  0.7988
  409TIP3    H125422   1.881   3.925  19.000  1.4556 -1.7123 -0.6113
  409TIP3    H225423   1.863   3.897  18.852 -4.1861 -4.2854  0.3168
  410TIP3   OH225424   5.422   0.838  18.559  0.0585  0.0803  0.2026
  410TIP3    H125425   5.449   0.897  18.489  0.3127 -2.1874 -1.7178
  410TIP3    H225426   5.502   0.825  18.611  0.6668 -0.4467 -0.8214
  411TIP3   OH225427   0.233   6.665  19.070 -0.7902 -0.0636 -0.4959
  411TIP3    H125428   0.302   6.696  19.128  0.0354 -2.3868 -0.1183
  411TIP3    H225429   0.254   6.703  18.985  1.3083 -1.1332 -0.5124
  412TIP3   OH225430   4.448   6.334  17.110 -0.2427 -0.0292 -0.2216
  412TIP3    H125431   4.492   6.294  17.185 -1.1379 -0.2347  0.1998
  412TIP3    H225432   4.519   6.349  17.046  0.2430 -1.5006 -0.0660
  413TIP3   OH225433   4.265   3.601  19.658 -0.0154  0.2425  0.8619
  413TIP3    H125434   4.294   3.614  19.748  1.7879  0.2697  0.3282
  413TIP3    H225435   4.170   3.604  19.662 -0.0045 -0.6909  2.9074
  414TIP3   OH225436   2.063   5.321  19.173 -0.1378 -0.6168  0.2291
  414TIP3    H125437   2.001   5.349  19.106 -1.9659 -0.5276  1.8771
  414TIP3    H225438   2.125   5.265  19.127 -1.1916 -0.3687 -1.5632
  415TIP3   OH225439   6.379   3.519  16.694  0.2212  0.3840  0.0908
  415TIP3    H125440   6.342   3.553  16.612 -1.3263  0.5403  0.8175
  415TIP3    H225441   6.357   3.426  16.694 -0.2229  0.4858  0.5545
  416TIP3   OH225442   5.267   3.043  19.347 -0.1248 -0.1392 -0.4501
  416TIP3    H125443   5.192   2.984  19.358 -0.4037  0.2284 -0.3723
  416TIP3    H225444   5.310   3.012  19.268 -0.9800  0.3100 -1.1082
  417TIP3   OH225445   3.916   5.694  18.439 -0.2819  0.0384 -0.1486
  417TIP3    H125446   3.918   5.653  18.526 -0.7974 -0.5966 -0.4318
  417TIP3    H225447   3.967   5.774  18.450  1.4358 -1.0384  0.2222
  418TIP3   OH225448   1.579   4.805  19.464  0.1256 -0.0782  0.6806
  418TIP3    H125449   1.596   4.891  19.502 -0.8264 -0.2200  1.4685
  418TIP3    H225450   1.640   4.799  19.390  0.6609  0.9980  1.0077
  419TIP3   OH225451   0.068   2.636  18.209 -0.3013  0.4686 -0.1992
  419TIP3    H125452  -0.007   2.626  18.150 -0.9607 -1.6571  0.8810
  419TIP3    H225453   0.144   2.613  18.155 -0.5693  1.2892 -0.9382
  420TIP3   OH225454   6.627   2.814  19.992  0.1087  0.1782 -0.2496
  420TIP3    H125455   6.657   2.875  20.059 -0.4100  1.0804 -0.8154
  420TIP3    H225456   6.554   2.767  20.032  1.7746 -1.5792  0.9100
  421TIP3   OH225457   1.515   0.368  17.438 -0.4166 -0.5585 -0.2611
  421TIP3    H125458   1.498   0.394  17.529 -0.5128 -2.3113  0.2569
  421TIP3    H225459   1.428   0.360  17.399 -0.3783  0.0911 -0.5011
  422TIP3   OH225460   3.864   5.775  19.024 -0.2043  0.6345  0.0186
  422TIP3    H125461   3.798   5.722  19.068  0.0891  1.1948  1.1763
  422TIP3    H225462   3.941   5.718  19.019  0.5175  1.3054  2.3969
  423TIP3   OH225463   4.780   0.880  17.984  0.2718 -0.1829  0.1056
  423TIP3    H125464   4.830   0.798  17.987 -0.7585 -0.8304 -0.0216
  423TIP3    H225465   4.750   0.894  18.073 -1.2319 -1.0243 -0.2444
  424TIP3   OH225466   6.040   2.146  18.176 -0.6158 -0.0500  0.1361
  424TIP3    H125467   6.068   2.183  18.260 -0.7381 -0.7847  0.5139
  424TIP3    H225468   5.947   2.168  18.170 -1.0814 -1.6034  1.1056
  425TIP3   OH225469   1.275   3.022  16.998 -0.0501  0.3999  1.0543
  425TIP3    H125470   1.190   3.066  17.003 -0.1705  0.1774  0.9477
  425TIP3    H225471   1.265   2.957  16.930  0.2199  0.3976  1.0131
  426TIP3   OH225472   4.681   5.476  16.877 -0.4407 -0.1117 -0.2585
  426TIP3    H125473   4.687   5.499  16.784 -0.8506 -1.6748 -0.7003
  426TIP3    H225474   4.630   5.548  16.916  0.2743  0.8839 -1.1010
  427TIP3   OH225475   5.157   1.092  18.089 -0.0841 -0.4421  0.4075
  427TIP3    H125476   5.101   1.087  18.011 -0.1316  0.3501  0.3904
  427TIP3    H225477   5.240   1.052  18.060 -0.3034 -0.7093  0.1365
  428TIP3   OH225478   4.422   0.696  19.433 -0.1642  0.7862  0.0418
  428TIP3    H125479   4.332   0.719  19.410 -0.1552 -0.3615 -1.2958
  428TIP3    H225480   4.447   0.629  19.368  1.0698 -0.1395  1.4051
  429TIP3   OH225481   1.393   3.596  19.852 -0.4715  0.1650  0.3749
  429TIP3    H125482   1.361   3.506  19.856  1.2170 -0.4320  1.5153
  429TIP3    H225483   1.350   3.640  19.924  0.2781 -0.3047  1.1260
  430TIP3   OH225484   6.114   0.720  18.324  0.0049  0.3324 -0.6648
  430TIP3    H125485   6.100   0.646  18.383  0.9240  2.6709  2.7981
  430TIP3    H225486   6.036   0.774  18.334  0.6253  1.2801 -0.7811
  431TIP3   OH225487   2.498   1.213  17.913 -0.2181  0.2846 -0.8389
  431TIP3    H125488   2.461   1.298  17.891 -0.6260  0.8207  1.6287
  431TIP3    H225489   2.451   1.186  17.991 -0.4720 -2.4912 -1.8375
  432TIP3   OH225490   2.207   5.250  18.795 -0.0977 -0.3811 -0.2553
  432TIP3    H125491   2.294   5.227  18.827 -0.8367 -0.2740  2.0012
  432TIP3    H225492   2.148   5.189  18.839 -1.2804  0.3395 -0.7880
  433TIP3   OH225493   4.203   1.572  19.502  0.6715  0.2886 -0.1478
  433TIP3    H125494   4.271   1.560  19.435  0.1575 -0.0394 -0.6126
  433TIP3    H225495   4.121   1.553  19.457  0.1823  1.4973  0.1867
  434TIP3   OH225496   5.941   5.546  17.133  0.0202  0.1922  0.4835
  434TIP3    H125497   5.898   5.620  17.175  1.6819  0.9888  0.8471
  434TIP3    H225498   5.927   5.473  17.194  1.1331  0.9834  1.7500
  435TIP3   OH225499   4.673   4.470  18.808  0.7063  0.0928 -0.7495
  435TIP3    H125500   4.632   4.492  18.724  1.0282  2.1587 -0.4242
  435TIP3    H225501   4.604   4.484  18.873  0.6908 -0.7201 -0.5791
  436TIP3   OH225502   6.196   6.110  17.041 -0.3355  1.1292 -0.1945
  436TIP3    H125503   6.224   6.064  16.962 -1.0795  0.7036 -0.2192
  436TIP3    H225504   6.147   6.186  17.009 -1.1659  0.6237 -0.1529
  437TIP3   OH225505   0.542   2.383  19.021  0.2272  0.8269 -0.4519
  437TIP3    H125506   0.494   2.355  19.099 -1.0535  3.6530 -0.1182
  437TIP3    H225507   0.634   2.383  19.047 -0.1465  1.2436  0.9086
  438TIP3   OH225508   2.841   2.999  20.114  0.1863 -0.1309 -0.1765
  438TIP3    H125509   2.837   2.904  20.102  0.7417 -0.3012  0.8342
  438TIP3    H225510   2.934   3.019  20.124 -0.0199  0.2630  1.2989
  439TIP3   OH225511   0.214   2.864  18.597  0.4694  0.0963 -0.6467
  439TIP3    H125512   0.166   2.803  18.653 -1.0958  1.5701 -0.2781
  439TIP3    H225513   0.160   2.870  18.517 -0.2447  2.0477 -0.0869
  440TIP3   OH225514   6.615   0.203  19.562 -0.0903  0.2202 -0.5371
  440TIP3    H125515   6.563   0.270  19.606 -3.0736 -1.3306 -1.4006
  440TIP3    H225516   6.649   0.245  19.484 -2.3598  0.6578 -1.3505
  441TIP3   OH225517   6.402   1.601  17.354  0.6218 -0.6290 -0.3790
  441TIP3    H125518   6.353   1.584  17.435 -2.5025  0.4632 -1.8786
  441TIP3    H225519   6.473   1.659  17.381 -0.3371 -0.2779  1.6102
  442TIP3   OH225520   0.048   4.874  17.751 -0.0500 -0.0328  0.0363
  442TIP3    H125521   0.097   4.895  17.671 -1.7317  1.1659 -0.7632
  442TIP3    H225522   0.048   4.779  17.756  1.1638 -0.0887 -0.6737
  443TIP3   OH225523   3.323   3.429  17.360  0.1811  0.2013 -0.2318
  443TIP3    H125524   3.388   3.489  17.397  1.1267 -0.3321 -0.9974
  443TIP3    H225525   3.338   3.346  17.405 -0.0743  0.1204 -0.2964
  444TIP3   OH225526   1.425   6.619  18.258 -0.5559 -0.4389  0.4597
  444TIP3    H125527   1.473   6.698  18.285  0.4102 -1.0071  0.4349
  444TIP3    H225528   1.335   6.649  18.249 -0.2747  0.5843  0.8240
  445TIP3   OH225529   5.701   5.245  18.080 -0.1580 -0.3364  0.2400
  445TIP3    H125530   5.742   5.216  18.161 -0.2626  0.3403  0.5335
  445TIP3    H225531   5.649   5.169  18.052  1.0715 -1.1123 -0.0054
  446TIP3   OH225532   1.698   4.123  17.656 -0.3443 -0.6926 -0.5712
  446TIP3    H125533   1.726   4.092  17.742 -0.3071 -1.0103 -0.6992
  446TIP3    H225534   1.773   4.106  17.599  0.4839  1.4637 -0.2489
  447TIP3   OH225535   2.207   3.064  19.114 -0.2787  0.3099  0.1870
  447TIP3    H125536   2.169   3.130  19.056 -0.5782  0.2381  0.2989
  447TIP3    H225537   2.272   3.112  19.164  1.5427 -0.0569 -1.6979
  448TIP3   OH225538   6.392   5.416  17.370  0.7009  0.2443 -0.2851
  448TIP3    H125539   6.444   5.366  17.307  0.3219 -1.0498  0.3894
  448TIP3    H225540   6.310   5.368  17.377 -0.1474  1.6136 -0.4527
  449TIP3   OH225541   5.579   2.557  18.852 -0.4046  0.0978  0.0304
  449TIP3    H125542   5.507   2.615  18.876 -0.4124  0.3669 -0.6120
  449TIP3    H225543   5.587   2.496  18.925 -0.9862  0.3509  0.3072
  450TIP3   OH225544   1.254   1.207  19.449 -0.0022 -0.6173 -0.1450
  450TIP3    H125545   1.205   1.254  19.382 -1.1721 -0.3002  0.8886
  450TIP3    H225546   1.331   1.262  19.465  0.5042 -0.9013 -1.4794
  451TIP3   OH225547   5.503   0.595  17.905 -0.5608  0.1560 -0.0095
  451TIP3    H125548   5.514   0.571  17.812 -3.1431 -2.8747  0.2986
  451TIP3    H225549   5.562   0.534  17.951 -0.4591  0.5831  0.4237
  452TIP3   OH225550   1.184   2.501  19.434  0.2963  0.5393  0.0530
  452TIP3    H125551   1.252   2.454  19.385  1.2120  1.0513  0.8090
  452TIP3    H225552   1.224   2.519  19.519 -1.6315 -1.3067  1.4581
  453TIP3   OH225553   3.140   5.594  18.628 -0.1859 -0.3121 -0.1997
  453TIP3    H125554   3.189   5.512  18.630 -0.9645 -0.8765 -2.0199
  453TIP3    H225555   3.052   5.568  18.601 -0.2561  1.2084 -1.5480
  454TIP3   OH225556   3.922   1.253  17.426 -0.5271  0.2600  0.4185
  454TIP3    H125557   3.933   1.242  17.332  2.0410  0.2088  0.6389
  454TIP3    H225558   3.906   1.346  17.438  4.1451  1.3636  0.0934
  455TIP3   OH225559   4.989   3.172  20.019 -0.1696 -0.0685 -0.5110
  455TIP3    H125560   4.950   3.088  20.045 -0.6201  0.4970  0.7077
  455TIP3    H225561   5.076   3.171  20.060 -0.2918  0.1936 -0.2499
  456TIP3   OH225562   3.598   1.957  19.679  0.1565 -0.3024  0.4143
  456TIP3    H125563   3.633   1.974  19.767 -1.0642 -0.7471  1.0061
  456TIP3    H225564   3.632   2.028  19.625  1.4075 -0.3421  1.1008
  457TIP3   OH225565   3.967   1.030  18.087 -0.7087  0.0442  0.0920
  457TIP3    H125566   3.949   0.999  17.998  0.2678  1.4639 -0.6403
  457TIP3    H225567   3.954   0.953  18.143 -2.1088 -0.6891 -1.1633
  458TIP3   OH225568   1.861   5.519  17.120 -0.4941  0.2831 -0.0557
  458TIP3    H125569   1.806   5.596  17.131 -1.1281 -0.2939  1.0105
  458TIP3    H225570   1.800   5.446  17.118  0.1927 -0.3453  0.9116
  459TIP3   OH225571   4.522   6.416  19.593 -0.3169  0.1786  0.8516
  459TIP3    H125572   4.518   6.478  19.665  1.5683  1.4835 -0.1005
  459TIP3    H225573   4.439   6.428  19.546 -1.0088  0.2123  2.0468
  460TIP3   OH225574   0.247   4.437  18.434 -0.2716 -0.5306  0.2833
  460TIP3    H125575   0.188   4.448  18.509 -0.6532 -1.2713  0.0939
  460TIP3    H225576   0.333   4.427  18.474 -0.0562  1.6679  0.5382
  461TIP3   OH225577   4.387   0.850  20.187 -0.0656  0.2588  0.4064
  461TIP3    H125578   4.367   0.792  20.260 -0.4541 -0.7183 -0.4511
  461TIP3    H225579   4.470   0.817  20.152 -1.0336 -0.7915 -1.0289
  462TIP3   OH225580   0.374   3.373  19.637  0.0614 -0.0342  0.9750
  462TIP3    H125581   0.316   3.440  19.600 -0.3806 -0.4826  0.8426
  462TIP3    H225582   0.328   3.291  19.622  0.1319 -0.2817  2.0506
  463TIP3   OH225583   6.303   0.832  18.096 -0.1805 -1.0237  0.3463
  463TIP3    H125584   6.322   0.905  18.155 -1.2302 -0.1981 -0.2905
  463TIP3    H225585   6.325   0.867  18.009 -0.3533 -1.5996  0.0713
  464TIP3   OH225586   0.180   4.040  18.456 -0.1903 -0.6346 -0.3452
  464TIP3    H125587   0.194   3.991  18.537 -0.8407  0.0408  0.1872
  464TIP3    H225588   0.093   4.014  18.427 -1.1695  1.2479  0.7198
  465TIP3   OH225589   4.799   6.183  18.223 -0.0765  0.3407 -0.1000
  465TIP3    H125590   4.806   6.095  18.258 -0.2138  0.3422 -0.0707
  465TIP3    H225591   4.716   6.217  18.257  1.3885  1.6479  2.5152
  466TIP3   OH225592   4.754   3.940  19.034 -0.1251  0.0928 -0.4953
  466TIP3    H125593   4.779   4.032  19.044 -1.5649  0.3536  1.1340
  466TIP3    H225594   4.711   3.918  19.116  0.8511 -2.2820 -0.5339
  467TIP3   OH225595   5.081   0.257  19.653 -0.4255  0.1742  0.1309
  467TIP3    H125596   5.110   0.194  19.719 -1.6545 -0.5514  0.0158
  467TIP3    H225597   5.152   0.321  19.648  0.8828 -1.1829  0.2656
  468TIP3   OH225598   3.784   1.345  19.221  0.2535 -0.0015  0.0301
  468TIP3    H125599   3.786   1.273  19.158  0.6970  1.6903 -2.0301
  468TIP3    H225600   3.701   1.335  19.267 -0.1039 -1.3055 -0.8450
  469TIP3   OH225601   5.550   2.808  19.284 -0.3507  0.4452 -0.0885
  469TIP3    H125602   5.634   2.768  19.305 -0.7468 -0.2674  0.1743
  469TIP3    H225603   5.522   2.850  19.365 -0.5268  0.1796 -0.0139
  470TIP3   OH225604   0.402   5.308  16.781  0.3112  0.1526 -0.1519
  470TIP3    H125605   0.350   5.297  16.702  1.9983  1.6166 -1.5596
  470TIP3    H225606   0.422   5.401  16.785  1.5830 -0.1212  1.1257
  471TIP3   OH225607   5.124   3.544  18.901  0.2992  0.7187 -0.0190
  471TIP3    H125608   5.124   3.529  18.995  1.3660 -1.1363 -0.2687
  471TIP3    H225609   5.049   3.601  18.886 -0.5079  0.2128  1.8200
  472TIP3   OH225610   1.164   5.512  18.241  0.1870 -0.6213 -0.3413
  472TIP3    H125611   1.240   5.537  18.189  0.8462 -0.5942  0.5957
  472TIP3    H225612   1.184   5.424  18.272 -0.0203 -0.4954  0.1598
  473TIP3   OH225613   5.169   1.728  19.018 -0.2646 -0.1294 -0.4816
  473TIP3    H125614   5.191   1.763  18.932 -0.9541  0.1698 -0.5379
  473TIP3    H225615   5.183   1.633  19.009  0.5194 -0.0101 -0.6493
  474TIP3   OH225616   5.595   6.470  17.268 -0.1681  0.0214 -0.2959
  474TIP3    H125617   5.500   6.462  17.279 -0.0437 -0.7283  0.3077
  474TIP3    H225618   5.632   6.416  17.338  0.7028 -1.2012 -1.6470
  475TIP3   OH225619   4.140   5.505  20.018 -0.3477 -0.3511 -0.1723
  475TIP3    H125620   4.233   5.486  20.030 -0.5880 -0.3754  2.0269
  475TIP3    H225621   4.108   5.435  19.962  0.3057 -2.2960  1.7434
  476TIP3   OH225622   6.126   2.292  20.281 -0.6308  0.2958  0.4070
  476TIP3    H125623   6.202   2.253  20.324 -0.7246 -1.3069 -0.7964
  476TIP3    H225624   6.144   2.386  20.282  1.9044 -0.0937 -0.7243
  477TIP3   OH225625   4.061   4.078  17.953  0.4819 -0.1375 -0.1140
  477TIP3    H125626   4.116   4.035  18.019  0.4759  0.8392  0.5355
  477TIP3    H225627   4.123   4.130  17.901  0.2682  0.3710  0.1415
  478TIP3   OH225628   6.022   0.936  19.737  0.3437 -0.2555 -0.5611
  478TIP3    H125629   5.934   0.971  19.748  1.0312  1.2163  0.6221
  478TIP3    H225630   6.010   0.856  19.685 -1.6671 -0.0953 -0.4143
  479TIP3   OH225631   4.282   6.453  17.423 -0.4435  0.0553 -0.2587
  479TIP3    H125632   4.314   6.529  17.374 -1.8422  1.1072  0.3985
  479TIP3    H225633   4.251   6.392  17.355  1.2212 -0.2111 -0.8115
  480TIP3   OH225634   3.786   4.264  20.019 -0.1881 -0.1864 -0.4510
  480TIP3    H125635   3.852   4.197  19.999 -0.7135 -0.7376 -0.3852
  480TIP3    H225636   3.747   4.234  20.102  0.3311  0.7961  0.1740
  481TIP3   OH225637   4.716   1.992  18.888 -0.1900  0.2044 -0.3536
  481TIP3    H125638   4.626   1.966  18.905 -0.9493  0.7750 -2.9584
  481TIP3    H225639   4.739   2.052  18.958 -1.5879 -0.4711  0.7124
  482TIP3   OH225640   4.473   1.919  19.586 -0.4789  0.7584  0.0113
  482TIP3    H125641   4.557   1.874  19.589 -0.5956  0.5884  1.3514
  482TIP3    H225642   4.461   1.941  19.494  0.4422 -0.3147 -0.3886
  483TIP3   OH225643   2.859   3.654  19.010 -0.1955  0.2101 -0.9672
  483TIP3    H125644   2.939   3.634  18.961  0.0909  1.9307 -1.2583
  483TIP3    H225645   2.843   3.576  19.063  2.9345  0.6035  0.7978
  484TIP3   OH225646   6.516   1.621  20.458  0.6283  0.1106  0.0999
  484TIP3    H125647   6.606   1.626  20.426  0.3824  0.1288 -0.5936
  484TIP3    H225648   6.494   1.711  20.483  0.6603  0.1757 -0.1113
  485TIP3   OH225649   6.069   3.426  17.368 -0.7442 -0.4411 -0.0810
  485TIP3    H125650   6.133   3.374  17.320  0.3922 -1.0943  1.9954
  485TIP3    H225651   6.093   3.517  17.350 -2.0150 -0.5591 -2.7963
  486TIP3   OH225652   5.415   0.322  18.146 -0.0562  0.1593  0.0190
  486TIP3    H125653   5.422   0.386  18.217  0.4115  0.6725 -0.4867
  486TIP3    H225654   5.390   0.373  18.070  0.4245 -0.2476 -0.4140
  487TIP3   OH225655   4.982   4.335  20.220  0.1896  0.0799  0.2184
  487TIP3    H125656   4.903   4.280  20.221  1.2500 -1.5011  0.5991
  487TIP3    H225657   4.970   4.394  20.294  0.6161 -2.0869  2.1387
  488TIP3   OH225658   2.076   1.215  18.188  0.3236  0.1947  0.5647
  488TIP3    H125659   2.121   1.197  18.270 -0.1012  1.2804  1.0454
  488TIP3    H225660   2.147   1.230  18.125  0.6477  1.1934  1.1531
  489TIP3   OH225661   0.838   6.186  19.895 -0.2092  0.5498 -0.2720
  489TIP3    H125662   0.781   6.225  19.829  0.3937 -1.3214 -1.9962
  489TIP3    H225663   0.792   6.107  19.924  1.0637 -0.5263 -1.0557
  490TIP3   OH225664   6.140   0.850  17.684 -0.0651  0.0381 -0.1418
  490TIP3    H125665   6.121   0.787  17.753  0.4748  0.6212  0.5537
  490TIP3    H225666   6.094   0.816  17.607 -2.0671  0.2522  0.9040
  491TIP3   OH225667   3.741   5.890  18.022  0.3693  0.5244  0.3481
  491TIP3    H125668   3.758   5.927  18.109  1.4543  0.0459  0.3568
  491TIP3    H225669   3.752   5.965  17.962  0.4309  0.6793  0.5518
  492TIP3   OH225670   4.782   3.584  20.021  0.2087  0.2218  0.1318
  492TIP3    H125671   4.706   3.526  20.013  1.1155 -1.0002  0.2357
  492TIP3    H225672   4.745   3.672  20.013 -1.3241 -0.3114  0.9884
  493TIP3   OH225673   1.571   6.523  19.385  0.1652 -0.4343 -0.3926
  493TIP3    H125674   1.619   6.510  19.467 -1.5579  1.2773  0.9885
  493TIP3    H225675   1.624   6.587  19.337 -0.7283  1.6330  1.2231
  494TIP3   OH225676   4.299   6.280  19.999 -0.1725  0.2753  0.2896
  494TIP3    H125677   4.253   6.329  19.931 -1.0009 -0.7248  0.1003
  494TIP3    H225678   4.371   6.337  20.026  0.0625  0.7732 -1.2923
  495TIP3   OH225679   1.176   6.475  19.581 -0.5257  0.3934 -0.2162
  495TIP3    H125680   1.146   6.566  19.587  1.3819  0.9815  1.9895
  495TIP3    H225681   1.143   6.434  19.661 -0.4945 -0.5844 -0.6988
  496TIP3   OH225682   4.565   4.202  19.378  0.2117 -0.1313  0.0417
  496TIP3    H125683   4.538   4.279  19.329  0.5080 -0.2279 -0.2737
  496TIP3    H225684   4.490   4.182  19.434  0.2924  0.6403  0.4407
  497TIP3   OH225685   3.284   3.053  17.797 -0.4658  0.1373 -0.2666
  497TIP3    H125686   3.308   3.101  17.876 -0.6896 -0.2845  0.0561
  497TIP3    H225687   3.201   3.091  17.770 -0.8435 -0.3449  0.2167
  498TIP3   OH225688   4.958   0.014  19.486  0.3065  0.2186 -0.1144
  498TIP3    H125689   4.870   0.046  19.471 -0.4469 -1.4311  0.5568
  498TIP3    H225690   5.003   0.086  19.530  0.0483  1.9574 -2.4538
  499TIP3   OH225691   4.947   1.851  16.643 -0.0604  0.6630  0.2757
  499TIP3    H125692   4.893   1.903  16.583 -0.2035  0.2164  0.0147
  499TIP3    H225693   4.891   1.836  16.719 -1.1466 -1.6375 -0.8680
  500TIP3   OH225694   3.725   4.796  19.947  0.1187 -0.3490  0.2887
  500TIP3    H125695   3.787   4.728  19.972 -0.1852 -1.3995 -1.6312
  500TIP3    H225696   3.669   4.755  19.881 -1.7701  0.9825  0.9687
  501TIP3   OH225697   0.155   0.031  16.706  0.0534  0.3750 -0.2045
  501TIP3    H125698   0.132   0.074  16.623 -1.9077  2.8702  1.4685
  501TIP3    H225699   0.218  -0.036  16.681 -0.6077  0.8467 -3.7297
  502TIP3   OH225700   5.215   0.771  20.030 -0.0112  0.0060 -0.0792
  502TIP3    H125701   5.273   0.753  19.956  2.0934  0.8629  1.2726
  502TIP3    H225702   5.169   0.688  20.046  0.3254 -0.5036 -1.6086
  503TIP3   OH225703   6.594   6.617  19.651  0.0421 -0.4265 -0.4930
  503TIP3    H125704   6.643   6.586  19.575 -0.8828  0.7152 -1.6050
  503TIP3    H225705   6.630   6.704  19.669 -1.4887  0.4082 -1.2996
  504TIP3   OH225706   2.562   2.137  18.255 -0.1055 -0.6520  0.5783
  504TIP3    H125707   2.519   2.058  18.286 -0.7680 -0.1199  1.0361
  504TIP3    H225708   2.504   2.171  18.187 -0.2885 -0.0730  1.0154
  505TIP3   OH225709   3.984   6.367  19.746  0.2483  0.0177 -0.5313
  505TIP3    H125710   4.076   6.379  19.769  0.5701  0.9022 -2.0922
  505TIP3    H225711   3.963   6.278  19.773  0.8568  0.5749  1.9934
  506TIP3   OH225712   6.223   1.825  17.314  0.4243 -0.3311  0.3540
  506TIP3    H125713   6.146   1.803  17.262  0.1458  0.6366  0.3285
  506TIP3    H225714   6.274   1.744  17.319 -0.8838 -1.1443  0.8699
  507TIP3   OH225715   2.098   6.086  19.331 -0.5175  0.0786 -0.5341
  507TIP3    H125716   2.146   6.148  19.277  0.0001  0.5548  0.4336
  507TIP3    H225717   2.062   6.139  19.402  0.3819 -0.7920  0.6086
  508TIP3   OH225718   2.480   0.187  17.789 -0.7181  0.2492  0.2228
  508TIP3    H125719   2.485   0.098  17.824 -1.8925  0.1331  0.1333
  508TIP3    H225720   2.546   0.236  17.838 -1.9281 -0.0243  2.2698
  509TIP3   OH225721   2.655   5.275  17.189  0.1235 -0.2851  0.3578
  509TIP3    H125722   2.617   5.279  17.277  0.8911 -2.4751  0.8700
  509TIP3    H225723   2.748   5.255  17.204  0.5587  0.6392 -0.9452
  510TIP3   OH225724   2.692   1.482  19.372  0.2208  0.0814  0.1361
  510TIP3    H125725   2.755   1.533  19.322 -0.1831  1.8782  1.3739
  510TIP3    H225726   2.609   1.528  19.360 -0.5527 -1.3083 -0.1197
  511TIP3   OH225727   2.448   3.267  17.124 -0.1640  0.4393 -0.3203
  511TIP3    H125728   2.505   3.284  17.049 -0.7171  0.7108 -0.6869
  511TIP3    H225729   2.435   3.352  17.164 -0.1944  0.3547 -0.1493
  512TIP3   OH225730   1.656   1.003  17.731 -0.1860 -0.9782  0.1227
  512TIP3    H125731   1.706   0.922  17.732  1.6865  0.1159  1.0413
  512TIP3    H225732   1.577   0.983  17.780 -0.7102 -2.7457 -1.3193
  513TIP3   OH225733   2.804   3.633  18.244  0.6354 -0.4875 -0.2682
  513TIP3    H125734   2.836   3.547  18.215 -0.4957 -1.2987  0.7687
  513TIP3    H225735   2.742   3.659  18.176  0.3220 -0.9224 -0.1589
  514TIP3   OH225736   4.116   3.476  18.463  0.7681  0.7950 -0.4135
  514TIP3    H125737   4.206   3.474  18.430  0.4631 -1.3541 -1.2828
  514TIP3    H225738   4.071   3.408  18.413 -0.9316  0.6545  1.2097
  515TIP3   OH225739   3.023   2.064  19.670 -0.0298 -0.4643  0.4302
  515TIP3    H125740   3.108   2.109  19.669 -0.1042 -0.3270  0.2482
  515TIP3    H225741   3.043   1.977  19.704  0.2584 -0.5753  0.0001
  516TIP3   OH225742   0.936   3.832  19.433 -0.0196  0.3370 -0.3933
  516TIP3    H125743   1.004   3.804  19.372  0.8215  0.2442  0.5478
  516TIP3    H225744   0.976   3.904  19.482 -0.1376 -0.4851  0.9828
  517TIP3   OH225745   0.402   0.477  17.994  0.1822  0.1757  0.0062
  517TIP3    H125746   0.384   0.527  18.074 -2.3631 -0.8182  0.1539
  517TIP3    H225747   0.411   0.386  18.025 -0.4924 -0.1681 -0.7848
  518TIP3   OH225748   0.049   2.683  16.663 -0.4059  0.6666 -0.3666
  518TIP3    H125749   0.134   2.668  16.620  1.7857  3.4162  2.5842
  518TIP3    H225750   0.033   2.602  16.711  1.2702  0.5530  0.0719
  519TIP3   OH225751   4.756   1.922  17.585  0.0132  0.4349 -0.1740
  519TIP3    H125752   4.778   1.831  17.606  2.4397  0.7753 -0.8906
  519TIP3    H225753   4.703   1.951  17.659  3.4310 -0.1017  2.7604
  520TIP3   OH225754   4.244   1.342  19.214 -0.0926 -0.5688  0.1415
  520TIP3    H125755   4.333   1.324  19.185 -0.3831 -1.8061 -0.0263
  520TIP3    H225756   4.239   1.304  19.301 -0.3844 -0.2673  0.2597
  521TIP3   OH225757   3.638   1.407  17.816  0.5320 -0.1568  0.0155
  521TIP3    H125758   3.644   1.353  17.738 -0.4824  2.5378 -2.0765
  521TIP3    H225759   3.713   1.466  17.809  0.8128 -0.3075  1.4741
  522TIP3   OH225760   3.869   4.892  19.632 -0.7755  0.2407  0.2542
  522TIP3    H125761   3.800   4.938  19.679 -1.1202 -1.4026  1.4539
  522TIP3    H225762   3.822   4.828  19.578 -0.3623  1.7724 -2.0714
  523TIP3   OH225763   3.294   4.895  19.086 -0.4694 -0.4127  0.6155
  523TIP3    H125764   3.380   4.859  19.065  0.0684  0.0748  1.8817
  523TIP3    H225765   3.252   4.908  19.001  0.6254 -0.8404 -0.0112
  524TIP3   OH225766   1.486   5.050  18.710  0.0799  0.1254 -0.3261
  524TIP3    H125767   1.438   4.987  18.657 -1.1157 -0.0108  0.8712
  524TIP3    H225768   1.448   5.135  18.687 -0.6667  0.0295  0.5456
  525TIP3   OH225769   3.049   2.175  17.384 -0.3469 -0.0178  0.2598
  525TIP3    H125770   3.098   2.098  17.355  2.2985  1.7153 -0.1536
  525TIP3    H225771   2.957   2.153  17.366  0.5744 -1.7405 -3.0285
  526TIP3   OH225772   5.454   2.854  19.987 -0.0769 -0.1716  0.1393
  526TIP3    H125773   5.457   2.848  19.891  0.8565 -0.5055  0.1756
  526TIP3    H225774   5.368   2.820  20.010 -0.2797 -0.1702 -0.5751
  527TIP3   OH225775   2.885   4.218  19.565 -0.2590  0.1984  0.0938
  527TIP3    H125776   2.831   4.235  19.488 -1.0228 -1.7880  0.1147
  527TIP3    H225777   2.865   4.127  19.587  0.4553  0.5216  2.2405
  528TIP3   OH225778   4.566   1.553  17.464  0.2990 -0.0599 -0.1159
  528TIP3    H125779   4.486   1.574  17.415  0.1840  1.6951  0.7831
  528TIP3    H225780   4.631   1.536  17.396 -0.1821  1.0578 -0.8848
  529TIP3   OH225781   5.806   3.344  18.128 -0.5213 -0.1572  0.3808
  529TIP3    H125782   5.860   3.302  18.061 -2.5494  1.4875 -2.5101
  529TIP3    H225783   5.784   3.274  18.190  2.1148 -1.5598 -0.1347
  530TIP3   OH225784   4.168   3.251  19.839  0.5313 -0.0125  0.3337
  530TIP3    H125785   4.153   3.168  19.792  0.5252  1.1170 -1.7981
  530TIP3    H225786   4.080   3.285  19.855  0.5349 -0.3806  1.1955
  531TIP3   OH225787   5.256   1.174  17.514  0.1080  0.1084 -0.5340
  531TIP3    H125788   5.280   1.225  17.437 -0.3193  0.4934 -0.4159
  531TIP3    H225789   5.333   1.177  17.571 -1.1024  3.9169  1.2358
  532TIP3   OH225790   3.197   3.165  19.110  0.9635 -0.4016 -0.5181
  532TIP3    H125791   3.109   3.182  19.076  1.0231 -0.3076 -0.6267
  532TIP3    H225792   3.225   3.249  19.146  1.0604 -0.3988 -0.6016
  533TIP3   OH225793   1.110   2.966  19.238 -0.1283 -0.2480 -0.0672
  533TIP3    H125794   1.070   2.965  19.326  0.3924 -1.7398  0.1885
  533TIP3    H225795   1.136   2.875  19.223  2.6870  0.5419 -0.4485
  534TIP3   OH225796   1.131   6.349  18.383 -0.3199  0.4117  0.4626
  534TIP3    H125797   1.149   6.377  18.294  1.9955  0.7339  0.9737
  534TIP3    H225798   1.164   6.420  18.438 -0.2819 -0.4566  1.6000
  535TIP3   OH225799   6.577   4.941  19.406 -0.3576 -0.6196 -0.0814
  535TIP3    H125800   6.494   4.932  19.358 -0.4565  0.6273 -0.1952
  535TIP3    H225801   6.557   4.915  19.495 -1.0702  0.2994  0.0474
  536TIP3   OH225802   0.615   4.715  19.040 -0.7324  0.0591 -0.0008
  536TIP3    H125803   0.696   4.720  19.091  0.3171 -0.9143 -1.4725
  536TIP3    H225804   0.638   4.755  18.956 -0.9900 -2.3837 -1.3295
  537TIP3   OH225805   2.526   5.440  17.980 -0.7148  0.1851 -1.3172
  537TIP3    H125806   2.445   5.438  18.031  0.7092  2.7125  1.3520
  537TIP3    H225807   2.574   5.363  18.009 -1.3263 -0.2574 -1.4508
  538TIP3   OH225808   1.001   5.051  17.036 -0.0865  0.1304 -0.0892
  538TIP3    H125809   0.942   5.099  17.095  0.7097 -0.4238  1.2010
  538TIP3    H225810   1.042   5.118  16.983 -0.1127  0.7458  0.6517
  539TIP3   OH225811   2.656   0.280  20.073 -0.2013 -0.5388 -0.5062
  539TIP3    H125812   2.734   0.233  20.041 -0.8345 -0.9491 -1.5357
  539TIP3    H225813   2.690   0.344  20.135  1.0805 -0.0365 -1.6546
  540TIP3   OH225814   5.416   1.312  18.713 -0.4585  0.1344 -0.8476
  540TIP3    H125815   5.347   1.373  18.740 -2.1398 -2.1953  0.5319
  540TIP3    H225816   5.387   1.280  18.628  0.9037  1.8088 -2.0223
  541TIP3   OH225817   5.558   2.804  16.696 -0.3113  0.2687  0.0525
  541TIP3    H125818   5.535   2.738  16.630 -1.4239  0.3159  0.3628
  541TIP3    H225819   5.558   2.887  16.648 -1.1479  0.3074  0.1045
  542TIP3   OH225820   4.326   2.985  16.630 -0.7565 -0.2128 -0.2344
  542TIP3    H125821   4.249   3.041  16.628  1.0882  2.5580 -2.1224
  542TIP3    H225822   4.393   3.037  16.675  0.9659 -0.9464 -1.7711
  543TIP3   OH225823   0.131   2.496  18.437 -0.5296  0.0588  0.0310
  543TIP3    H125824   0.120   2.527  18.347 -0.1764  0.7342  0.2099
  543TIP3    H225825   0.052   2.446  18.455 -0.5472 -0.1884 -0.6972
  544TIP3   OH225826   4.187   5.642  20.266 -0.5530 -0.1244  0.6784
  544TIP3    H125827   4.243   5.705  20.221 -0.7070  0.8806  1.8559
  544TIP3    H225828   4.156   5.584  20.196  1.0795 -0.0675 -0.1592
  545TIP3   OH225829   3.872   5.462  18.310  0.2057 -0.0784  0.4565
  545TIP3    H125830   3.910   5.472  18.223  1.0568 -0.4348  0.7789
  545TIP3    H225831   3.877   5.549  18.349 -2.4260  0.6903 -0.7118
  546TIP3   OH225832   0.238   2.067  19.577 -0.1263  0.0685  0.3198
  546TIP3    H125833   0.297   1.999  19.544 -0.4830  0.2752 -0.7487
  546TIP3    H225834   0.296   2.131  19.618  0.2041 -0.9506  1.5053
  547TIP3   OH225835   2.356   1.825  19.820 -0.4717  0.0604 -0.5085
  547TIP3    H125836   2.318   1.805  19.905 -0.1166 -1.4967 -0.6782
  547TIP3    H225837   2.316   1.761  19.760  1.1133 -0.5206 -1.0038
  548TIP3   OH225838   4.782   1.033  17.628  0.4143  0.0294  0.4688
  548TIP3    H125839   4.705   1.046  17.682  1.0252  0.1701  1.3175
  548TIP3    H225840   4.856   1.051  17.686  1.0859 -0.0334 -0.3480
  549TIP3   OH225841   0.801   2.477  18.274 -0.1228  0.1265  0.6146
  549TIP3    H125842   0.710   2.472  18.304 -0.3562 -0.1680 -0.1336
  549TIP3    H225843   0.852   2.460  18.353 -0.7439 -1.6784  0.6683
  550TIP3   OH225844   4.315   0.607  19.706  0.5900  0.3086  0.2647
  550TIP3    H125845   4.277   0.662  19.774 -1.2566  1.6629 -1.7316
  550TIP3    H225846   4.363   0.668  19.650 -0.5549 -0.2155 -1.3720
  551TIP3   OH225847   5.853   4.810  18.408 -0.2174  0.4651  0.3209
  551TIP3    H125848   5.867   4.888  18.355 -2.1040  0.2336 -0.6107
  551TIP3    H225849   5.832   4.843  18.495  1.6372  0.8888  0.6403
  552TIP3   OH225850   3.356   5.661  20.211 -0.8047 -0.5160 -0.4668
  552TIP3    H125851   3.416   5.592  20.182 -1.1894 -0.6425 -0.9849
  552TIP3    H225852   3.391   5.690  20.295  0.6625  0.2354 -1.2973
  553TIP3   OH225853   6.060   4.943  18.647  0.1419 -0.4783 -0.4686
  553TIP3    H125854   6.070   4.953  18.742  1.0561 -1.0908 -0.4855
  553TIP3    H225855   5.965   4.939  18.634  0.0081 -1.7518  0.5865
  554TIP3   OH225856   6.405   2.485  19.291 -0.2694  0.8001 -0.5705
  554TIP3    H125857   6.458   2.551  19.336  0.4565 -0.4557  0.4849
  554TIP3    H225858   6.434   2.489  19.200 -0.2634  1.9492 -0.5347
  555TIP3   OH225859   2.349   5.229  18.542  0.2833 -0.1188 -0.5480
  555TIP3    H125860   2.297   5.244  18.620  1.6720 -0.3787  0.4748
  555TIP3    H225861   2.412   5.162  18.568  0.9297 -0.0300 -1.8071
  556TIP3   OH225862   1.822   2.000  18.806  0.7014 -0.0588 -0.1605
  556TIP3    H125863   1.741   1.967  18.843  2.1948 -1.0487  2.5167
  556TIP3    H225864   1.817   1.980  18.713 -2.0434 -0.1345 -0.0545
  557TIP3   OH225865   4.226   6.657  19.418  0.5187 -0.1442 -0.3515
  557TIP3    H125866   4.143   6.697  19.393  0.4639  0.3359  0.5409
  557TIP3    H225867   4.292   6.706  19.370  0.3785  0.4210  0.0155
  558TIP3   OH225868   6.064   0.351  20.191 -0.6321  0.4647 -0.0212
  558TIP3    H125869   5.976   0.373  20.159 -0.3726  1.4707 -0.0890
  558TIP3    H225870   6.058   0.365  20.286 -0.8452 -0.5567  0.1225
  559TIP3   OH225871   4.300   4.648  19.365 -0.0433  0.0469  0.6931
  559TIP3    H125872   4.249   4.577  19.403 -0.7427  0.1183 -0.0870
  559TIP3    H225873   4.239   4.723  19.364  0.4409  0.4492  0.8026
  560TIP3   OH225874   3.981   0.014  18.047  0.2983  0.1138  0.1586
  560TIP3    H125875   4.058   0.009  17.990  1.3710 -1.4649  1.6587
  560TIP3    H225876   4.011   0.062  18.124 -0.2749 -0.3007  0.6513
  561TIP3   OH225877   4.823   6.673  19.864 -0.0705  0.1475  0.0960
  561TIP3    H125878   4.773   6.754  19.862 -1.3949 -0.5106 -3.7762
  561TIP3    H225879   4.914   6.700  19.854 -0.4135  1.2164 -0.2534
  562TIP3   OH225880   5.880   3.208  19.573  0.0508  0.1163  0.2786
  562TIP3    H125881   5.872   3.277  19.508  0.5779  0.5556  0.6715
  562TIP3    H225882   5.901   3.254  19.655  2.0425 -0.5961  0.2219
  563TIP3   OH225883   5.887   5.983  20.244 -0.8473  0.5611  0.1498
  563TIP3    H125884   5.932   6.066  20.262  1.0030 -0.2449 -0.5030
  563TIP3    H225885   5.956   5.917  20.250 -2.1169 -0.8445 -0.1773
  564TIP3   OH225886   1.723   5.468  19.585  1.0599 -0.1749  0.2255
  564TIP3    H125887   1.743   5.503  19.498  0.3537  0.6102  0.3628
  564TIP3    H225888   1.661   5.397  19.569 -1.0899  1.6019  0.2134
  565TIP3   OH225889   1.869   5.710  16.716 -0.0996  0.1762 -0.0824
  565TIP3    H125890   1.871   5.702  16.621 -0.9665  0.1759 -0.1068
  565TIP3    H225891   1.954   5.747  16.739 -0.0966  0.6913 -0.9121
  566TIP3   OH225892   0.674   6.335  17.954  0.2123  0.3095  0.4381
  566TIP3    H125893   0.752   6.296  17.995  0.9727  2.4977  1.2311
  566TIP3    H225894   0.619   6.361  18.028 -0.4766  0.3431 -0.0785
  567TIP3   OH225895   4.792   4.973  20.273 -0.0803 -0.2099  0.9340
  567TIP3    H125896   4.732   4.908  20.237 -0.0387  0.1669  0.1756
  567TIP3    H225897   4.740   5.054  20.275  0.0210 -0.1532  1.4208
  568TIP3   OH225898   0.593   6.621  20.063  0.7007  0.1369 -0.0030
  568TIP3    H125899   0.666   6.584  20.112  1.1047  0.6043 -0.2388
  568TIP3    H225900   0.534   6.655  20.130  0.4003 -0.7727  0.2095
  569TIP3   OH225901   0.179   4.365  17.506 -0.2599 -0.2619  0.8070
  569TIP3    H125902   0.205   4.328  17.591 -1.1805 -1.0351  0.7692
  569TIP3    H225903   0.192   4.293  17.444 -0.0944  0.1368  0.3779
  570TIP3   OH225904   1.124   2.880  18.183 -0.2639 -0.5571 -0.1094
  570TIP3    H125905   1.143   2.970  18.158  0.8778 -0.0229  2.3276
  570TIP3    H225906   1.033   2.866  18.157 -0.7801  1.6589  0.3393
  571TIP3   OH225907   6.444   3.716  16.868 -0.3158 -0.7925 -0.7025
  571TIP3    H125908   6.367   3.731  16.923 -0.2642  1.2417 -1.1034
  571TIP3    H225909   6.430   3.630  16.831 -1.9587 -0.8504 -0.0464
  572TIP3   OH225910   0.171   0.454  17.804 -0.1022  0.6836  0.3091
  572TIP3    H125911   0.168   0.391  17.877  1.6670  0.1590 -0.0169
  572TIP3    H225912   0.213   0.531  17.841 -0.0891  0.7773  0.0980
  573TIP3   OH225913   2.809   0.682  17.553 -0.3774  0.2536 -0.0299
  573TIP3    H125914   2.817   0.615  17.621 -2.2069  0.4599  0.4501
  573TIP3    H225915   2.761   0.639  17.482  1.0045  0.2153 -0.9864
  574TIP3   OH225916   5.522   3.391  20.184 -0.1598  0.0264  0.4701
  574TIP3    H125917   5.433   3.405  20.152 -0.3140 -2.1410 -0.2243
  574TIP3    H225918   5.512   3.335  20.261  0.5853 -0.1472  0.4471
  575TIP3   OH225919   5.056   2.041  18.685 -0.4581  0.1059  0.3314
  575TIP3    H125920   5.088   2.024  18.774  2.3405  1.5229 -0.2979
  575TIP3    H225921   4.987   2.107  18.697 -3.5985 -3.0938  1.7401
  576TIP3   OH225922   5.290   0.111  18.269 -0.0285  0.6837 -0.0147
  576TIP3    H125923   5.267   0.175  18.336  0.1356  1.8511 -1.0336
  576TIP3    H225924   5.303   0.163  18.190 -0.3136 -0.6649 -0.9827
  577TIP3   OH225925   1.566   1.893  18.925 -0.1783  0.2355 -0.4469
  577TIP3    H125926   1.610   1.866  19.005 -1.6758  0.7689  0.5831
  577TIP3    H225927   1.485   1.934  18.954 -0.9259  0.1273 -2.2577
  578TIP3   OH225928   0.453   3.043  19.844 -0.0711  0.2216  0.1026
  578TIP3    H125929   0.380   3.024  19.902 -0.9795  1.2209 -0.6821
  578TIP3    H225930   0.531   3.019  19.895 -0.9585 -3.5912 -0.0453
  579TIP3   OH225931   2.128   0.697  20.121 -0.7050 -0.0884  0.3641
  579TIP3    H125932   2.144   0.767  20.058 -1.8514 -0.2711 -0.1563
  579TIP3    H225933   2.195   0.709  20.188 -0.9434  1.5752  0.3393
  580TIP3   OH225934   4.951   4.349  18.338  0.2622 -0.2974  0.4441
  580TIP3    H125935   4.957   4.390  18.252 -1.2789  0.7272  0.7877
  580TIP3    H225936   5.016   4.279  18.335  0.9839  0.3775 -1.1687
  581TIP3   OH225937   2.320   2.306  18.598 -0.5158  0.5171  0.1193
  581TIP3    H125938   2.353   2.225  18.636 -1.0968  0.0332 -0.3867
  581TIP3    H225939   2.277   2.279  18.517 -0.0779  1.4240 -0.4224
  582TIP3   OH225940   2.588   0.037  18.289  0.3731 -0.5081 -0.4264
  582TIP3    H125941   2.650   0.098  18.330  0.8470 -1.3852  0.2011
  582TIP3    H225942   2.604  -0.046  18.333 -0.5450 -0.9959 -0.9868
  583TIP3   OH225943   3.582   5.478  18.897  0.0926  0.1732 -0.1824
  583TIP3    H125944   3.514   5.538  18.927  0.5997  1.1311 -0.9061
  583TIP3    H225945   3.579   5.483  18.802  1.6313  0.7933 -0.2280
  584TIP3   OH225946   5.134   0.564  18.572 -0.1478  0.2054 -0.4017
  584TIP3    H125947   5.205   0.596  18.517  0.1509  0.9126  0.3746
  584TIP3    H225948   5.057   0.567  18.515  0.3622 -0.2374 -1.1427
  585TIP3   OH225949   2.358   5.550  17.191  0.1295  0.2795  0.0042
  585TIP3    H125950   2.318   5.636  17.191 -1.4235 -0.3917  1.4630
  585TIP3    H225951   2.294   5.494  17.147  0.1296 -0.5122  0.9692
  586TIP3   OH225952   5.517   1.607  17.593  0.3232  0.1247 -0.4689
  586TIP3    H125953   5.443   1.611  17.654  0.8828  0.9004  0.1946
  586TIP3    H225954   5.480   1.576  17.511 -0.5391 -0.5054  0.1443
  587TIP3   OH225955   6.131   6.337  18.767 -0.2004  0.0884  0.1473
  587TIP3    H125956   6.166   6.293  18.690  0.0648 -0.4926  0.5948
  587TIP3    H225957   6.205   6.384  18.804 -0.6712  1.6528 -0.8130
  588TIP3   OH225958   2.068   1.978  16.730  0.8753  0.2705 -0.0237
  588TIP3    H125959   1.977   2.002  16.711  0.8771 -0.8312 -1.7629
  588TIP3    H225960   2.069   1.882  16.721  2.5009  0.3777 -1.7714
  589TIP3   OH225961   1.025   4.454  17.961  0.2764 -0.7302  0.4698
  589TIP3    H125962   1.065   4.412  18.037  4.0840  0.9764 -0.3133
  589TIP3    H225963   1.012   4.545  17.989  0.9773 -0.2772 -0.5928
  590TIP3   OH225964   2.626   2.318  17.951  0.5422  0.6341 -0.0397
  590TIP3    H125965   2.712   2.352  17.975  0.3741  0.8141  0.3218
  590TIP3    H225966   2.572   2.396  17.941  0.2525  0.4948  0.3996
  591TIP3   OH225967   5.335   6.566  17.036  0.1218 -0.6242 -0.6808
  591TIP3    H125968   5.272   6.608  16.978  2.3383  1.6368 -1.6758
  591TIP3    H225969   5.364   6.636  17.095 -0.5923 -2.3916  1.9285
  592TIP3   OH225970   3.636   3.361  17.699 -0.2391  0.6650  0.2995
  592TIP3    H125971   3.691   3.302  17.750 -0.3627 -0.0530 -0.3708
  592TIP3    H225972   3.601   3.423  17.763  0.3124  0.3357  0.9346
  593TIP3   OH225973   3.612   5.013  17.448 -0.0918 -0.3814 -0.1562
  593TIP3    H125974   3.668   4.997  17.525 -0.8388  1.6462  0.8875
  593TIP3    H225975   3.663   4.980  17.374  1.7885 -0.0598  0.9305
  594TIP3   OH225976   0.615   1.590  19.976 -0.2474 -0.0226 -0.1194
  594TIP3    H125977   0.585   1.509  20.017 -1.7828  1.3865  1.7152
  594TIP3    H225978   0.538   1.647  19.976  0.4367  1.0345 -2.5652
  595TIP3   OH225979   0.866   0.349  20.162  0.0002  0.2435  0.1054
  595TIP3    H125980   0.843   0.440  20.182  1.7830  0.9168 -0.7025
  595TIP3    H225981   0.908   0.353  20.076 -1.1175 -1.5687 -0.5856
  596TIP3   OH225982   0.597   5.129  19.128  0.2466 -0.0988  0.5855
  596TIP3    H125983   0.615   5.052  19.181  0.0872  0.3938  1.3619
  596TIP3    H225984   0.504   5.148  19.143 -0.5388 -1.4883 -1.9043
  597TIP3   OH225985   3.701   5.405  16.469  0.1041  0.1498  0.2154
  597TIP3    H125986   3.711   5.485  16.418 -0.0574  0.7557  1.1060
  597TIP3    H225987   3.632   5.356  16.425  1.6905 -0.5478 -1.6197
  598TIP3   OH225988   2.334   5.739  16.955 -0.0076  0.8025  0.5637
  598TIP3    H125989   2.311   5.828  16.930 -2.3197 -0.2494 -1.4869
  598TIP3    H225990   2.250   5.696  16.971  0.8255 -1.6651 -1.0829
  599TIP3   OH225991   5.392   4.038  18.363 -0.4180 -0.3117  0.2657
  599TIP3    H125992   5.323   4.094  18.401  0.1852  0.6584 -0.0246
  599TIP3    H225993   5.408   3.971  18.429 -1.5294 -0.4682  0.4037
  600TIP3   OH225994   6.444   0.205  18.270 -0.2406  0.0562  0.3518
  600TIP3    H125995   6.434   0.130  18.330  2.3461  0.0272  0.8514
  600TIP3    H225996   6.459   0.280  18.328 -1.0429  0.6599 -0.2028
  601TIP3   OH225997   4.212   2.370  18.718  0.1426 -0.1004 -0.3231
  601TIP3    H125998   4.127   2.361  18.760 -0.5625  0.3240 -1.6160
  601TIP3    H225999   4.253   2.284  18.726 -0.4663 -0.3464  0.1870
  602TIP3   OH226000   1.487   6.381  16.744  0.0097  0.1354  0.0183
  602TIP3    H126001   1.570   6.427  16.745 -0.2495  0.6072  1.3462
  602TIP3    H226002   1.432   6.427  16.807 -0.9918 -0.6669 -0.2194
  603TIP3   OH226003   5.903   1.553  18.787 -0.2306  0.0283 -0.1194
  603TIP3    H126004   5.847   1.628  18.768 -1.6546 -0.5830  1.3870
  603TIP3    H226005   5.916   1.511  18.702 -0.7158  1.0889 -0.7392
  604TIP3   OH226006   5.034   2.152  20.083 -0.3382  0.2697 -0.0044
  604TIP3    H126007   5.086   2.223  20.046  0.8591  0.1630  1.3939
  604TIP3    H226008   5.090   2.075  20.076 -0.9271 -0.1784  0.1346
  605TIP3   OH226009   3.522   4.935  18.186  0.1370  0.1277 -0.0065
  605TIP3    H126010   3.570   4.876  18.245  0.0063  0.8376  0.8416
  605TIP3    H226011   3.519   4.889  18.102 -0.2275 -1.2007  0.7059
  606TIP3   OH226012   3.218   5.830  18.794  0.6321  0.5255  0.4374
  606TIP3    H126013   3.307   5.848  18.766 -0.1743  0.4548 -2.4189
  606TIP3    H226014   3.191   5.754  18.743 -0.6927 -0.2567  2.1581
  607TIP3   OH226015   4.374   1.221  19.868 -0.1043  0.5453 -0.0348
  607TIP3    H126016   4.407   1.136  19.840 -0.6857 -0.6063  2.4716
  607TIP3    H226017   4.294   1.233  19.817 -1.3243 -1.6112  1.1925
  608TIP3   OH226018   6.290   5.824  18.557  0.1471  0.6846  0.1631
  608TIP3    H126019   6.347   5.794  18.486  0.4843  0.8641  0.3544
  608TIP3    H226020   6.230   5.751  18.573  0.1763  0.5829 -0.1960
  609TIP3   OH226021   3.188   6.431  19.295  0.5863  0.3702 -0.1241
  609TIP3    H126022   3.277   6.466  19.283  0.1173  0.8328 -3.1785
  609TIP3    H226023   3.188   6.350  19.244 -0.2148 -0.7226  1.5502
  610TIP3   OH226024   0.892   6.187  19.399 -0.0546 -0.1125 -0.2021
  610TIP3    H126025   0.844   6.269  19.413 -0.0078 -0.2371  0.7552
  610TIP3    H226026   0.824   6.124  19.373 -0.2653 -0.0357  0.1484
  611TIP3   OH226027   4.995   1.017  19.378  0.2789 -0.2430  0.1408
  611TIP3    H126028   5.034   1.014  19.290  0.6630  2.3505  0.1179
  611TIP3    H226029   4.904   1.044  19.363  0.1892 -0.3234  0.5208
  612TIP3   OH226030   0.664   1.402  17.102 -0.0066 -0.2751 -0.0278
  612TIP3    H126031   0.716   1.472  17.141 -1.4616  0.5912  0.4405
  612TIP3    H226032   0.685   1.325  17.153  1.2404 -0.0844 -0.2257
  613TIP3   OH226033   3.957   5.542  19.346  0.3148 -0.0074 -0.7493
  613TIP3    H126034   4.051   5.561  19.340  0.7633 -1.9157 -0.6141
  613TIP3    H226035   3.923   5.606  19.408  1.5181  0.7353 -0.8300
  614TIP3   OH226036   0.005   4.842  18.985  0.1857  0.4219  0.1513
  614TIP3    H126037   0.003   4.899  18.908 -0.6378 -0.3582 -0.4178
  614TIP3    H226038  -0.065   4.875  19.042 -1.3476 -0.9496 -0.8773
  615TIP3   OH226039   1.011   0.671  16.955 -0.1807  0.0853 -0.3472
  615TIP3    H126040   0.926   0.684  16.913 -0.9731 -1.3707  0.7312
  615TIP3    H226041   1.027   0.577  16.949  0.8592  0.1965  0.4043
  616TIP3   OH226042   3.381   1.548  17.256  0.3354 -0.2550  0.4268
  616TIP3    H126043   3.349   1.625  17.209  0.9027 -0.5431 -0.4539
  616TIP3    H226044   3.436   1.585  17.326  1.1404  0.1393 -0.3948
  617TIP3   OH226045   2.547   2.137  17.714 -0.1920 -0.0084 -0.4649
  617TIP3    H126046   2.575   2.107  17.801  0.5488 -1.8406 -1.2725
  617TIP3    H226047   2.626   2.171  17.673 -0.0040 -1.2240 -1.1892
  618TIP3   OH226048   2.682   3.476  17.667  0.1802 -0.2580 -0.0967
  618TIP3    H126049   2.669   3.487  17.573  0.8660 -0.9319 -0.2786
  618TIP3    H226050   2.624   3.541  17.707  1.2677  1.3785 -1.0264
  619TIP3   OH226051   3.413   1.546  17.948  0.2258 -0.2108  0.7526
  619TIP3    H126052   3.488   1.548  17.889 -1.8682  0.8954 -2.1630
  619TIP3    H226053   3.367   1.465  17.925 -0.9723  0.5660  0.3029
  620TIP3   OH226054   1.419   5.367  17.966  0.4998 -0.0315  0.6283
  620TIP3    H126055   1.443   5.448  18.011  0.5355 -0.6560  1.7741
  620TIP3    H226056   1.415   5.301  18.036 -1.4569 -0.6100  0.0334
  621TIP3   OH226057   0.187   2.373  17.067 -0.2074  0.2788 -0.2901
  621TIP3    H126058   0.261   2.353  17.124 -0.9349  1.6312  1.1899
  621TIP3    H226059   0.186   2.301  17.003  0.5115 -1.4031  1.4963
  622TIP3   OH226060   3.038   1.812  19.786 -0.0358 -0.3413 -0.6217
  622TIP3    H126061   2.945   1.798  19.772  0.0850 -0.5048 -1.2768
  622TIP3    H226062   3.076   1.724  19.788  0.0395 -0.3000  0.1517
  623TIP3   OH226063   6.106   2.389  19.262  0.3268  0.2022 -0.1003
  623TIP3    H126064   6.177   2.434  19.307 -0.6583  0.4690  1.2486
  623TIP3    H226065   6.147   2.314  19.220  1.4513  0.5470  0.3575
  624TIP3   OH226066   3.346   0.512  17.460 -0.2581 -0.1698 -0.4749
  624TIP3    H126067   3.398   0.431  17.460  0.5402  0.3329 -1.2973
  624TIP3    H226068   3.400   0.576  17.415  0.0314  1.4346  1.9640
  625TIP3   OH226069   3.553   5.796  18.306  0.3643  0.0489  0.9686
  625TIP3    H126070   3.541   5.847  18.387 -2.0367  0.7094  0.2994
  625TIP3    H226071   3.492   5.837  18.244  1.3979 -1.0953 -0.8658
  626TIP3   OH226072   4.736   6.459  17.475 -0.1465  0.4322 -0.0221
  626TIP3    H126073   4.818   6.429  17.514 -0.1398  0.0235 -0.3374
  626TIP3    H226074   4.710   6.535  17.527 -0.2246 -0.1985  0.8603
  627TIP3   OH226075   0.772   3.308  20.284  0.1966  0.1392 -0.1238
  627TIP3    H126076   0.749   3.401  20.291 -0.9785 -0.1755  0.5381
  627TIP3    H226077   0.832   3.293  20.357  0.3661  0.3832 -0.2143
  628TIP3   OH226078   4.901   2.979  20.199  0.2166  0.3327 -0.0823
  628TIP3    H126079   4.917   3.018  20.285  0.5470  1.8783 -0.8137
  628TIP3    H226080   4.882   2.887  20.218  1.8571  0.2543  1.5210
  629TIP3   OH226081   2.314   4.672  18.517 -0.1839  0.4061  0.3318
  629TIP3    H126082   2.239   4.632  18.472 -2.1812  1.8197  2.1880
  629TIP3    H226083   2.328   4.617  18.594 -0.3366  1.0260  0.8037
  630TIP3   OH226084   2.764   2.094  17.350 -0.0157 -0.0371 -0.3664
  630TIP3    H126085   2.735   2.035  17.420  1.4272 -0.1122  0.1971
  630TIP3    H226086   2.748   2.044  17.269 -1.7339  0.0669 -0.1456
  631TIP3   OH226087   5.672   4.360  19.421  0.0833 -0.0533  0.0149
  631TIP3    H126088   5.724   4.429  19.378 -0.9478  0.5133 -0.3657
  631TIP3    H226089   5.601   4.342  19.360  0.3388 -1.4972  0.1052
  632TIP3   OH226090   5.680   0.767  19.050 -0.0743  0.5358 -0.4192
  632TIP3    H126091   5.739   0.828  19.006 -0.1947  0.5976 -0.4950
  632TIP3    H226092   5.705   0.681  19.016  0.5520  0.4667  0.1912
  633TIP3   OH226093   5.512   5.851  17.734  0.2325  0.7474 -0.5978
  633TIP3    H126094   5.420   5.827  17.718  0.6094 -0.8380 -0.6036
  633TIP3    H226095   5.517   5.864  17.829 -0.4001  2.8580 -0.8006
  634TIP3   OH226096   2.983   6.043  17.178 -0.9454  0.0754 -0.0586
  634TIP3    H126097   2.991   6.114  17.242 -0.3869 -0.1991  0.1868
  634TIP3    H226098   2.892   6.016  17.183 -0.8151 -0.2517  0.9712
  635TIP3   OH226099   6.032   4.009  18.519 -0.7240  0.0872 -0.1938
  635TIP3    H126100   5.996   4.098  18.511 -0.4342  0.2743  0.4814
  635TIP3    H226101   6.105   4.019  18.580 -0.3531 -0.5229 -0.5363
  636TIP3   OH226102   0.661   0.159  19.631  0.4413  0.4608  0.0977
  636TIP3    H126103   0.710   0.235  19.662  1.2214  0.3998 -0.9037
  636TIP3    H226104   0.724   0.110  19.578  0.1281 -1.2118  1.2022
  637TIP3   OH226105   1.477   4.205  17.354  0.2458  0.8801  0.2066
  637TIP3    H126106   1.464   4.263  17.429 -0.9258  2.2786 -1.0282
  637TIP3    H226107   1.568   4.175  17.363  0.0502  0.7714  2.3104
  638TIP3   OH226108   2.673   6.486  17.053  0.1949  0.4009  0.0840
  638TIP3    H126109   2.737   6.442  17.108  0.2446 -1.1507 -1.1364
  638TIP3    H226110   2.725   6.543  16.996  0.5081 -0.5722 -0.6469
  639TIP3   OH226111   5.572   0.214  18.806  0.3113 -0.0690 -0.0630
  639TIP3    H126112   5.631   0.271  18.757 -1.2798  1.5296 -0.2540
  639TIP3    H226113   5.591   0.233  18.898  1.7342 -1.3936 -0.0456
  640TIP3   OH226114   4.461   3.199  20.147  0.3335 -0.1241 -0.4024
  640TIP3    H126115   4.412   3.120  20.124  2.3462 -1.4160 -0.5396
  640TIP3    H226116   4.552   3.170  20.152  0.9877  1.9072  0.9412
  641TIP3   OH226117   0.622   6.305  19.705  0.4597  0.0152  0.2633
  641TIP3    H126118   0.552   6.367  19.726  0.7390 -0.0550  1.5271
  641TIP3    H226119   0.592   6.222  19.741  0.6317 -0.2964 -0.3117
  642TIP3   OH226120   0.169   5.248  17.160 -0.3180  0.2731 -0.4586
  642TIP3    H126121   0.241   5.222  17.217 -2.6641 -1.8788  1.8103
  642TIP3    H226122   0.190   5.208  17.076  0.4887 -1.5483  0.5491
  643TIP3   OH226123   2.191   4.138  17.271 -0.0564  0.3600  0.1981
  643TIP3    H126124   2.254   4.195  17.226 -1.8435  2.0583 -0.3102
  643TIP3    H226125   2.111   4.147  17.220 -1.3252 -0.0233  2.0316
  644TIP3   OH226126   1.353   3.094  19.133 -0.3024  0.2613 -0.6184
  644TIP3    H126127   1.323   3.127  19.218 -0.1959 -1.1439 -0.0110
  644TIP3    H226128   1.275   3.059  19.092  0.2945 -3.2431  0.8910
  645TIP3   OH226129   5.345   2.900  17.111  0.4580 -0.3966  0.2292
  645TIP3    H126130   5.395   2.932  17.036  0.8589  0.3586  0.8038
  645TIP3    H226131   5.298   2.823  17.078  0.2379  0.2143 -0.9304
  646TIP3   OH226132   4.785   0.525  19.186 -0.1172 -0.4786 -0.0726
  646TIP3    H126133   4.780   0.453  19.124  1.0781 -1.0349  0.4365
  646TIP3    H226134   4.776   0.484  19.272  1.5102 -0.1829  0.2750
  647TIP3   OH226135   1.457   5.951  18.750 -0.0750 -0.0323 -0.4474
  647TIP3    H126136   1.470   5.951  18.845  0.9294  1.3345 -0.5464
  647TIP3    H226137   1.400   5.877  18.733 -0.0351 -0.4720  1.1971
  648TIP3   OH226138   4.713   1.332  16.691 -0.7991  0.7635  0.1442
  648TIP3    H126139   4.735   1.405  16.633 -1.8594  1.8397  1.0293
  648TIP3    H226140   4.793   1.279  16.696 -0.4148  1.1323 -1.5540
  649TIP3   OH226141   0.784   3.349  19.027 -0.0289  0.2170 -0.0314
  649TIP3    H126142   0.866   3.302  19.043  0.7491  2.0090  1.8301
  649TIP3    H226143   0.717   3.281  19.023  1.1435 -1.1365  1.6525
  650TIP3   OH226144   4.978   3.810  19.723  0.3439  0.1193  0.4201
  650TIP3    H126145   4.943   3.866  19.792 -1.5539 -0.3578 -0.1119
  650TIP3    H226146   4.981   3.723  19.762  1.1900  0.1903  0.5309
  651TIP3   OH226147   2.070   1.534  19.914  0.5306 -0.3567  0.0305
  651TIP3    H126148   1.999   1.504  19.971 -0.5268  0.9870 -0.5070
  651TIP3    H226149   2.115   1.454  19.888 -1.6402 -1.4417 -0.6913
  652TIP3   OH226150   6.181   1.014  19.298 -0.0362 -0.1518 -0.0338
  652TIP3    H126151   6.199   1.016  19.392 -1.3634  1.3598  0.2183
  652TIP3    H226152   6.243   1.076  19.260 -0.2226  0.0484 -0.0131
  653TIP3   OH226153   3.542   4.120  18.179 -0.1478  0.0812 -0.6890
  653TIP3    H126154   3.630   4.138  18.211 -0.5649 -0.2597  0.7587
  653TIP3    H226155   3.554   4.074  18.097  1.1000 -2.0709  0.6226
  654TIP3   OH226156   5.220   6.565  20.258  0.1816 -0.6182 -0.1032
  654TIP3    H126157   5.162   6.627  20.301  1.1304 -0.1647  0.5604
  654TIP3    H226158   5.175   6.480  20.265 -1.4392  0.0627 -1.6072
  655TIP3   OH226159   2.309   4.291  18.993  0.1669  0.0880 -0.2088
  655TIP3    H126160   2.231   4.259  19.038 -0.2741 -1.1928 -1.8096
  655TIP3    H226161   2.281   4.306  18.903  1.5613  0.4399 -0.6162
  656TIP3   OH226162   1.931   4.673  19.404 -0.0401  0.2430 -0.2868
  656TIP3    H126163   1.859   4.659  19.343  0.7545 -1.5655 -0.8673
  656TIP3    H226164   1.891   4.668  19.491 -0.7393  0.0581 -0.6157
  657TIP3   OH226165   1.331   5.970  19.296  0.4518 -0.1212 -0.2791
  657TIP3    H126166   1.240   5.943  19.314  0.3638 -0.2357 -0.8834
  657TIP3    H226167   1.338   6.057  19.334  0.5765 -0.7536  1.2271
  658TIP3   OH226168   2.430   1.923  18.356  0.0457  0.0047  0.4018
  658TIP3    H126169   2.335   1.922  18.340  0.1438  0.7177 -0.2933
  658TIP3    H226170   2.456   1.831  18.354 -0.2576 -0.0902 -1.8218
  659TIP3   OH226171   0.052   0.445  20.253  0.1349 -0.2827 -0.4276
  659TIP3    H126172   0.057   0.473  20.344 -0.5095 -1.9181  0.1555
  659TIP3    H226173  -0.041   0.441  20.234  0.2028 -1.4173 -0.6377
  660TIP3   OH226174   4.398   0.393  18.968  0.4434  0.2613  0.0493
  660TIP3    H126175   4.414   0.408  18.875  2.3460 -3.5258 -0.4182
  660TIP3    H226176   4.330   0.326  18.970 -1.2730  1.9346  1.5641
  661TIP3   OH226177   0.592   0.594  19.008  0.1715 -0.5519  0.0849
  661TIP3    H126178   0.648   0.559  18.939 -1.1649  0.5304 -1.6129
  661TIP3    H226179   0.557   0.675  18.973 -0.5620  0.0594  2.0634
  662TIP3   OH226180   1.968   6.245  19.510 -0.4517 -0.0309 -0.5462
  662TIP3    H126181   2.023   6.274  19.583 -0.8012  2.4998 -1.1868
  662TIP3    H226182   1.879   6.265  19.537 -0.7508 -0.8212 -0.9292
  663TIP3   OH226183   6.474   5.906  17.760  0.4757 -0.0807 -0.1511
  663TIP3    H126184   6.476   5.810  17.763 -0.9754 -0.1478 -0.5381
  663TIP3    H226185   6.490   5.933  17.850  0.8262 -0.6930 -0.0237
  664TIP3   OH226186   5.564   2.446  18.577 -0.2205  0.0495 -0.4477
  664TIP3    H126187   5.480   2.466  18.536 -0.3289  0.7632  0.0986
  664TIP3    H226188   5.576   2.352  18.563 -0.9970 -0.0118 -0.7435
  665TIP3   OH226189   1.192   3.313  20.262  0.6201  0.0463 -0.2499
  665TIP3    H126190   1.212   3.388  20.206 -1.3310  1.2101  0.5128
  665TIP3    H226191   1.181   3.240  20.201  0.0596  0.9457 -1.2751
  666TIP3   OH226192   1.730   3.942  18.140 -0.0143  0.1136 -0.3324
  666TIP3    H126193   1.718   4.000  18.216  1.8669  0.9404 -0.6114
  666TIP3    H226194   1.814   3.898  18.157 -0.8533 -1.7185 -0.6826
  667TIP3   OH226195   4.424   1.799  20.378  0.0217  0.2585 -0.0513
  667TIP3    H126196   4.404   1.865  20.444 -1.6661 -2.8367  2.7836
  667TIP3    H226197   4.509   1.763  20.405 -0.2599 -0.4307 -0.0739
  668TIP3   OH226198   2.998   0.871  17.524  0.0994  0.0208 -0.1126
  668TIP3    H126199   2.943   0.799  17.554  0.2440 -0.1815 -0.3256
  668TIP3    H226200   2.983   0.942  17.587  1.1262 -0.7127  1.0015
  669TIP3   OH226201   5.132   2.288  18.431 -0.5967  0.3926  0.2499
  669TIP3    H126202   5.086   2.206  18.419 -0.5023  0.5465 -1.2787
  669TIP3    H226203   5.155   2.289  18.524 -0.8030 -1.1848  0.3375
  670TIP3   OH226204   5.673   3.470  19.947  0.3822  0.3391 -0.1115
  670TIP3    H126205   5.621   3.472  20.027  0.5118  2.6473 -0.0172
  670TIP3    H226206   5.610   3.486  19.877  0.4638 -0.4075 -0.3669
  671TIP3   OH226207   3.216   2.487  17.594 -0.2397 -0.5224  0.4179
  671TIP3    H126208   3.267   2.567  17.596  1.3420 -1.4484 -0.6858
  671TIP3    H226209   3.281   2.417  17.583 -1.4441 -2.0890  2.4986
  672TIP3   OH226210   1.726   4.001  17.146  0.3297  0.1323  0.6465
  672TIP3    H126211   1.728   4.079  17.090 -1.2677 -0.0258  0.3230
  672TIP3    H226212   1.719   4.036  17.235  0.2774  0.3733  0.5496
  673TIP3   OH226213   6.117   5.366  19.238  0.3388  0.6280  0.6238
  673TIP3    H126214   6.211   5.376  19.246  0.5282  1.0693 -1.6355
  673TIP3    H226215   6.081   5.450  19.267  0.6192  0.5434  1.2471
  674TIP3   OH226216   2.652   5.634  18.379 -0.1426 -0.3797  0.2268
  674TIP3    H126217   2.592   5.682  18.322 -1.1537 -1.6858  0.1601
  674TIP3    H226218   2.703   5.579  18.320 -0.0319 -0.5003  0.4321
  675TIP3   OH226219   4.257   3.355  19.505  0.3779  0.7518 -0.1508
  675TIP3    H126220   4.162   3.357  19.502  0.3709 -0.1396 -1.2384
  675TIP3    H226221   4.282   3.438  19.546 -0.8667  0.7475  0.6643
  676TIP3   OH226222   4.228   4.924  19.264  0.8372  0.0924  0.1182
  676TIP3    H126223   4.294   4.923  19.194 -0.1369 -2.2449 -0.8918
  676TIP3    H226224   4.168   4.994  19.239  1.8800  0.9828  0.0307
  677TIP3   OH226225   2.145   2.222  19.659  0.7490  0.3277 -0.6143
  677TIP3    H126226   2.212   2.173  19.610  0.8812 -1.4762  1.2303
  677TIP3    H226227   2.062   2.185  19.630  0.8369 -0.8947  0.5767
  678TIP3   OH226228   4.909   3.521  18.139 -0.1884 -0.8403 -0.4487
  678TIP3    H126229   4.941   3.540  18.227 -1.5161 -0.3908 -0.0381
  678TIP3    H226230   4.937   3.431  18.122  1.4868 -0.3939 -0.2425
  679TIP3   OH226231   4.617   5.856  19.492 -0.4308  0.5642  0.0903
  679TIP3    H126232   4.652   5.941  19.464 -0.3059  0.6001  0.3487
  679TIP3    H226233   4.678   5.826  19.559  0.3127 -0.4012 -0.9975
  680TIP3   OH226234   6.309   3.230  17.606 -0.5079  0.0929  0.5219
  680TIP3    H126235   6.282   3.151  17.653  1.5855 -0.5829  0.6761
  680TIP3    H226236   6.237   3.292  17.620 -1.6084 -1.3406  1.4835
  681TIP3   OH226237   4.309   3.307  16.379 -0.6904  0.1704 -0.7770
  681TIP3    H126238   4.260   3.294  16.460 -0.2280  1.5723 -0.2332
  681TIP3    H226239   4.243   3.316  16.311 -1.0930 -0.6464 -0.5094
  682TIP3   OH226240   5.406   4.085  17.770  0.6214  0.2476  0.3609
  682TIP3    H126241   5.378   4.044  17.852  2.1020  2.7718  2.2544
  682TIP3    H226242   5.332   4.070  17.710 -0.1714 -2.4103  1.8086
  683TIP3   OH226243   4.050   6.058  18.384 -0.1729  0.7411  0.1549
  683TIP3    H126244   3.957   6.043  18.401 -0.1917  1.4231  0.6763
  683TIP3    H226245   4.092   6.045  18.469  0.4271 -1.0940 -0.3595
  684TIP3   OH226246   5.688   3.513  19.436 -0.9586  0.5969 -0.0045
  684TIP3    H126247   5.635   3.442  19.401 -0.1113 -0.1142  0.0974
  684TIP3    H226248   5.629   3.587  19.443 -2.5954 -0.7894  2.3152
  685TIP3   OH226249   3.147   5.971  17.527 -0.0556  0.3091  0.5688
  685TIP3    H126250   3.066   5.992  17.574 -1.2133  0.3159 -1.3545
  685TIP3    H226251   3.172   5.885  17.561  0.1949  1.0937  2.5201
  686TIP3   OH226252   6.338   2.811  18.942  0.3162  0.6286 -0.1044
  686TIP3    H126253   6.263   2.791  18.998 -1.5704  0.5168 -2.5037
  686TIP3    H226254   6.349   2.906  18.950 -0.6528  0.7746 -0.3555
  687TIP3   OH226255   0.365   2.320  16.755 -0.1837 -0.0834  0.0954
  687TIP3    H126256   0.408   2.362  16.830 -0.2813 -2.1450  1.3916
  687TIP3    H226257   0.306   2.255  16.795 -1.6647  0.0470 -1.7347
  688TIP3   OH226258   1.728   3.397  20.185 -0.2180  0.1540  0.4153
  688TIP3    H126259   1.786   3.437  20.250 -1.5010  3.0137 -0.0449
  688TIP3    H226260   1.644   3.442  20.197 -1.3798 -1.4331 -1.2141
  689TIP3   OH226261   5.954   4.776  16.664 -0.4792  0.0924  0.0010
  689TIP3    H126262   5.921   4.741  16.747 -0.5634 -0.6572 -0.3438
  689TIP3    H226263   6.049   4.783  16.678 -0.2037 -1.9492 -0.4950
  690TIP3   OH226264   5.028   5.990  17.787  0.3200  0.0327 -0.2177
  690TIP3    H126265   5.107   5.975  17.839 -0.8746 -1.5683  1.2571
  690TIP3    H226266   4.966   6.029  17.848 -0.5752 -0.3105 -0.8789
  691TIP3   OH226267   0.808   0.504  18.857 -0.0793  0.0427  0.1854
  691TIP3    H126268   0.871   0.576  18.846 -0.7901  0.5895 -0.3249
  691TIP3    H226269   0.855   0.440  18.911  1.1043  0.2166 -0.6035
  692TIP3   OH226270   3.240   0.861  19.174 -0.1621 -0.3136 -0.4531
  692TIP3    H126271   3.259   0.768  19.186 -1.2558 -0.4479  0.4844
  692TIP3    H226272   3.161   0.862  19.119  0.5042  0.1065 -1.4231
  693TIP3   OH226273   2.950   2.534  18.859  0.5458  0.2533  0.2076
  693TIP3    H126274   2.885   2.601  18.881 -0.3040  0.3577 -2.3116
  693TIP3    H226275   2.905   2.451  18.876 -0.2972  0.3240 -1.5297
  694TIP3   OH226276   2.103   2.215  18.434 -0.9212 -0.7046  0.6539
  694TIP3    H126277   2.015   2.188  18.459 -0.9979  0.0222  1.2146
  694TIP3    H226278   2.090   2.292  18.378 -0.6735 -1.2047 -0.1121
  695TIP3   OH226279   2.147   6.363  18.819 -0.1231  0.0594  0.6427
  695TIP3    H126280   2.071   6.407  18.857 -0.8458  2.4502 -3.0373
  695TIP3    H226281   2.113   6.278  18.788 -0.6526  0.0497  1.2348
  696TIP3   OH226282   0.499   5.855  17.671 -0.0963  0.7056 -0.7843
  696TIP3    H126283   0.425   5.892  17.719 -1.2317 -1.9334 -0.3618
  696TIP3    H226284   0.564   5.835  17.739 -0.6653 -0.6773 -0.6272
  697TIP3   OH226285   2.404   0.791  19.991 -0.4855 -0.3375  0.1748
  697TIP3    H126286   2.392   0.882  20.019 -0.1705  0.0445 -0.8999
  697TIP3    H226287   2.495   0.785  19.964  0.7638 -2.0908  4.1091
  698TIP3   OH226288   1.006   4.460  20.102  0.3190  0.8887  0.0243
  698TIP3    H126289   1.038   4.391  20.044  2.8692  2.0057 -0.0700
  698TIP3    H226290   0.928   4.494  20.058 -0.2851 -1.0812 -0.5296
  699TIP3   OH226291   4.297   1.721  19.722  0.0871  0.1322 -0.5056
  699TIP3    H126292   4.280   1.653  19.656 -0.5591 -0.7666  0.5577
  699TIP3    H226293   4.317   1.799  19.671  0.0597 -0.6584 -1.7698
  700TIP3   OH226294   2.304   5.512  18.168 -0.5723 -0.1449  0.0703
  700TIP3    H126295   2.285   5.595  18.211 -0.5091 -0.6453  1.0822
  700TIP3    H226296   2.219   5.482  18.136 -0.5655  0.3918 -0.4756
  701TIP3   OH226297   5.975   2.068  19.820  0.2228  0.5987 -0.1795
  701TIP3    H126298   5.895   2.103  19.781 -0.7825 -0.6526  0.6994
  701TIP3    H226299   6.026   2.146  19.842 -1.7945  1.5810  1.3886
  702TIP3   OH226300   0.773   4.014  19.605 -0.4581  0.1545  0.0054
  702TIP3    H126301   0.699   4.073  19.623 -0.0479  0.6143  0.2309
  702TIP3    H226302   0.735   3.943  19.553 -1.1798  0.0822  0.6044
  703TIP3   OH226303   0.271   5.642  19.865  0.7002 -0.4033  0.0518
  703TIP3    H126304   0.325   5.586  19.807 -0.7900 -1.5605 -0.2861
  703TIP3    H226305   0.185   5.644  19.822  0.4869  1.5247  0.4998
  704TIP3   OH226306   1.035   0.494  17.698  0.2784  0.0112 -0.0038
  704TIP3    H126307   0.951   0.515  17.658  1.3465  2.8868 -1.0282
  704TIP3    H226308   1.074   0.429  17.640 -1.4422 -1.8883  0.8679
  705TIP3   OH226309   4.888   1.765  19.039 -0.3608 -0.4085 -0.4353
  705TIP3    H126310   4.864   1.844  18.991 -0.5845  2.6460  4.0862
  705TIP3    H226311   4.983   1.770  19.048 -0.3784 -0.6343 -0.0957
  706TIP3   OH226312   0.255   5.867  19.025 -0.1746 -0.1070 -0.0854
  706TIP3    H126313   0.207   5.949  19.013 -1.3241 -0.3592  2.1760
  706TIP3    H226314   0.191   5.798  19.006  0.5855 -0.5231 -1.2865
  707TIP3   OH226315   0.175   3.588  18.097  0.1312  0.1466  0.3482
  707TIP3    H126316   0.158   3.564  18.188 -1.3322  1.6323  0.5242
  707TIP3    H226317   0.257   3.544  18.075  0.8230  0.1964  2.5638
  708TIP3   OH226318   5.913   1.172  20.030 -0.2372 -0.2226 -0.0432
  708TIP3    H126319   5.942   1.109  20.095 -1.6632  0.5351  1.3872
  708TIP3    H226320   5.862   1.120  19.968 -2.3110 -0.4018  1.7016
  709TIP3   OH226321   3.772   3.732  17.175 -0.4701  0.3130 -0.4045
  709TIP3    H126322   3.691   3.776  17.202  0.0706  1.3892 -0.5208
  709TIP3    H226323   3.834   3.749  17.245 -0.9616 -2.5033  0.8658
  710TIP3   OH226324   4.652   3.945  19.329  0.1075  0.3944 -0.1312
  710TIP3    H126325   4.662   4.038  19.348  0.9481  0.2338  0.2599
  710TIP3    H226326   4.695   3.900  19.402 -1.2866 -0.3341  0.2809
  711TIP3   OH226327   0.644   6.498  17.717 -0.0159  0.4426  0.1867
  711TIP3    H126328   0.664   6.475  17.808  2.3129  0.1735 -0.3482
  711TIP3    H226329   0.642   6.415  17.671 -1.2233  0.5792 -0.0240
  712TIP3   OH226330   1.565   1.386  17.369 -0.4667  0.3368  0.4616
  712TIP3    H126331   1.564   1.316  17.435 -1.0406  0.3292  0.4554
  712TIP3    H226332   1.634   1.445  17.397  0.3440 -0.4723  0.2162
  713TIP3   OH226333   6.107   6.214  19.797  0.0245  0.6309  0.0400
  713TIP3    H126334   6.118   6.236  19.705  0.4469  0.3738  0.0295
  713TIP3    H226335   6.013   6.196  19.806 -0.5938  3.3952  0.2503
  714TIP3   OH226336   5.066   4.979  20.299 -0.6173  0.6558  0.5181
  714TIP3    H126337   4.974   4.954  20.310 -0.4365 -0.2427  0.0657
  714TIP3    H226338   5.115   4.903  20.329 -0.0582 -0.8568 -3.6048
  715TIP3   OH226339   6.135   2.751  17.990 -0.7254  0.2411 -0.3327
  715TIP3    H126340   6.052   2.768  18.035 -0.3592 -0.1247  0.5026
  715TIP3    H226341   6.113   2.684  17.925 -0.7480 -1.1659  1.0744
  716TIP3   OH226342   5.585   0.470  19.602  0.0557  0.4122  0.1094
  716TIP3    H126343   5.550   0.526  19.533  1.6785 -0.8211 -1.8603
  716TIP3    H226344   5.638   0.405  19.555  0.6169 -0.9847  2.4883
  717TIP3   OH226345   5.140   5.346  17.803  0.3328  0.1931 -0.5877
  717TIP3    H126346   5.219   5.293  17.817 -0.3625 -0.3275  1.9983
  717TIP3    H226347   5.082   5.320  17.875 -1.2920  2.2270 -1.0869
  718TIP3   OH226348   3.386   3.034  18.942  0.2113 -0.1659 -0.2001
  718TIP3    H126349   3.411   2.960  18.997  0.1778 -0.1881 -0.2138
  718TIP3    H226350   3.336   3.092  18.999  0.0816 -0.2424 -0.2353
  719TIP3   OH226351   2.765   5.048  19.327  0.0231 -0.2209  0.2150
  719TIP3    H126352   2.754   5.119  19.264  0.7887 -0.4007 -0.1215
  719TIP3    H226353   2.823   4.985  19.284 -1.0963 -1.3354  0.2771
  720TIP3   OH226354   4.581   0.009  17.484  0.0654 -0.1725 -0.1726
  720TIP3    H126355   4.513  -0.011  17.419 -2.4215 -0.4076  2.2949
  720TIP3    H226356   4.568   0.102  17.503  0.3993 -0.2292  0.3541
  721TIP3   OH226357   3.056   1.717  19.215  0.3081 -0.1038  0.1728
  721TIP3    H126358   3.046   1.710  19.310  0.7722 -0.6055  0.1893
  721TIP3    H226359   3.124   1.653  19.193  0.0816 -0.1180 -0.5205
  722TIP3   OH226360   1.639   5.091  16.718  0.1863  0.1990  0.5348
  722TIP3    H126361   1.551   5.053  16.722  0.2982 -0.2531 -0.8134
  722TIP3    H226362   1.698   5.018  16.736  0.3640 -0.0652 -1.0356
  723TIP3   OH226363   5.114   3.931  20.169  0.0108 -0.3399  0.0477
  723TIP3    H126364   5.164   3.948  20.249  1.8401 -1.0099 -0.9081
  723TIP3    H226365   5.155   3.854  20.131 -0.4442  0.3172 -1.8540
  724TIP3   OH226366   4.249   1.232  18.758 -0.4219 -0.0571 -0.1782
  724TIP3    H126367   4.174   1.291  18.763 -0.2590  0.3031 -1.6055
  724TIP3    H226368   4.225   1.169  18.690  0.2970 -0.3262 -0.1859
  725TIP3   OH226369   4.571   3.809  17.046  0.3342 -0.2673  0.1175
  725TIP3    H126370   4.605   3.898  17.038  1.1627 -0.5313  0.5936
  725TIP3    H226371   4.476   3.819  17.046  0.4163  0.7184  1.1713
  726TIP3   OH226372   5.958   6.288  17.838  0.4896 -0.4003  0.1502
  726TIP3    H126373   6.046   6.307  17.871  0.2343 -0.3591  0.8284
  726TIP3    H226374   5.929   6.369  17.797 -0.0873  0.3064  1.8887
  727TIP3   OH226375   0.051   6.229  16.903  0.3105 -0.1143 -0.0057
  727TIP3    H126376   0.096   6.265  16.826 -0.8888 -2.8976 -2.1844
  727TIP3    H226377   0.059   6.134  16.893 -2.5446 -0.6499  1.6698
  728TIP3   OH226378   1.116   0.074  19.570  0.0702  0.4752  0.1288
  728TIP3    H126379   1.181   0.094  19.502  2.7477 -1.6825  1.8589
  728TIP3    H226380   1.129   0.143  19.635  0.5048  0.1888  0.3545
  729TIP3   OH226381   3.571   5.646  19.673  0.0486 -0.1581 -0.5694
  729TIP3    H126382   3.646   5.619  19.727 -0.0403 -1.2370 -0.9718
  729TIP3    H226383   3.556   5.573  19.614 -0.6025  0.5317 -1.2806
  730TIP3   OH226384   5.971   4.762  16.978 -0.4160  0.1477 -0.2409
  730TIP3    H126385   5.959   4.813  17.059 -0.6520 -0.8722  0.3763
  730TIP3    H226386   5.883   4.751  16.944 -0.3715  0.0818 -0.3332
  731TIP3   OH226387   0.718   4.357  17.752  0.0876 -0.1251 -0.1556
  731TIP3    H126388   0.668   4.351  17.833  0.1283  1.5327  0.0369
  731TIP3    H226389   0.673   4.299  17.691 -0.8836 -0.1838  0.5993
  732TIP3   OH226390   1.112   2.189  18.031  0.2908 -0.1748 -0.4237
  732TIP3    H126391   1.142   2.224  17.947 -0.1698 -1.4184 -1.1215
  732TIP3    H226392   1.017   2.192  18.026  0.1333 -3.3974 -1.3897
  733TIP3   OH226393   5.779   5.483  17.543  0.0898  0.0889 -0.4054
  733TIP3    H126394   5.743   5.407  17.589 -1.4445  0.1151 -1.5098
  733TIP3    H226395   5.703   5.528  17.508  1.0557  1.5664 -0.6714
  734TIP3   OH226396   4.310   2.409  18.169 -0.3876  0.4633 -0.5043
  734TIP3    H126397   4.225   2.450  18.159 -0.3194  0.3091 -1.8123
  734TIP3    H226398   4.373   2.480  18.159 -0.3310  0.4806 -0.0795
  735TIP3   OH226399   0.946   0.474  18.289  0.0868  0.4330  0.0001
  735TIP3    H126400   0.994   0.489  18.370 -0.7290  0.2457  0.5261
  735TIP3    H226401   0.983   0.393  18.254 -0.0373  0.1292  0.5540
  736TIP3   OH226402   2.889   5.133  17.910 -0.7654 -0.1762  0.2559
  736TIP3    H126403   2.823   5.084  17.958 -0.1503 -0.8066  0.4823
  736TIP3    H226404   2.950   5.066  17.878  0.9391  0.5252  1.8538
  737TIP3   OH226405   2.005   4.793  17.739  0.9285  0.2861 -0.4230
  737TIP3    H126406   1.975   4.865  17.684  1.1598  0.1097 -0.7851
  737TIP3    H226407   2.008   4.717  17.680  2.8806  0.4707 -0.6238
  738TIP3   OH226408   0.530   2.404  16.985  0.0661  0.1111  1.0175
  738TIP3    H126409   0.540   2.447  17.071  0.7025 -1.2532  1.6631
  738TIP3    H226410   0.620   2.398  16.952 -0.1498  0.3710  0.3748
  739TIP3   OH226411   0.551   4.148  19.667  0.6200  0.2390 -0.5590
  739TIP3    H126412   0.474   4.092  19.682  1.8109 -1.4941 -0.6646
  739TIP3    H226413   0.523   4.235  19.697 -1.2981 -0.3856 -0.3794
  740TIP3   OH226414   3.035   2.852  19.538  0.2877 -0.0202 -0.2876
  740TIP3    H126415   3.045   2.928  19.480  0.8749 -0.9212 -1.4082
  740TIP3    H226416   3.116   2.849  19.589  0.0999  0.3200  0.0374
  741TIP3   OH226417   0.669   3.392  17.195 -0.8450 -0.4281  0.8108
  741TIP3    H126418   0.751   3.347  17.174 -0.7459 -0.3666  1.0682
  741TIP3    H226419   0.612   3.372  17.121 -0.5387 -0.3182  0.5412
  742TIP3   OH226420   2.510   5.299  19.246  0.6623  0.2017  0.0102
  742TIP3    H126421   2.604   5.310  19.262  1.1044 -1.3699 -1.1958
  742TIP3    H226422   2.471   5.299  19.334  1.7420  1.0944  0.5219
  743TIP3   OH226423   3.648   5.592  20.419 -0.1706 -0.0404  0.0362
  743TIP3    H126424   3.737   5.621  20.399  0.3266 -2.0922 -0.9630
  743TIP3    H226425   3.637   5.611  20.512  0.1788  2.9676 -0.4374
  744TIP3   OH226426   5.373   0.612  19.370 -0.3819  0.3995  0.0632
  744TIP3    H126427   5.454   0.649  19.405  0.8188  0.6356 -2.6699
  744TIP3    H226428   5.369   0.645  19.280 -2.7516 -0.8110 -0.3487
  745TIP3   OH226429   2.133   4.087  18.307  0.2812 -0.6466  0.0513
  745TIP3    H126430   2.051   4.118  18.268  0.4471 -1.5729 -1.0989
  745TIP3    H226431   2.119   4.093  18.401 -1.1951 -0.9755 -0.1256
  746TIP3   OH226432   6.588   0.155  18.039  1.0028 -0.0441  0.3208
  746TIP3    H126433   6.568   0.225  17.977  0.4125 -0.7080 -0.2580
  746TIP3    H226434   6.551   0.185  18.122  2.2192  1.0615  0.4818
  747TIP3   OH226435   3.483   3.461  19.506  0.1660  0.2838  0.0060
  747TIP3    H126436   3.500   3.447  19.599 -0.2832  1.3657  0.2759
  747TIP3    H226437   3.564   3.434  19.462  0.4213 -0.1314  0.7190
  748TIP3   OH226438   2.235   2.952  17.477  0.1886  0.0683  0.0337
  748TIP3    H126439   2.256   2.859  17.476  1.1858  0.2585 -1.9096
  748TIP3    H226440   2.289   2.989  17.406  0.5874  2.2854  1.4029
  749TIP3   OH226441   5.023   6.361  17.812 -0.1964  0.2865  0.3063
  749TIP3    H126442   5.063   6.287  17.858  2.4689  1.4094 -0.0089
  749TIP3    H226443   4.929   6.350  17.827  0.0600 -3.0416  0.3980
  750TIP3   OH226444   3.860   1.035  18.550  0.3804 -0.2985  0.3442
  750TIP3    H126445   3.934   1.073  18.503 -0.7870 -0.1473 -1.4550
  750TIP3    H226446   3.785   1.091  18.528 -0.6650 -1.5674  0.5079
  751TIP3   OH226447   4.228   1.596  18.538 -0.1516 -0.4215  0.2656
  751TIP3    H126448   4.199   1.599  18.629  0.7128  1.8254  0.5222
  751TIP3    H226449   4.149   1.618  18.487 -0.0383  1.0675  0.6813
  752TIP3   OH226450   3.312   1.522  18.202  0.5109  0.1397  0.1216
  752TIP3    H126451   3.329   1.566  18.119  2.1765 -0.4370  0.1102
  752TIP3    H226452   3.261   1.445  18.179  1.0184 -0.0514 -0.3841
  753TIP3   OH226453   5.156   3.709  16.402 -0.7457 -0.3694  0.6328
  753TIP3    H126454   5.163   3.663  16.319 -3.1139 -0.8979  0.6437
  753TIP3    H226455   5.143   3.639  16.467  2.4377 -0.0903  1.7573
  754TIP3   OH226456   4.636   5.649  19.260 -0.0014 -0.2439 -0.0047
  754TIP3    H126457   4.575   5.581  19.288 -1.2747  0.4935 -0.8922
  754TIP3    H226458   4.631   5.716  19.327  0.0879 -0.3301  0.0883
  755TIP3   OH226459   2.337   3.126  16.703 -0.1330 -1.0353 -0.2929
  755TIP3    H126460   2.337   3.190  16.775  0.8232  0.8972 -1.9065
  755TIP3    H226461   2.270   3.159  16.643  1.7312 -0.3568 -2.0960
  756TIP3   OH226462   4.804   1.145  18.283 -0.7484  0.0881  0.4915
  756TIP3    H126463   4.735   1.208  18.263 -1.1101 -0.4298  0.0819
  756TIP3    H226464   4.758   1.063  18.298 -0.2972 -0.0301  1.2478
  757TIP3   OH226465   0.684   5.498  18.949 -0.1584  0.4912  0.1166
  757TIP3    H126466   0.624   5.565  18.984  0.7983  0.4589  1.9550
  757TIP3    H226467   0.738   5.473  19.024  0.3878 -1.4147 -0.8471
  758TIP3   OH226468   6.232   4.060  17.190  0.0330  0.5373 -0.0322
  758TIP3    H126469   6.262   3.997  17.125  0.6848  0.1857  0.5948
  758TIP3    H226470   6.157   4.018  17.232  0.4996  0.1395  0.4233
  759TIP3   OH226471   0.927   5.542  18.845  0.2799  0.1759  0.6975
  759TIP3    H126472   0.979   5.517  18.922 -0.2070 -0.4100  0.8406
  759TIP3    H226473   0.838   5.518  18.868 -0.0637  1.1690  0.4454
  760TIP3   OH226474   5.360   1.835  18.460 -0.3853 -0.0185 -0.0983
  760TIP3    H126475   5.318   1.763  18.507  1.6362 -0.8851  0.5011
  760TIP3    H226476   5.365   1.907  18.523  0.6073 -0.5350  0.4430
  761TIP3   OH226477   0.705   4.248  18.439 -0.1529 -0.4756 -0.2150
  761TIP3    H126478   0.712   4.297  18.520  0.1973 -1.7752  0.5723
  761TIP3    H226479   0.611   4.246  18.420 -0.2416 -0.2028  0.1922
  762TIP3   OH226480   1.563   3.623  20.169 -0.0769  0.0660  0.4188
  762TIP3    H126481   1.473   3.655  20.177 -0.2059 -0.3195  0.5665
  762TIP3    H226482   1.618   3.697  20.194 -0.3126  0.6907 -0.8441
  763TIP3   OH226483   0.253   0.496  18.520 -0.1126 -0.5083 -0.1788
  763TIP3    H126484   0.248   0.430  18.588  0.2650  0.7580  1.1305
  763TIP3    H226485   0.265   0.578  18.567  3.1342  0.1239 -1.7931
  764TIP3   OH226486   4.382   6.118  18.864  0.3897 -0.1330  0.0354
  764TIP3    H126487   4.305   6.081  18.908 -2.0886  2.0191 -2.1285
  764TIP3    H226488   4.452   6.110  18.928 -2.0661 -0.5280  2.9008
  765TIP3   OH226489   1.727   1.544  17.904 -0.1540 -0.9622 -0.1487
  765TIP3    H126490   1.794   1.538  17.972  0.0329 -0.0423 -0.2313
  765TIP3    H226491   1.774   1.581  17.829 -0.7561 -0.2853 -0.2037
  766TIP3   OH226492   2.085   2.570  17.565  0.2234  0.8656 -0.6160
  766TIP3    H126493   2.095   2.483  17.527 -0.8729 -0.7940  2.5837
  766TIP3    H226494   1.990   2.583  17.571  0.3647  1.6117  0.3100
  767TIP3   OH226495   0.800   3.419  17.566 -0.2308  0.2877  0.8130
  767TIP3    H126496   0.725   3.361  17.585 -0.6182  1.0631  1.7533
  767TIP3    H226497   0.875   3.374  17.606 -0.3123 -0.1638  0.4624
  768TIP3   OH226498   1.548   3.460  18.174  0.2331 -0.3901 -0.2522
  768TIP3    H126499   1.642   3.443  18.179  0.5598  1.4084  0.7837
  768TIP3    H226500   1.524   3.488  18.262 -0.9671  0.5251 -0.8319
  769TIP3   OH226501   2.155   4.713  18.170  0.6649  0.0572  0.2058
  769TIP3    H126502   2.189   4.802  18.166  0.8302 -0.0073  0.1981
  769TIP3    H226503   2.075   4.715  18.118  0.1413  0.4476  1.0024
  770TIP3   OH226504   6.248   4.295  18.361  0.4387 -0.4808  0.3028
  770TIP3    H126505   6.169   4.346  18.345 -0.8510 -1.6192  2.5811
  770TIP3    H226506   6.318   4.361  18.363 -0.5998  0.7101 -0.4974
  771TIP3   OH226507   2.510   5.058  19.442 -0.0839  0.0795 -0.0117
  771TIP3    H126508   2.470   5.063  19.356  0.9610 -2.1385 -0.7034
  771TIP3    H226509   2.601   5.033  19.426 -0.1671 -1.6545  1.7050
  772TIP3   OH226510   6.568   6.061  17.462 -0.7568  0.5126 -0.2705
  772TIP3    H126511   6.479   6.047  17.430 -1.0633 -0.8058  1.0790
  772TIP3    H226512   6.565   6.037  17.554  1.3095 -0.9032 -0.5155
  773TIP3   OH226513   5.092   6.172  16.937 -0.2060 -0.2864  0.7255
  773TIP3    H126514   5.008   6.156  16.894  0.3789  0.2896 -0.6686
  773TIP3    H226515   5.152   6.194  16.866  1.4628 -1.9489  1.5373
  774TIP3   OH226516   2.795   4.996  16.887  0.4556  0.2186  0.1641
  774TIP3    H126517   2.743   4.985  16.808 -0.4244 -2.0309  0.9980
  774TIP3    H226518   2.850   5.073  16.868  0.6504 -0.5182 -2.8116
  775TIP3   OH226519   1.143   3.561  19.402  0.2524 -0.0684  0.5063
  775TIP3    H126520   1.175   3.538  19.315 -0.5588  0.7543 -0.0355
  775TIP3    H226521   1.100   3.646  19.390  1.5639  0.8802  2.0402
  776TIP3   OH226522   1.114   0.075  19.874 -0.3384  0.3306  0.0645
  776TIP3    H126523   1.025   0.044  19.857 -0.2627 -0.1173  0.4447
  776TIP3    H226524   1.122   0.074  19.970  0.1208  0.2222  0.0288
  777TIP3   OH226525   6.138   3.175  18.358 -0.1935 -0.2596 -0.7507
  777TIP3    H126526   6.200   3.198  18.289 -0.2955  0.2631 -0.6743
  777TIP3    H226527   6.171   3.093  18.395  0.1968 -0.2186 -1.0119
  778TIP3   OH226528   5.336   5.759  19.648  0.2673 -0.0487 -0.5914
  778TIP3    H126529   5.273   5.715  19.704  1.4766 -0.5308  0.4451
  778TIP3    H226530   5.284   5.820  19.596 -0.9759 -0.0450  0.6115
  779TIP3   OH226531   5.371   2.167  18.860  0.3109 -0.0593  0.4168
  779TIP3    H126532   5.381   2.077  18.829 -0.3214 -0.8551  2.4006
  779TIP3    H226533   5.364   2.159  18.955 -1.7678  1.8993  0.5091
  780TIP3   OH226534   1.844   0.491  17.849  0.4169 -0.3235 -0.6090
  780TIP3    H126535   1.862   0.472  17.757 -2.0045 -1.3562 -0.9357
  780TIP3    H226536   1.868   0.584  17.859  1.5039 -0.4101 -2.0193
  781TIP3   OH226537   1.620   4.794  18.736  0.0867  0.3878 -0.0827
  781TIP3    H126538   1.632   4.888  18.746 -0.8158  0.4124  0.8803
  781TIP3    H226539   1.543   4.785  18.680  0.4470  0.2134 -0.5588
  782TIP3   OH226540   0.841   6.342  17.089  0.4140 -0.0094  0.2183
  782TIP3    H126541   0.911   6.406  17.074 -0.2033  0.3570 -1.2113
  782TIP3    H226542   0.764   6.380  17.046 -0.7457 -0.3071  1.9053
  783TIP3   OH226543   6.151   6.318  19.549  0.5063  0.2532 -0.1037
  783TIP3    H126544   6.096   6.358  19.482 -0.2398 -3.5080 -1.9973
  783TIP3    H226545   6.240   6.321  19.514  0.6842  1.3982  0.4092
  784TIP3   OH226546   0.599   5.874  19.470 -0.8304  1.0888  0.8452
  784TIP3    H126547   0.532   5.850  19.534 -0.1275 -0.2427  1.1197
  784TIP3    H226548   0.598   5.970  19.469 -1.5298  1.1180  2.1129
  785TIP3   OH226549   1.351   3.781  18.345 -0.1655  0.1971  0.3901
  785TIP3    H126550   1.310   3.867  18.356 -0.7771 -0.0656  0.2228
  785TIP3    H226551   1.379   3.780  18.253 -1.1418 -0.1931  0.0866
  786TIP3   OH226552   0.828   5.330  19.861 -0.1862 -0.0177  0.0098
  786TIP3    H126553   0.860   5.403  19.913  1.5300 -0.2658 -0.6274
  786TIP3    H226554   0.877   5.336  19.779  0.2473 -2.0793  0.0757
  787TIP3   OH226555   1.976   5.546  18.116 -0.1347  0.8330  0.1571
  787TIP3    H126556   1.947   5.486  18.186  0.8672  0.0218 -0.1005
  787TIP3    H226557   1.905   5.609  18.108 -1.1975 -0.2836  0.4960
  788TIP3   OH226558   6.437   6.215  18.630  0.4972  0.0116 -0.1641
  788TIP3    H126559   6.497   6.289  18.633  0.9037 -0.1684 -2.0971
  788TIP3    H226560   6.494   6.138  18.627  0.2416 -0.1631 -1.9835
  789TIP3   OH226561   5.182   1.066  19.925  0.4339 -0.2080 -1.0008
  789TIP3    H126562   5.087   1.065  19.913  0.3456 -0.3061 -0.3536
  789TIP3    H226563   5.198   1.002  19.995  1.0580 -0.7664 -1.6373
  790TIP3   OH226564   1.371   6.065  17.901  0.0563  0.3590  0.3303
  790TIP3    H126565   1.346   5.973  17.899 -0.7183  0.5735 -0.0838
  790TIP3    H226566   1.325   6.104  17.827 -2.5166  1.8001  2.5223
  791TIP3   OH226567   1.609   2.122  19.635  0.0816  0.0353 -0.0673
  791TIP3    H126568   1.691   2.172  19.629 -0.5177  1.0558  0.0985
  791TIP3    H226569   1.638   2.033  19.653  1.1906  0.2560 -0.6405
  792TIP3   OH226570   6.167   2.293  18.979 -0.0673 -0.2774  0.2135
  792TIP3    H126571   6.222   2.269  19.054  1.4267 -0.1207 -0.7858
  792TIP3    H226572   6.219   2.269  18.903 -0.9599  0.8256 -0.7802
  793TIP3   OH226573   5.339   0.048  18.917  0.0156 -0.2599 -0.2172
  793TIP3    H126574   5.247   0.036  18.892 -0.7699 -0.4259  2.3576
  793TIP3    H226575   5.348   0.143  18.928 -0.3707 -0.3392  1.0406
  794TIP3   OH226576   0.793   1.601  17.781  1.0633 -0.4075 -0.1459
  794TIP3    H126577   0.858   1.607  17.851 -0.9829 -0.7942  1.8843
  794TIP3    H226578   0.729   1.670  17.801  0.3558 -0.6069 -1.5790
  795TIP3   OH226579   0.182   1.654  16.333  0.2589 -0.2075 -0.0608
  795TIP3    H126580   0.209   1.642  16.242 -2.3971  1.3100 -1.1915
  795TIP3    H226581   0.134   1.574  16.354 -0.8620  0.2540 -0.7627
  796TIP3   OH226582   4.969   0.618  20.154  0.1681  0.1387 -0.3520
  796TIP3    H126583   4.937   0.700  20.193 -1.8697 -0.7533 -0.0053
  796TIP3    H226584   4.915   0.607  20.076  1.4444 -0.1654 -1.2218
  797TIP3   OH226585   6.233   4.576  17.920  0.5157 -0.0350 -0.0304
  797TIP3    H126586   6.287   4.576  17.840 -1.0341  1.9756 -1.1875
  797TIP3    H226587   6.249   4.662  17.959 -0.2865 -0.2066  0.7028
  798TIP3   OH226588   3.099   1.343  18.122 -0.5802  0.3196  0.1514
  798TIP3    H126589   3.039   1.415  18.141 -0.6955  0.3344 -0.2578
  798TIP3    H226590   3.096   1.288  18.200 -0.6221  0.6655  0.3964
  799TIP3   OH226591   6.305   5.859  17.558  0.1735  0.2876  0.0981
  799TIP3    H126592   6.367   5.881  17.629  0.9044  1.1077 -0.7642
  799TIP3    H226593   6.220   5.852  17.602  0.7433 -0.0646  1.1875
  800TIP3   OH226594   2.407   5.282  18.250  0.6154 -0.2819  0.1439
  800TIP3    H126595   2.392   5.255  18.340  1.3283 -0.7066  0.1433
  800TIP3    H226596   2.356   5.363  18.240 -0.8641 -1.1418  0.4065
  801TIP3   OH226597   4.552   3.447  20.046  0.0508 -0.8779 -0.2488
  801TIP3    H126598   4.530   3.377  20.108  0.8218 -1.1747 -0.2996
  801TIP3    H226599   4.532   3.410  19.960 -0.6009 -0.6232 -0.2171
  802TIP3   OH226600   5.127   3.229  18.451  0.5229  0.3765 -0.2055
  802TIP3    H126601   5.074   3.202  18.526  1.1835  0.6090  0.3569
  802TIP3    H226602   5.215   3.197  18.470  0.6067  0.0352 -1.1038
  803TIP3   OH226603   3.888   5.399  19.125 -0.5444 -0.0996 -0.2724
  803TIP3    H126604   3.913   5.424  19.214 -0.0405 -1.8173  0.1076
  803TIP3    H226605   3.794   5.383  19.131 -0.2996 -1.4234  0.2799
  804TIP3   OH226606   2.477   5.169  19.954 -0.2831 -0.3955  0.1535
  804TIP3    H126607   2.442   5.170  19.864 -0.6078  3.0709  0.1948
  804TIP3    H226608   2.408   5.209  20.007  1.1457  0.5499  1.3735
  805TIP3   OH226609   3.396   0.789  17.712  0.0578  0.0866 -0.2949
  805TIP3    H126610   3.331   0.774  17.643 -0.0009 -1.0497 -0.0020
  805TIP3    H226611   3.477   0.754  17.676 -0.3636 -2.3637  0.9270
  806TIP3   OH226612   1.241   0.330  20.075 -0.5770  0.3950  0.0786
  806TIP3    H126613   1.285   0.320  19.990  1.3648 -1.4757  1.1891
  806TIP3    H226614   1.272   0.414  20.108 -0.9701  0.9132 -0.8138
  807TIP3   OH226615   6.443   5.049  17.478  0.0336 -0.2133 -0.0441
  807TIP3    H126616   6.532   5.080  17.462  0.1328 -0.4000  0.1411
  807TIP3    H226617   6.416   5.092  17.559 -0.3438  0.4664 -0.5161
  808TIP3   OH226618   1.418   0.113  18.555 -0.0911  0.3708 -0.1802
  808TIP3    H126619   1.499   0.092  18.602  0.0075  0.3658 -0.3529
  808TIP3    H226620   1.447   0.142  18.469 -0.3151 -0.6334 -0.6141
  809TIP3   OH226621   4.374   2.908  18.098  0.6349  0.5286  1.0515
  809TIP3    H126622   4.301   2.873  18.046  0.7360 -1.5924  2.2044
  809TIP3    H226623   4.393   2.993  18.059 -0.9505  0.1382 -0.7326
  810TIP3   OH226624   4.449   2.631  19.712  0.4832  0.7345 -0.2075
  810TIP3    H126625   4.530   2.652  19.666  1.2739 -0.5165  0.5552
  810TIP3    H226626   4.463   2.665  19.801  0.1865  0.4686 -0.0562
  811TIP3   OH226627   4.267   0.808  19.903 -0.1238  0.0830  0.1007
  811TIP3    H126628   4.318   0.864  19.845 -0.7196  1.0770  0.5068
  811TIP3    H226629   4.285   0.841  19.991  1.5500 -2.0345  0.6268
  812TIP3   OH226630   0.020   2.432  16.797 -0.7870  0.3368  0.1649
  812TIP3    H126631  -0.025   2.398  16.720  1.6887  1.1306 -1.7717
  812TIP3    H226632   0.076   2.360  16.826  1.5770  1.3579 -1.5832
  813TIP3   OH226633   5.224   4.936  18.489 -0.6747  0.2439  0.1780
  813TIP3    H126634   5.281   4.984  18.549  0.8152  2.1894 -2.5799
  813TIP3    H226635   5.278   4.864  18.456 -1.0396 -0.0192  0.1420
  814TIP3   OH226636   3.571   3.423  17.024  0.2689  0.4320  0.0798
  814TIP3    H126637   3.607   3.505  16.991 -0.2873  0.2846 -0.9372
  814TIP3    H226638   3.479   3.426  16.997  0.5104 -1.0412 -0.9900
  815TIP3   OH226639   4.325   1.133  17.456  0.0532 -0.0367 -0.1200
  815TIP3    H126640   4.301   1.107  17.545  1.1560  1.9137  0.7881
  815TIP3    H226641   4.420   1.132  17.455  0.2186  3.5593 -0.0452
  816TIP3   OH226642   0.197   3.225  20.319  0.0338  0.2592 -0.2916
  816TIP3    H126643   0.202   3.316  20.290 -1.7452  1.1251  1.7784
  816TIP3    H226644   0.206   3.230  20.414  0.2809 -1.7844 -0.1700
  817TIP3   OH226645   2.840   5.085  16.555  0.0447 -0.4359  0.1399
  817TIP3    H126646   2.831   5.152  16.488  0.9275  1.9087  2.2068
  817TIP3    H226647   2.751   5.055  16.572 -0.4678  0.7419 -0.3644
  818TIP3   OH226648   2.291   1.667  18.183 -0.1808 -0.0037 -0.3908
  818TIP3    H126649   2.250   1.748  18.211 -0.5944 -0.4020  0.1733
  818TIP3    H226650   2.330   1.630  18.263 -0.7426 -0.7837 -0.4643
  819TIP3   OH226651   5.601   4.732  19.485  0.2114 -0.0854  0.3791
  819TIP3    H126652   5.588   4.675  19.561 -0.1428 -0.3434  0.1301
  819TIP3    H226653   5.522   4.787  19.482  0.2588 -0.0243  0.2458
  820TIP3   OH226654   5.896   0.253  19.823  0.4318 -0.5626 -0.5045
  820TIP3    H126655   5.862   0.342  19.814 -1.5014 -1.3029 -0.9421
  820TIP3    H226656   5.991   0.264  19.824  0.3226  1.3039 -2.7356
  821TIP3   OH226657   2.196   3.176  17.035 -0.3128 -0.0572  0.0006
  821TIP3    H126658   2.265   3.176  17.101  0.5461  0.2796 -0.8648
  821TIP3    H226659   2.226   3.239  16.970 -0.7826 -0.8963 -1.0642
  822TIP3   OH226660   4.679   4.516  18.139 -0.1114  0.0855  0.4604
  822TIP3    H126661   4.734   4.545  18.066  1.1959 -0.8843  1.0153
  822TIP3    H226662   4.657   4.425  18.118  0.1832 -0.1646  1.2015
  823TIP3   OH226663   6.212   5.618  17.793 -0.1926  0.3475 -0.2937
  823TIP3    H126664   6.171   5.593  17.711  0.8067  0.2791 -0.7879
  823TIP3    H226665   6.301   5.645  17.768  0.5854 -0.9645  0.9134
  824TIP3   OH226666   3.422   3.757  18.177  0.4369  0.5018 -0.4728
  824TIP3    H126667   3.443   3.663  18.175  0.6073  0.4192  1.9019
  824TIP3    H226668   3.497   3.797  18.220 -1.1446  1.1557  1.8846
  825TIP3   OH226669   6.367   3.593  17.314 -0.2872  0.1927  0.2092
  825TIP3    H126670   6.382   3.498  17.311  2.0049  0.4815 -3.2197
  825TIP3    H226671   6.447   3.629  17.351 -0.5535  0.8498  0.1590
  826TIP3   OH226672   2.183   1.901  17.965 -0.1580 -0.3902 -0.5650
  826TIP3    H126673   2.123   1.828  17.981 -1.6918  0.2807 -2.8159
  826TIP3    H226674   2.126   1.977  17.951  1.3654  1.1047  0.8183
  827TIP3   OH226675   4.541   4.060  19.945 -0.2453 -0.2728 -0.1839
  827TIP3    H126676   4.451   4.072  19.974 -0.4181  0.7306 -1.1013
  827TIP3    H226677   4.538   4.066  19.849  0.5633 -1.8397 -0.3462
  828TIP3   OH226678   6.511   4.345  17.229  0.0686 -0.2182  0.1050
  828TIP3    H126679   6.472   4.406  17.292 -2.5350 -1.4446 -0.1942
  828TIP3    H226680   6.497   4.259  17.268  2.4318 -0.7850 -0.1415
  829TIP3   OH226681   3.910   1.841  17.615 -0.6106  0.3193 -0.6282
  829TIP3    H126682   3.940   1.912  17.558 -0.6613  0.4713 -0.4698
  829TIP3    H226683   3.834   1.878  17.660 -0.7565  0.0945 -0.6929
  830TIP3   OH226684   4.079   1.750  18.124  0.4419  0.5522 -0.0174
  830TIP3    H126685   4.171   1.756  18.098  1.2023 -2.9888  1.2850
  830TIP3    H226686   4.030   1.755  18.042  1.9387  0.2638 -0.9669
  831TIP3   OH226687   4.783   0.163  19.306 -0.0954  0.0980 -0.3720
  831TIP3    H126688   4.818   0.159  19.217  1.6628 -0.9725  0.3080
  831TIP3    H226689   4.790   0.256  19.330  2.6810 -0.0750 -0.1877
  832TIP3   OH226690   0.394   1.876  19.462 -0.2687  0.5318 -0.3234
  832TIP3    H126691   0.460   1.906  19.400  1.4854  0.4296  1.3939
  832TIP3    H226692   0.428   1.793  19.495 -2.1697 -0.4564 -0.6944
  833TIP3   OH226693   5.882   1.482  18.529 -0.7249  0.3934  0.1690
  833TIP3    H126694   5.895   1.405  18.474 -1.4919  0.5151 -0.1930
  833TIP3    H226695   5.807   1.527  18.491 -1.3548  0.4140  1.3820
  834TIP3   OH226696   1.554   4.771  18.390  0.1357  0.0331 -0.5160
  834TIP3    H126697   1.627   4.715  18.416  1.3430 -0.2427 -3.9826
  834TIP3    H226698   1.507   4.719  18.325 -0.6485  1.7880 -1.4095
  835TIP3   OH226699   5.010   3.344  19.771  0.4810  0.3627  0.3012
  835TIP3    H126700   4.980   3.283  19.703  0.5727  0.4541  0.1778
  835TIP3    H226701   4.993   3.299  19.853 -1.4770  1.0302  0.3207
  836TIP3   OH226702   2.676   4.308  20.116  0.4440  0.1560 -0.6735
  836TIP3    H126703   2.714   4.307  20.203  1.8106  1.3841 -1.2184
  836TIP3    H226704   2.590   4.350  20.128 -0.5734 -2.0896  0.4599
  837TIP3   OH226705   1.708   3.616  19.234  0.1171  0.9083 -0.2065
  837TIP3    H126706   1.718   3.607  19.139  1.4145  0.5312 -0.0536
  837TIP3    H226707   1.642   3.550  19.257  0.5810  0.2392 -0.7245
  838TIP3   OH226708   3.649   1.611  19.206  0.1980 -0.3959 -0.2451
  838TIP3    H126709   3.711   1.539  19.200  0.6197 -0.1571  0.9825
  838TIP3    H226710   3.687   1.680  19.152  0.7686 -0.4239  0.1118
  839TIP3   OH226711   4.346   6.104  20.179 -0.0823  0.2532 -0.3145
  839TIP3    H126712   4.340   6.167  20.107 -1.9572  1.6784  0.9956
  839TIP3    H226713   4.438   6.077  20.179  0.3300  1.4548 -2.2026
  840TIP3   OH226714   5.761   0.735  20.270  0.4418  0.3416 -0.0480
  840TIP3    H126715   5.735   0.666  20.209  2.2978 -0.5437  0.0929
  840TIP3    H226716   5.686   0.743  20.330 -0.6432 -0.0772 -1.3129
  841TIP3   OH226717   6.240   5.570  18.347  0.0773  0.7545 -0.2027
  841TIP3    H126718   6.212   5.651  18.389  0.9675  0.2673  1.4494
  841TIP3    H226719   6.260   5.594  18.257 -1.6311  1.9289 -0.3145
  842TIP3   OH226720   4.971   5.984  17.489 -0.6420 -0.0231  0.8401
  842TIP3    H126721   4.970   5.971  17.584 -0.1484 -1.1578  0.7073
  842TIP3    H226722   4.940   5.901  17.453  1.2703 -0.4068 -0.0359
  843TIP3   OH226723   6.034   4.369  17.312  0.0742 -0.1668  0.0564
  843TIP3    H126724   5.967   4.324  17.363 -1.0751  2.2771  0.8730
  843TIP3    H226725   6.116   4.325  17.335 -1.1270 -2.9160 -0.5943
  844TIP3   OH226726   4.160   6.017  18.990  0.2077  0.2369  0.4349
  844TIP3    H126727   4.107   6.095  18.975 -0.4324  0.2071  2.2653
  844TIP3    H226728   4.132   5.986  19.077  1.7406 -0.9781  0.5292
  845TIP3   OH226729   2.515   1.260  17.596 -0.4796 -0.8967  0.4868
  845TIP3    H126730   2.608   1.258  17.618  0.2408  1.1049 -1.9333
  845TIP3    H226731   2.470   1.257  17.681  1.8298 -0.4303  1.8022
  846TIP3   OH226732   1.140   0.359  19.670  0.3984  0.0484  0.0013
  846TIP3    H126733   1.108   0.367  19.580  1.4297 -1.5430 -0.5544
  846TIP3    H226734   1.231   0.390  19.665 -0.8797  4.9122  1.6262
  847TIP3   OH226735   6.099   5.987  18.476 -0.3044 -0.4310 -0.1837
  847TIP3    H126736   6.158   5.937  18.532 -1.3728  0.4361  1.7910
  847TIP3    H226737   6.157   6.041  18.422  0.7319 -0.6748  0.6568
  848TIP3   OH226738   6.470   6.258  18.033  0.3434 -0.0821 -0.3704
  848TIP3    H126739   6.538   6.325  18.040  0.0396  0.2685 -0.7645
  848TIP3    H226740   6.388   6.306  18.030  0.1817 -0.3792 -1.8938
  849TIP3   OH226741   3.720   0.913  20.072  0.2351 -0.3021 -0.3143
  849TIP3    H126742   3.740   0.997  20.113 -1.1089 -0.8291  1.5028
  849TIP3    H226743   3.805   0.867  20.069  0.9722  1.0464 -1.2957
  850TIP3   OH226744   6.509   1.741  17.867  0.0027  0.2381  0.1934
  850TIP3    H126745   6.426   1.724  17.912 -0.0492 -1.6335 -0.5424
  850TIP3    H226746   6.516   1.672  17.802  1.3342  1.3835 -0.9341
  851TIP3   OH226747   2.934   0.990  19.513 -0.1169  0.0194 -0.1731
  851TIP3    H126748   2.943   0.895  19.504 -1.4155 -0.0383 -1.0506
  851TIP3    H226749   2.932   1.005  19.608 -1.4460 -1.0019 -0.0188
  852TIP3   OH226750   3.660   0.233  17.199 -0.3805 -0.4900 -0.1225
  852TIP3    H126751   3.638   0.326  17.197  1.6511  0.0407  0.2404
  852TIP3    H226752   3.684   0.212  17.109  0.5412 -0.2802  0.0641
  853TIP3   OH226753   5.446   5.050  19.569 -0.2041 -0.0315 -0.4127
  853TIP3    H126754   5.432   5.103  19.647  0.2118  1.0469 -1.0475
  853TIP3    H226755   5.383   5.083  19.505  0.6691  0.3198 -1.1082
  854TIP3   OH226756   0.988   4.851  20.065  0.3725 -0.1716 -0.2655
  854TIP3    H126757   1.000   4.785  19.997 -0.2283  0.8441 -1.3756
  854TIP3    H226758   1.032   4.814  20.142  1.0804 -1.3311 -1.1970
  855TIP3   OH226759   5.683   3.864  16.958 -0.3511 -0.2079 -0.1034
  855TIP3    H126760   5.702   3.775  16.928  0.1032 -0.5688  1.1965
  855TIP3    H226761   5.627   3.901  16.889  0.5170 -1.0429 -1.2882
  856TIP3   OH226762   1.485   3.976  19.473  0.0561  0.6525 -0.4570
  856TIP3    H126763   1.401   3.984  19.517  0.1175 -0.1299 -0.1904
  856TIP3    H226764   1.472   3.905  19.409  0.5186  0.5101 -0.3951
  857TIP3   OH226765   4.252   4.685  18.763 -0.1641 -0.1117  0.2690
  857TIP3    H126766   4.304   4.751  18.716 -0.0071  2.0523  3.2112
  857TIP3    H226767   4.223   4.730  18.842 -2.2723 -2.8647  1.1897
  858TIP3   OH226768   4.011   1.880  19.198 -0.2617 -0.0683  0.4345
  858TIP3    H126769   3.996   1.809  19.260  2.9764 -1.2124  0.0823
  858TIP3    H226770   4.022   1.957  19.254 -2.2188 -0.0522  0.8956
  859TIP3   OH226771   3.143   4.978  17.927  0.0504 -0.3735  0.5429
  859TIP3    H126772   3.141   4.919  17.851 -0.6684  0.4896 -0.1310
  859TIP3    H226773   3.157   4.920  18.002 -0.1214 -1.3490 -0.1610
  860TIP3   OH226774   4.260   0.435  16.698 -0.2071 -0.3414 -0.0692
  860TIP3    H126775   4.249   0.415  16.605 -2.0721 -1.1645  0.2812
  860TIP3    H226776   4.173   0.462  16.728  0.3545 -0.0835  1.4303
  861TIP3   OH226777   5.116   6.086  18.756  0.1817 -0.3000 -0.2188
  861TIP3    H126778   5.055   6.013  18.747 -0.1947  0.2095 -2.3073
  861TIP3    H226779   5.061   6.164  18.758  0.7130  0.1217 -1.4515
  862TIP3   OH226780   1.444   6.429  19.651  0.4023 -0.0953 -0.2105
  862TIP3    H126781   1.370   6.464  19.600  0.8396  2.0343  0.4899
  862TIP3    H226782   1.465   6.500  19.712  2.8564 -0.7593 -0.2110
  863TIP3   OH226783   1.491   0.201  19.956  0.1595 -0.4093 -0.0649
  863TIP3    H126784   1.509   0.213  20.049  0.3517 -0.8610 -0.0427
  863TIP3    H226785   1.577   0.209  19.914  0.1200 -0.5291 -0.1683
  864TIP3   OH226786   6.119   1.837  17.766  0.3356  0.0825  0.3307
  864TIP3    H126787   6.067   1.843  17.686 -2.3651 -0.8835  1.8678
  864TIP3    H226788   6.073   1.893  17.829  1.4058 -0.4786  1.6711
  865TIP3   OH226789   1.746   3.818  19.435  0.5791  0.4225  0.4542
  865TIP3    H126790   1.777   3.745  19.382  0.6680 -0.4644  1.6654
  865TIP3    H226791   1.798   3.893  19.406  2.2747 -0.5364  0.8533
  866TIP3   OH226792   4.649   4.105  17.070 -0.7004 -0.1521  0.7949
  866TIP3    H126793   4.708   4.178  17.089 -0.8495  0.6609 -1.4945
  866TIP3    H226794   4.566   4.129  17.112 -0.6365  0.8533  0.3774
  867TIP3   OH226795   2.959   6.483  19.866 -0.0645  0.1068  0.0523
  867TIP3    H126796   2.925   6.424  19.799 -1.2770 -0.2838  0.9963
  867TIP3    H226797   2.972   6.429  19.943 -1.5145  1.1058  1.0389
  868TIP3   OH226798   0.377   4.099  17.804 -0.3168  0.1701  0.1557
  868TIP3    H126799   0.312   4.170  17.809  0.1058  0.6059 -0.4368
  868TIP3    H226800   0.442   4.130  17.741  0.5564 -0.1969  0.8535
  869TIP3   OH226801   0.510   4.113  17.086  0.2408  0.2818  0.7956
  869TIP3    H126802   0.581   4.059  17.054  0.2640  0.0021  1.3153
  869TIP3    H226803   0.518   4.111  17.181 -1.1656 -0.7169  0.9216
  870TIP3   OH226804   4.679   1.143  20.202  0.5916 -0.0075  0.0686
  870TIP3    H126805   4.642   1.158  20.289  0.4239  0.9252 -0.1534
  870TIP3    H226806   4.672   1.228  20.158 -2.5890 -1.2162 -2.1284
  871TIP3   OH226807   3.158   4.921  18.830 -0.5439 -0.1765 -0.0405
  871TIP3    H126808   3.238   4.871  18.814 -1.3619 -2.1263  1.5429
  871TIP3    H226809   3.098   4.893  18.761 -1.4952 -2.6379  1.6825
  872TIP3   OH226810   4.718   6.063  17.017 -0.0998  0.6513 -0.0166
  872TIP3    H126811   4.625   6.051  17.037 -0.6446 -0.2769 -2.6714
  872TIP3    H226812   4.762   5.993  17.063 -0.8314  0.5391  0.5332
  873TIP3   OH226813   4.607   6.672  19.419 -0.1987  0.1280  0.2236
  873TIP3    H126814   4.658   6.735  19.368  0.0943 -0.1136  0.2104
  873TIP3    H226815   4.563   6.618  19.353 -1.3247  0.9953  0.2294
  874TIP3   OH226816   6.553   4.208  20.036 -0.5333 -0.0561  0.1831
  874TIP3    H126817   6.612   4.276  20.005  1.1844 -1.6008 -0.1574
  874TIP3    H226818   6.611   4.137  20.065 -2.2264 -1.6699 -0.1462
  875TIP3   OH226819   3.112   1.035  17.065 -0.3437  0.3381  0.1602
  875TIP3    H126820   3.035   0.980  17.056  0.0379 -0.0228 -1.1463
  875TIP3    H226821   3.185   0.981  17.033  0.1923  1.2327 -0.1838
  876TIP3   OH226822   1.115   2.631  17.023 -0.4072  0.2931 -0.2178
  876TIP3    H126823   1.182   2.689  16.987  0.7951 -0.2936  0.9683
  876TIP3    H226824   1.111   2.558  16.961  0.8525 -0.1799  0.2230
  877TIP3   OH226825   2.089   4.549  18.404  0.0465  0.1376 -0.1195
  877TIP3    H126826   2.047   4.477  18.358 -1.4549  1.5308 -1.0655
  877TIP3    H226827   2.084   4.622  18.342  1.9186  0.9528  0.6224
  878TIP3   OH226828   5.651   4.408  19.965  0.5159  0.3898  0.0623
  878TIP3    H126829   5.678   4.389  19.875 -0.8633  0.1269 -0.3085
  878TIP3    H226830   5.600   4.332  19.991  1.5207  0.1188  1.3596
  879TIP3   OH226831   0.591   4.139  17.638 -0.3861 -0.5395  0.1187
  879TIP3    H126832   0.593   4.139  17.542 -0.2460  0.8360  0.1027
  879TIP3    H226833   0.627   4.054  17.662  0.1255 -0.6804 -1.0482
  880TIP3   OH226834   1.395   3.367  17.969  0.0782  0.6258 -0.2458
  880TIP3    H126835   1.432   3.425  18.035  1.2314  1.6461 -1.7202
  880TIP3    H226836   1.403   3.279  18.008 -1.5482  1.3489  1.9439
  881TIP3   OH226837   5.924   3.693  16.851  0.6945 -0.3233  0.3719
  881TIP3    H126838   5.847   3.710  16.797  2.3025  0.2180 -1.9336
  881TIP3    H226839   5.892   3.641  16.924 -1.9415  0.4445 -0.1326
  882TIP3   OH226840   5.103   5.419  16.989  0.1911  0.3363 -0.2302
  882TIP3    H126841   5.191   5.388  16.967  0.4024  0.6074  0.2193
  882TIP3    H226842   5.044   5.355  16.949  0.5768  0.4904 -1.0698
  883TIP3   OH226843   0.376   5.739  18.071 -0.2218 -0.1852  0.1739
  883TIP3    H126844   0.342   5.692  18.146  0.9679  0.2849  1.0426
  883TIP3    H226845   0.461   5.698  18.053  0.4644  1.0610  0.4414
  884TIP3   OH226846   2.082   3.865  19.064  0.2229 -0.4058 -0.1438
  884TIP3    H126847   2.069   3.810  19.142 -0.4733  0.2732  0.2301
  884TIP3    H226848   2.172   3.846  19.036 -0.2562 -2.3377 -0.5030
  885TIP3   OH226849   5.523   1.026  18.374  0.4292 -0.1690  0.2807
  885TIP3    H126850   5.518   1.101  18.315  1.6534  0.1892  0.6223
  885TIP3    H226851   5.595   1.046  18.434  0.4706 -1.4006  0.6761
  886TIP3   OH226852   1.039   5.396  19.339  0.0306 -0.7800 -0.1900
  886TIP3    H126853   0.955   5.432  19.367  0.1188 -1.2599  0.7142
  886TIP3    H226854   1.100   5.470  19.345  0.4772 -1.2752  2.8319
  887TIP3   OH226855   3.477   3.148  19.901  0.0714  0.2171  0.1654
  887TIP3    H126856   3.489   3.066  19.853 -1.2040 -1.2479  2.1877
  887TIP3    H226857   3.385   3.171  19.887  0.1163  0.6681  0.5825
  888TIP3   OH226858   4.231   5.726  19.239 -0.5299  0.1356 -0.2126
  888TIP3    H126859   4.154   5.773  19.270  0.8615  1.5471  1.3329
  888TIP3    H226860   4.248   5.660  19.306  0.2624  0.6280  0.0888
  889TIP3   OH226861   0.095   3.421  19.198 -0.1313 -0.0698  0.2485
  889TIP3    H126862   0.060   3.496  19.151  0.3187  0.5436  0.8623
  889TIP3    H226863   0.190   3.431  19.191 -0.0380 -1.5409 -1.1337
  890TIP3   OH226864   1.042   0.939  18.680 -0.2803 -0.3303 -0.3928
  890TIP3    H126865   1.097   0.949  18.758  0.5941 -1.3139 -0.8626
  890TIP3    H226866   0.972   0.881  18.708 -0.0170 -0.6094 -0.3026
  891TIP3   OH226867   4.175   6.155  17.003 -0.0945  0.4291  0.0327
  891TIP3    H126868   4.102   6.094  16.990 -0.5983  1.0112  0.0580
  891TIP3    H226869   4.201   6.182  16.915  0.6831 -0.4426 -0.0215
  892TIP3   OH226870   1.731   3.206  19.957  0.0675  0.0855  0.5842
  892TIP3    H126871   1.659   3.244  19.907  0.3844 -0.0255  0.0367
  892TIP3    H226872   1.717   3.237  20.047 -0.8080 -0.1437  0.5381
  893TIP3   OH226873   3.173   2.426  19.838  0.0701 -0.3481 -0.4510
  893TIP3    H126874   3.159   2.451  19.929  0.2660  1.6263 -0.9261
  893TIP3    H226875   3.197   2.333  19.842  0.5135 -0.1815  1.5401
  894TIP3   OH226876   6.260   4.724  18.592  0.0188  0.8134 -0.3083
  894TIP3    H126877   6.307   4.730  18.675  1.5656  0.2933 -1.1122
  894TIP3    H226878   6.191   4.791  18.598 -0.4917  0.1702  1.7391
  895TIP3   OH226879   4.684   2.878  18.582  0.0208 -0.4049  0.4294
  895TIP3    H126880   4.639   2.905  18.502 -0.0498 -1.1650  0.2020
  895TIP3    H226881   4.685   2.782  18.578  2.5603 -0.4274 -0.0947
  896TIP3   OH226882   5.366   5.578  19.386 -0.5380  0.3158 -0.3788
  896TIP3    H126883   5.285   5.609  19.347 -0.5186 -0.5395 -1.1396
  896TIP3    H226884   5.378   5.631  19.464 -1.6621  0.6600 -0.4355
  897TIP3   OH226885   2.603   6.572  17.479 -0.0340 -0.4040 -0.3747
  897TIP3    H126886   2.679   6.585  17.535 -1.2186 -1.6310  1.6455
  897TIP3    H226887   2.553   6.654  17.486  0.6478  0.0834 -1.0401
  898TIP3   OH226888   2.479   1.644  18.393 -0.0670  0.0152  0.6197
  898TIP3    H126889   2.541   1.598  18.337 -0.4660  0.6699 -0.3878
  898TIP3    H226890   2.462   1.584  18.466  2.3274  0.1078  1.3445
  899TIP3   OH226891   0.270   1.216  17.895 -0.5523 -0.3058 -0.5462
  899TIP3    H126892   0.233   1.137  17.857 -0.2817 -0.0865 -1.2812
  899TIP3    H226893   0.211   1.286  17.868 -0.0468 -0.0679 -1.0624
  900TIP3   OH226894   3.842   1.011  19.813  0.2112  0.0012  0.1736
  900TIP3    H126895   3.772   1.041  19.872 -0.8752 -0.8807 -0.6125
  900TIP3    H226896   3.895   0.952  19.867  0.3289  0.6413  0.7685
  901TIP3   OH226897   1.756   2.597  18.007  0.0438  0.2541  0.7584
  901TIP3    H126898   1.752   2.674  17.949  2.9393 -0.2277 -0.2567
  901TIP3    H226899   1.805   2.532  17.957 -0.8700 -1.6860  2.2518
  902TIP3   OH226900   1.008   2.938  17.243  0.2691 -0.0993  0.2074
  902TIP3    H126901   0.993   2.996  17.318 -0.6078  0.7076 -0.5571
  902TIP3    H226902   1.063   2.989  17.184  0.3195 -0.4239 -0.0285
  903TIP3   OH226903   1.764   5.280  16.837 -0.0130 -0.6593 -0.0009
  903TIP3    H126904   1.755   5.335  16.759  1.2508 -0.6400 -0.1529
  903TIP3    H226905   1.716   5.200  16.815  0.7644 -0.8624 -1.0217
  904TIP3   OH226906   0.201   3.457  18.341 -0.1943 -0.4539  0.3833
  904TIP3    H126907   0.121   3.466  18.392  0.6913  0.7609  1.6534
  904TIP3    H226908   0.246   3.382  18.381 -0.3690 -0.6849  0.1441
  905TIP3   OH226909   3.410   0.215  19.471  0.1364  0.2528  0.6585
  905TIP3    H126910   3.441   0.135  19.514  1.1740 -0.1932 -0.8170
  905TIP3    H226911   3.342   0.185  19.411 -0.9576  0.8030  1.5768
  906TIP3   OH226912   6.383   3.996  18.692  1.0217  0.6345 -0.1785
  906TIP3    H126913   6.417   3.913  18.658 -0.0578 -0.3353  1.0268
  906TIP3    H226914   6.461   4.045  18.718  1.6003 -1.1054  1.5787
  907TIP3   OH226915   4.221   5.337  19.292 -0.6326 -0.0662  0.2319
  907TIP3    H126916   4.182   5.331  19.379  0.7411  0.3756  0.9022
  907TIP3    H226917   4.176   5.270  19.241 -1.0349 -0.7458  1.4426
  908TIP3   OH226918   4.136   2.111  19.302 -0.0782 -0.0442  0.0582
  908TIP3    H126919   4.205   2.169  19.335 -0.0610  0.9344 -1.5715
  908TIP3    H226920   4.136   2.127  19.207  0.0209 -2.8142 -0.4908
  909TIP3   OH226921   5.757   2.703  17.905 -0.1793 -0.1376 -0.1696
  909TIP3    H126922   5.685   2.765  17.891  1.8957  2.0844 -1.8924
  909TIP3    H226923   5.715   2.617  17.903 -2.8089  1.0541 -0.8515
  910TIP3   OH226924   1.659   1.581  17.550  0.1727 -0.0712  0.0218
  910TIP3    H126925   1.653   1.640  17.625 -2.5303 -0.0370 -0.1051
  910TIP3    H226926   1.572   1.540  17.545  0.0868  0.2379 -3.3076
  911TIP3   OH226927   5.883   2.519  19.107  0.5030  1.0044 -0.7454
  911TIP3    H126928   5.948   2.483  19.167 -0.7719  1.1395  0.7863
  911TIP3    H226929   5.813   2.454  19.104  0.0784  1.4669 -1.2633
  912TIP3   OH226930   6.213   4.226  18.623 -0.4988 -0.3756  0.2938
  912TIP3    H126931   6.232   4.238  18.530 -1.8910 -1.8058 -0.2233
  912TIP3    H226932   6.291   4.181  18.657  0.1072  0.3366 -0.1166
  913TIP3   OH226933   5.454   5.053  17.147 -0.2462 -0.0217  0.3553
  913TIP3    H126934   5.533   5.099  17.118  0.0748 -1.5279 -1.3343
  913TIP3    H226935   5.383   5.100  17.103 -0.0810 -0.0897  0.0114
  914TIP3   OH226936   4.934   2.653  16.977  0.2569  0.1316 -0.3269
  914TIP3    H126937   4.902   2.736  16.943 -1.1788 -1.3044 -2.7473
  914TIP3    H226938   4.914   2.589  16.909 -0.2432 -2.5239  2.1056
  915TIP3   OH226939   6.382   2.222  16.357 -0.0499 -0.2455  0.3638
  915TIP3    H126940   6.287   2.231  16.365 -0.1796 -1.0408 -0.1401
  915TIP3    H226941   6.399   2.130  16.378  0.4233 -0.4955 -1.0075
  916TIP3   OH226942   3.224   2.468  18.913 -0.3620 -0.1741 -0.4142
  916TIP3    H126943   3.130   2.466  18.931 -0.5091  0.7831 -1.0059
  916TIP3    H226944   3.234   2.536  18.846  0.6548 -0.8430 -0.9603
  917TIP3   OH226945   4.511   2.394  18.414 -0.1657 -0.0421 -0.4656
  917TIP3    H126946   4.444   2.431  18.357  0.6420  0.4875 -1.0853
  917TIP3    H226947   4.572   2.350  18.355 -0.1360 -0.8275  0.1219
  918TIP3   OH226948   6.143   0.209  18.328  0.3283 -0.1071  0.1156
  918TIP3    H126949   6.119   0.213  18.421 -1.4768 -1.4228 -0.2229
  918TIP3    H226950   6.236   0.231  18.326 -0.2378  3.0084  1.8589
  919TIP3   OH226951   6.272   0.524  17.495 -0.2144  0.9441  0.3151
  919TIP3    H126952   6.247   0.546  17.584 -4.3546 -1.4812  0.0049
  919TIP3    H226953   6.305   0.434  17.500 -0.7700  0.6659 -0.5604
  920TIP3   OH226954   6.463   0.890  20.298 -0.1487 -0.3568  0.1003
  920TIP3    H126955   6.376   0.931  20.299 -0.4631 -1.0177  0.9898
  920TIP3    H226956   6.523   0.961  20.274 -0.9304  0.1110 -0.5069
  921TIP3   OH226957   6.622   3.024  19.557 -0.1786  0.2987  0.0652
  921TIP3    H126958   6.618   2.971  19.477 -1.1812 -1.0627  0.9705
  921TIP3    H226959   6.614   2.960  19.628 -0.7693  1.6074  1.2175
  922TIP3   OH226960   3.551   5.472  20.171 -0.4498  0.1400  0.3521
  922TIP3    H126961   3.612   5.516  20.112 -1.0348 -0.2751 -0.5913
  922TIP3    H226962   3.588   5.486  20.258  1.2876 -0.5311 -0.2145
  923TIP3   OH226963   0.692   1.306  17.493  0.2296 -0.4565 -0.2990
  923TIP3    H126964   0.664   1.310  17.401 -0.2322  0.4110 -0.1243
  923TIP3    H226965   0.753   1.379  17.503  0.1980 -0.4844  0.1184
  924TIP3   OH226966   2.164   2.038  18.672  0.0267  0.1469  0.1375
  924TIP3    H126967   2.255   2.042  18.702  0.2576 -2.7758  0.1360
  924TIP3    H226968   2.163   2.090  18.591  1.3857  1.1925  0.7528
  925TIP3   OH226969   5.008   4.091  18.021  0.6689 -0.2349 -0.0918
  925TIP3    H126970   4.960   4.040  17.957  0.6295  0.7384 -0.8554
  925TIP3    H226971   5.013   4.034  18.098  0.3639 -1.2545 -0.8081
  926TIP3   OH226972   4.721   2.414  17.983  0.1538  0.4661 -0.4472
  926TIP3    H126973   4.742   2.490  18.037  0.2040 -0.4581  0.8835
  926TIP3    H226974   4.677   2.353  18.043  0.6952 -0.8245 -1.3126
  927TIP3   OH226975   1.205   0.776  18.504 -0.1886 -0.3976 -0.3726
  927TIP3    H126976   1.243   0.800  18.588  0.7833  0.5586 -1.0524
  927TIP3    H226977   1.158   0.855  18.475  0.2060 -0.4257 -1.1080
  928TIP3   OH226978   1.190   0.618  20.179  0.2583  0.3637 -0.7718
  928TIP3    H126979   1.157   0.649  20.264  0.1172 -1.9515  0.0751
  928TIP3    H226980   1.144   0.673  20.115 -0.7046  1.2345  0.5942
  929TIP3   OH226981   2.838   5.087  18.637 -0.5362 -0.2102 -0.5830
  929TIP3    H126982   2.908   5.036  18.596  0.7016  1.7293 -0.9895
  929TIP3    H226983   2.882   5.138  18.705 -1.7049  0.4216 -0.2689
  930TIP3   OH226984   3.443   0.297  17.769  0.3947  0.5467 -0.6691
  930TIP3    H126985   3.350   0.308  17.752 -0.0609 -3.6505 -1.9929
  930TIP3    H226986   3.486   0.325  17.688  0.3357  2.3986 -0.0897
  931TIP3   OH226987   0.405   5.431  17.357  0.0730 -0.4279 -0.4567
  931TIP3    H126988   0.491   5.411  17.320 -0.1158 -0.6331 -0.7943
  931TIP3    H226989   0.409   5.524  17.379  0.6699 -0.6272  0.3319
  932TIP3   OH226990   6.348   0.803  18.468 -0.3247 -0.0673  0.0761
  932TIP3    H126991   6.420   0.769  18.416 -0.2908 -1.5262  1.0261
  932TIP3    H226992   6.269   0.783  18.418 -0.1352  0.7998 -0.5818
  933TIP3   OH226993   4.019   0.104  18.558 -0.3128 -0.0647 -1.0518
  933TIP3    H126994   3.927   0.126  18.572 -0.5032 -1.6327  0.5428
  933TIP3    H226995   4.022   0.009  18.559  1.4277 -0.0566 -0.0710
  934TIP3   OH226996   6.098   1.188  20.301  0.2123  0.4178 -0.4144
  934TIP3    H126997   6.184   1.231  20.295  0.8866 -0.6541  0.9922
  934TIP3    H226998   6.119   1.096  20.314 -1.1667  0.2105  0.4167
  935TIP3   OH226999   4.466   2.625  18.193 -0.2583  0.1067 -0.2222
  935TIP3    H127000   4.435   2.712  18.219 -0.4458 -0.2408  0.7649
  935TIP3    H227001   4.560   2.627  18.212 -0.4392 -0.2326  0.7846
  936TIP3   OH227002   4.554   6.317  18.243 -0.4212 -0.6696 -0.1099
  936TIP3    H127003   4.486   6.276  18.189  1.0641 -1.6372 -1.3236
  936TIP3    H227004   4.564   6.405  18.206 -1.5300 -0.2344  0.5805
  937TIP3   OH227005   3.492   0.591  19.784 -0.4006  0.2020  0.6467
  937TIP3    H127006   3.563   0.529  19.799  0.8764  1.7379  1.2040
  937TIP3    H227007   3.440   0.588  19.863 -1.0673 -1.0219  0.1875
  938TIP3   OH227008   5.720   5.604  18.694 -0.6580 -0.1836  0.1789
  938TIP3    H127009   5.666   5.653  18.757 -0.7924 -0.2748  0.1354
  938TIP3    H227010   5.719   5.658  18.615 -0.7246 -0.2084  0.1631
  939TIP3   OH227011   2.625   3.265  17.353  0.2356  0.0016 -0.1807
  939TIP3    H127012   2.716   3.237  17.364  0.1803 -0.1400 -0.0783
  939TIP3    H227013   2.593   3.214  17.279  0.0811 -0.3414  0.1206
  940TIP3   OH227014   3.411   2.798  16.735 -0.2578 -0.3043  0.2840
  940TIP3    H127015   3.454   2.873  16.695  0.9011 -1.5543 -0.8983
  940TIP3    H227016   3.467   2.723  16.713 -0.3858 -1.2864  2.9804
  941TIP3   OH227017   6.204   1.505  18.274 -0.2850 -0.0258  0.2738
  941TIP3    H127018   6.296   1.516  18.251 -0.2050 -0.2557  0.4839
  941TIP3    H227019   6.206   1.469  18.363 -0.5736 -0.3005  0.1672
  942TIP3   OH227020   0.914   4.904  18.294  0.6573  0.3625 -0.6290
  942TIP3    H127021   0.943   4.822  18.333  2.3987  0.2903 -1.9730
  942TIP3    H227022   0.854   4.942  18.359  0.6608 -1.4332  0.4736
  943TIP3   OH227023   3.573   6.169  16.902 -0.4491  0.1222  0.1653
  943TIP3    H127024   3.629   6.162  16.980 -0.5799 -1.9138  0.1195
  943TIP3    H227025   3.602   6.250  16.860  3.6913 -1.5212 -0.7223
  944TIP3   OH227026   6.193   3.982  18.035 -0.2864  0.4012  0.0539
  944TIP3    H127027   6.106   3.955  18.064 -2.1505  3.7074 -1.8288
  944TIP3    H227028   6.230   3.905  17.991 -3.3678 -0.4269 -1.3119
  945TIP3   OH227029   4.282   2.326  19.394  0.3397 -0.2850 -0.1756
  945TIP3    H127030   4.238   2.404  19.359 -2.1909 -1.6968 -0.3504
  945TIP3    H227031   4.315   2.354  19.479 -1.3767  0.7690  0.2006
  946TIP3   OH227032   1.610   3.088  17.344 -0.0513  0.3253 -0.0153
  946TIP3    H127033   1.613   3.000  17.381 -2.4669 -0.3176 -1.1150
  946TIP3    H227034   1.584   3.144  17.418 -0.1433 -0.1513  0.3207
  947TIP3   OH227035   3.131   2.126  17.809  0.1538 -0.0130  0.3255
  947TIP3    H127036   3.165   2.041  17.837 -0.1412 -0.3712 -0.3703
  947TIP3    H227037   3.038   2.111  17.792  0.0460  0.5097  0.4266
  948TIP3   OH227038   1.991   6.338  17.296 -0.5369 -0.3825  0.3352
  948TIP3    H127039   1.926   6.376  17.237  1.6719  0.3874 -1.7458
  948TIP3    H227040   1.998   6.247  17.270 -0.5154 -0.3766  0.3207
  949TIP3   OH227041   5.849   2.435  18.473 -0.6962 -0.2404 -0.2837
  949TIP3    H127042   5.896   2.356  18.446 -1.2872  0.2882 -3.1161
  949TIP3    H227043   5.915   2.504  18.472 -0.1183 -0.6474  2.4576
  950TIP3   OH227044   5.254   3.709  20.016  0.0973  0.4873 -0.0640
  950TIP3    H127045   5.282   3.767  19.945 -2.1403  0.9713 -0.6577
  950TIP3    H227046   5.181   3.659  19.978  0.3581 -0.9222  1.2108
  951TIP3   OH227047   1.594   2.413  18.499 -0.0179  0.4129 -0.3279
  951TIP3    H127048   1.543   2.362  18.435  0.0829 -0.3263  0.1723
  951TIP3    H227049   1.533   2.479  18.530  0.5249  2.1960 -2.7425
  952TIP3   OH227050   2.257   2.583  18.588 -0.1786 -0.1928  0.2169
  952TIP3    H127051   2.302   2.499  18.598 -0.6289 -0.7656 -1.9743
  952TIP3    H227052   2.165   2.558  18.575 -0.2714  0.6232 -0.7215
  953TIP3   OH227053   2.315   1.890  17.726 -0.7196  0.4084 -0.0362
  953TIP3    H127054   2.264   1.861  17.651 -0.4662  0.3437 -0.1825
  953TIP3    H227055   2.251   1.899  17.797 -0.6396 -1.6741  0.3619
  954TIP3   OH227056   6.130   0.653  19.912  0.0241  0.2808  0.0949
  954TIP3    H127057   6.151   0.739  19.949 -0.7882  0.0265  1.2124
  954TIP3    H227058   6.203   0.597  19.938  0.8291  0.7290 -1.1047
  955TIP3   OH227059   2.392   4.387  18.050 -0.3713  0.0683  0.0919
  955TIP3    H127060   2.333   4.445  18.001  0.8357  0.9324 -0.3889
  955TIP3    H227061   2.413   4.436  18.130 -1.1317 -0.6937  0.7800
  956TIP3   OH227062   6.143   0.683  19.621  0.0622  0.1469 -0.5694
  956TIP3    H127063   6.132   0.665  19.715  1.6044 -0.0314 -0.3971
  956TIP3    H227064   6.118   0.602  19.577  0.0232 -0.0089 -0.2614
  957TIP3   OH227065   0.809   1.563  18.608  0.0415 -0.1075 -0.3890
  957TIP3    H127066   0.719   1.565  18.574 -0.6978  0.0826  1.4807
  957TIP3    H227067   0.839   1.473  18.591  0.2062  0.2970 -2.6312
  958TIP3   OH227068   0.528   4.958  17.952 -0.3749  0.1850  0.4641
  958TIP3    H127069   0.434   4.961  17.935 -0.4820 -2.0186  0.3280
  958TIP3    H227070   0.567   4.996  17.873 -1.1132 -1.9661 -1.0411
  959TIP3   OH227071   4.407   6.135  18.091 -0.2957  0.2513  0.5778
  959TIP3    H127072   4.396   6.074  18.018 -0.3948 -0.2915  1.0447
  959TIP3    H227073   4.318   6.156  18.119 -0.2550  0.3220  0.6530
  960TIP3   OH227074   4.591   6.586  18.120 -0.2856  0.0517 -0.0531
  960TIP3    H127075   4.686   6.593  18.109 -0.1878 -0.2376  0.5796
  960TIP3    H227076   4.556   6.601  18.032  0.1896  2.6996  0.1081
  961TIP3   OH227077   5.878   5.201  16.211  0.6194 -0.1332 -0.4659
  961TIP3    H127078   5.863   5.259  16.136  0.0962 -0.0275 -0.2845
  961TIP3    H227079   5.914   5.259  16.279  0.4141 -0.0865 -0.3963
  962TIP3   OH227080   1.923   5.382  18.958  0.0776 -0.2375  0.6098
  962TIP3    H127081   1.876   5.364  18.877 -0.0395 -0.7753  0.7870
  962TIP3    H227082   1.958   5.470  18.948 -0.8042  0.0966  0.3891
  963TIP3   OH227083   1.391   1.495  19.576 -0.0076  0.1387  0.3852
  963TIP3    H127084   1.383   1.528  19.486  1.1909 -1.8489 -0.5390
  963TIP3    H227085   1.353   1.563  19.631  0.7441  2.1655 -1.4867
  964TIP3   OH227086   2.780   2.014  19.785 -0.2251  0.4779  0.1437
  964TIP3    H127087   2.802   2.014  19.878 -1.3505  1.2844  0.4272
  964TIP3    H227088   2.864   2.029  19.741  0.0210  2.2963  1.1423
  965TIP3   OH227089   3.617   4.591  19.313  0.1230  0.2909  0.3018
  965TIP3    H127090   3.527   4.619  19.329  0.3868  0.2620  2.0024
  965TIP3    H227091   3.613   4.548  19.227 -1.1553  1.6255 -0.3607
  966TIP3   OH227092   4.850   1.286  17.174 -0.2098 -0.6347 -0.2016
  966TIP3    H127093   4.793   1.212  17.150 -0.4064 -1.5352  2.6165
  966TIP3    H227094   4.938   1.256  17.155 -0.2261 -1.9917  1.5693
  967TIP3   OH227095   3.000   2.934  19.847  0.2615 -0.6839  0.0026
  967TIP3    H127096   2.934   2.965  19.784 -0.6068 -0.9560  0.7513
  967TIP3    H227097   2.948   2.895  19.917  1.2433 -1.0034  0.5562
  968TIP3   OH227098   5.638   3.857  18.330  0.1258  0.2287  0.2882
  968TIP3    H127099   5.659   3.764  18.336  0.5541  0.2855 -0.2012
  968TIP3    H227100   5.589   3.876  18.410 -0.4649 -0.5396  0.1197
  969TIP3   OH227101   5.749   5.675  16.890 -0.0505  0.5676  0.1050
  969TIP3    H127102   5.795   5.617  16.829  0.1899 -0.8075  1.5407
  969TIP3    H227103   5.786   5.655  16.976 -2.1300  0.6229  1.0912
  970TIP3   OH227104   5.629   0.004  19.446 -0.0384  0.3832  0.3860
  970TIP3    H127105   5.583  -0.074  19.479  0.8602  0.4237  1.8031
  970TIP3    H227106   5.594   0.016  19.358 -1.1978 -0.8197  0.6413
  971TIP3   OH227107   3.210   3.583  19.663  0.2773 -0.1717  0.5139
  971TIP3    H127108   3.138   3.529  19.695 -0.8640  1.3771  0.6703
  971TIP3    H227109   3.288   3.549  19.707 -0.6153 -0.8180  1.6238
  972TIP3   OH227110   6.272   0.547  18.111  0.1343  0.3049 -0.2008
  972TIP3    H127111   6.182   0.520  18.093 -0.0366  0.8922 -0.2499
  972TIP3    H227112   6.264   0.639  18.138  0.4129 -0.3946  2.4915
  973TIP3   OH227113   6.173   1.467  18.789 -0.0120  0.0781  0.8076
  973TIP3    H127114   6.085   1.503  18.800 -0.9496 -0.8245 -2.5149
  973TIP3    H227115   6.187   1.414  18.868 -2.4234  0.3029  1.4690
  974TIP3   OH227116   4.812   2.213  18.706  0.6710  0.0137 -0.9653
  974TIP3    H127117   4.804   2.133  18.759  2.1126  2.3677  3.2410
  974TIP3    H227118   4.722   2.234  18.681 -0.2070 -0.8474  1.2849
  975TIP3   OH227119   5.991   4.389  19.609  0.9936 -0.1304 -0.6480
  975TIP3    H127120   5.907   4.422  19.641  0.6542 -1.8138  0.3680
  975TIP3    H227121   6.009   4.440  19.531  0.0615  1.6957  0.2614
  976TIP3   OH227122   3.968   3.069  20.066  0.1295  0.0073 -0.1278
  976TIP3    H127123   4.016   3.150  20.085 -0.2000 -0.1218  1.3645
  976TIP3    H227124   3.878   3.087  20.094 -0.0305 -0.7583 -0.1307
  977TIP3   OH227125   3.453   5.787  17.955  0.1512  0.4297 -0.0586
  977TIP3    H127126   3.457   5.819  18.045 -0.0454 -0.2348  0.1899
  977TIP3    H227127   3.372   5.736  17.951  0.3717  0.1058 -0.4917
  978TIP3   OH227128   6.182   2.782  19.197  0.2370  0.6953 -0.5149
  978TIP3    H127129   6.154   2.748  19.282 -1.0703 -0.9852 -1.5591
  978TIP3    H227130   6.266   2.825  19.215  0.8358 -1.1060  1.3344
  979TIP3   OH227131   2.645   5.203  18.099 -0.3802  0.0806  0.0873
  979TIP3    H127132   2.726   5.243  18.131 -0.2016  0.0014 -0.2550
  979TIP3    H227133   2.585   5.206  18.173  0.3109 -0.9123  0.7079
  980TIP3   OH227134   5.079   1.170  18.505  0.0961  0.0522  0.0922
  980TIP3    H127135   5.034   1.089  18.529  0.6689 -0.2408  0.1705
  980TIP3    H227136   5.021   1.240  18.537  0.0142 -0.3269  0.7749
  981TIP3   OH227137   4.283   1.865  18.425 -0.1483  0.0983  0.1581
  981TIP3    H127138   4.328   1.858  18.340  2.1126 -2.0865  1.3921
  981TIP3    H227139   4.250   1.776  18.441 -0.7807  0.5438  1.4179
  982TIP3   OH227140   4.799   5.844  17.148 -0.1165  0.1248  0.2309
  982TIP3    H127141   4.846   5.761  17.140  1.2077  0.8517  0.0883
  982TIP3    H227142   4.814   5.872  17.238 -0.4295  0.2809  0.2357
  983TIP3   OH227143   3.682   6.577  16.876  0.7412 -0.4751  0.2049
  983TIP3    H127144   3.608   6.567  16.816 -0.9211 -0.4214  2.1326
  983TIP3    H227145   3.674   6.666  16.910  0.8231 -0.9425  1.4987
  984TIP3   OH227146   2.435   3.833  19.485 -0.1148  0.2401  0.3132
  984TIP3    H127147   2.404   3.753  19.443  0.5470  0.8923 -1.4815
  984TIP3    H227148   2.490   3.803  19.557  1.3563 -0.9661 -1.2391
  985TIP3   OH227149   5.279   0.078  20.047 -0.1622 -0.0386  0.7374
  985TIP3    H127150   5.358   0.025  20.037  0.3174  0.9430 -1.0983
  985TIP3    H227151   5.243   0.051  20.131  0.8535 -2.1926  0.5604
  986TIP3   OH227152   3.772   3.521  18.202  0.7546  0.6559  0.5032
  986TIP3    H127153   3.853   3.560  18.171  0.8695 -0.0735 -0.1333
  986TIP3    H227154   3.777   3.430  18.175 -0.8018  0.8528 -0.6261
  987TIP3   OH227155   5.441   5.606  18.632  0.2281 -0.3604  0.2912
  987TIP3    H127156   5.421   5.519  18.667 -0.5651  0.0730  0.9368
  987TIP3    H227157   5.518   5.592  18.577 -0.3641 -1.6265 -0.2683
  988TIP3   OH227158   2.869   2.788  18.504  0.2707  0.0810  0.1095
  988TIP3    H127159   2.851   2.855  18.570  3.4609  1.3465 -0.1149
  988TIP3    H227160   2.820   2.815  18.427  0.0238  1.0927  0.6080
  989TIP3   OH227161   3.780   2.194  17.608  0.2011 -0.1831  0.7936
  989TIP3    H127162   3.812   2.264  17.666 -0.6158 -0.8876  2.1530
  989TIP3    H227163   3.692   2.223  17.582  1.0789  0.7928 -1.2972
  990TIP3   OH227164   1.366   6.533  16.930  0.1938  0.4585  0.5391
  990TIP3    H127165   1.373   6.621  16.894 -1.9958 -0.4497 -2.5602
  990TIP3    H227166   1.275   6.527  16.961  0.9597 -0.0452  2.8227
  991TIP3   OH227167   4.233   0.193  17.601  0.0067  0.1675  0.6972
  991TIP3    H127168   4.254   0.128  17.533 -2.2864 -0.9234  0.9047
  991TIP3    H227169   4.317   0.228  17.628  1.1719 -1.1242 -1.0084
  992TIP3   OH227170   1.033   6.441  18.083  0.2369 -0.5266  0.5368
  992TIP3    H127171   0.957   6.384  18.073 -1.2625  0.7771  3.3214
  992TIP3    H227172   0.999   6.529  18.072  1.7654  0.0289  0.0003
  993TIP3   OH227173   0.917   4.144  17.041  0.3300  0.5844  0.1912
  993TIP3    H127174   0.920   4.219  16.982  1.3510  1.5276  1.3899
  993TIP3    H227175   0.988   4.087  17.010  1.4890  1.5256  1.0521
  994TIP3   OH227176   3.928   6.658  17.452 -0.6262  0.3269 -0.0651
  994TIP3    H127177   3.937   6.731  17.391 -1.6868  0.6777  0.1793
  994TIP3    H227178   3.834   6.641  17.455 -0.5078 -0.2304  0.8421
  995TIP3   OH227179   3.781   5.781  16.997  0.1086 -0.1338 -0.1976
  995TIP3    H127180   3.854   5.733  17.037  0.8638  0.9213 -0.2666
  995TIP3    H227181   3.767   5.738  16.913 -0.5716 -1.4967  0.5865
  996TIP3   OH227182   5.188   2.954  17.836 -0.2711 -0.8235 -0.0717
  996TIP3    H127183   5.272   2.994  17.814  0.2985 -1.9530 -0.0046
  996TIP3    H227184   5.196   2.863  17.807 -1.6783 -0.8098 -0.5675
  997TIP3   OH227185   0.121   0.773  17.013  0.1010 -0.2983  0.4833
  997TIP3    H127186   0.061   0.730  16.951 -0.8242  0.8822  0.5236
  997TIP3    H227187   0.199   0.791  16.961 -0.2788 -0.2218 -0.0724
  998TIP3   OH227188   5.561   0.824  20.503 -0.6043  0.4875 -0.4486
  998TIP3    H127189   5.496   0.865  20.446  0.0347  2.0903 -0.0780
  998TIP3    H227190   5.510   0.783  20.573 -1.3158 -0.2650 -1.3847
  999TIP3   OH227191   0.336   3.906  17.419 -0.0735  0.0815 -0.1913
  999TIP3    H127192   0.420   3.890  17.376  0.4908  1.6497  0.2538
  999TIP3    H227193   0.289   3.823  17.412  0.7962 -0.3021 -2.0133
 1000TIP3   OH227194   3.929   0.369  19.508  0.5124  0.1498 -0.4465
 1000TIP3    H127195   4.005   0.380  19.565  0.4170 -1.0605 -0.0665
 1000TIP3    H227196   3.929   0.448  19.453  1.9373  0.2600 -0.3351
 1001TIP3   OH227197   5.142   0.802  17.800 -0.1934 -0.2743 -0.2072
 1001TIP3    H127198   5.177   0.723  17.758  0.8709  0.5401 -0.8886
 1001TIP3    H227199   5.074   0.769  17.859 -0.0671 -1.6600 -0.7970
 1002TIP3   OH227200   4.195   0.727  16.634 -0.0319 -0.0910 -0.7695
 1002TIP3    H127201   4.224   0.810  16.672  0.6264 -1.0215  0.8528
 1002TIP3    H227202   4.276   0.682  16.611 -0.3619  0.8744 -4.5098
 1003TIP3   OH227203   0.401   1.526  19.360  0.2410  0.7796  0.3252
 1003TIP3    H127204   0.357   1.483  19.433 -0.2245  1.5319  0.4987
 1003TIP3    H227205   0.378   1.472  19.284 -0.1760  0.6109  0.5636
 1004TIP3   OH227206   1.707   0.703  18.780 -0.3787  0.5455 -0.1262
 1004TIP3    H127207   1.684   0.741  18.695 -1.7841 -0.8260 -0.3983
 1004TIP3    H227208   1.656   0.622  18.785  2.0250 -1.0351  0.6712
 1005TIP3   OH227209   6.550   1.734  19.944 -0.2763  0.3032 -0.2281
 1005TIP3    H127210   6.519   1.666  19.884 -1.3592  1.8843 -1.5530
 1005TIP3    H227211   6.505   1.716  20.026  0.4766 -1.3219 -0.1261
 1006TIP3   OH227212   0.066   5.238  18.835  0.0265 -0.1867 -0.2422
 1006TIP3    H127213   0.094   5.243  18.744  0.5702  1.6093 -0.0333
 1006TIP3    H227214   0.144   5.208  18.882  0.0998  0.0023 -0.2408
 1007TIP3   OH227215   1.206   6.548  16.441  0.4844 -0.6349  0.2068
 1007TIP3    H127216   1.140   6.582  16.502  0.6681 -2.0315  1.2528
 1007TIP3    H227217   1.225   6.621  16.382 -0.6599  0.3605  1.0216
 1008TIP3   OH227218   6.595   2.155  18.270 -0.5491 -0.2278 -0.4349
 1008TIP3    H127219   6.572   2.096  18.198 -1.3338  0.2553 -0.5974
 1008TIP3    H227220   6.686   2.180  18.254 -1.0768  0.8663 -1.9787
 1009TIP3   OH227221   1.829   4.340  19.197  0.0044 -0.0656 -0.3057
 1009TIP3    H127222   1.791   4.279  19.259 -0.2109 -0.3150 -0.6815
 1009TIP3    H227223   1.921   4.347  19.224  0.1919 -1.0465 -0.6369
 1010TIP3   OH227224   0.032   1.177  18.675 -0.0859 -0.2620 -0.1724
 1010TIP3    H127225   0.093   1.174  18.601 -0.2208 -0.6522 -0.2702
 1010TIP3    H227226  -0.018   1.095  18.669  0.4163 -0.6623  0.7884
 1011TIP3   OH227227   6.226   3.872  19.611 -0.1733 -0.2775  0.1623
 1011TIP3    H127228   6.146   3.875  19.559 -1.0517 -1.1238  1.4082
 1011TIP3    H227229   6.210   3.935  19.682 -0.0427 -0.9509  0.8050
 1012TIP3   OH227230   5.221   4.749  20.317 -0.2858 -0.0379 -0.3259
 1012TIP3    H127231   5.245   4.806  20.244 -1.8107 -0.3825 -1.1335
 1012TIP3    H227232   5.273   4.670  20.305  1.7894  1.0963  0.7599
 1013TIP3   OH227233   3.877   6.640  19.838  0.5381  0.1690  0.3068
 1013TIP3    H127234   3.947   6.677  19.892  0.6869  0.2565  0.0608
 1013TIP3    H227235   3.889   6.545  19.845  0.1942  0.1689  0.8888
 1014TIP3   OH227236   5.471   4.202  20.039 -0.0639 -0.0824 -0.1782
 1014TIP3    H127237   5.497   4.120  20.081 -0.7895 -0.4358 -0.4133
 1014TIP3    H227238   5.429   4.175  19.958  1.3194  0.5882 -1.1701
 1015TIP3   OH227239   3.774   0.913  19.373  0.0847  0.4938  0.6778
 1015TIP3    H127240   3.747   0.980  19.435 -1.6741 -0.2969  0.8273
 1015TIP3    H227241   3.714   0.923  19.299  1.1602  0.4305 -0.2415
 1016TIP3   OH227242   1.923   1.649  19.706 -0.4902  0.5816  0.0131
 1016TIP3    H127243   1.834   1.628  19.734 -0.1847 -2.0670 -0.6574
 1016TIP3    H227244   1.978   1.623  19.780 -0.1794  0.8162 -0.1346
 1017TIP3   OH227245   3.682   1.269  17.571  0.0752  0.2842 -0.3123
 1017TIP3    H127246   3.638   1.202  17.518 -1.3714  0.8239  0.1410
 1017TIP3    H227247   3.774   1.263  17.546 -0.1165 -1.4314 -0.7491
 1018TIP3   OH227248   0.754   4.635  17.801  0.3716 -0.1152 -0.0207
 1018TIP3    H127249   0.751   4.540  17.791 -2.1402 -0.2107  0.9581
 1018TIP3    H227250   0.846   4.654  17.821  0.6964 -2.4976  1.0758
 1019TIP3   OH227251   3.646   0.067  19.359  0.5186 -0.1602  0.0018
 1019TIP3    H127252   3.719   0.105  19.311  0.2823  2.4702  1.5402
 1019TIP3    H227253   3.681   0.048  19.446 -0.4371  0.4930  0.5509
 1020TIP3   OH227254   2.027   5.945  17.734  0.3678 -0.3253 -0.0229
 1020TIP3    H127255   2.055   5.912  17.649  1.2871 -2.4540  1.0247
 1020TIP3    H227256   1.947   5.896  17.754  1.3600 -1.5079  1.2524
 1021TIP3   OH227257   4.386   1.807  18.750 -0.5827  0.1158 -0.2461
 1021TIP3    H127258   4.356   1.898  18.755 -0.3384  0.1837  0.0192
 1021TIP3    H227259   4.395   1.790  18.657  1.4348  1.0526 -0.2869
 1022TIP3   OH227260   3.325   1.504  16.803 -0.2586  0.3209  0.9565
 1022TIP3    H127261   3.325   1.457  16.719  1.0183 -1.0031  1.6399
 1022TIP3    H227262   3.308   1.595  16.780  0.3531  0.0300 -0.7913
 1023TIP3   OH227263   1.231   5.309  17.615  0.8019 -0.1526  0.5212
 1023TIP3    H127264   1.205   5.232  17.566  0.8991  0.8158 -1.1127
 1023TIP3    H227265   1.151   5.339  17.658  0.1761  0.2973 -0.9253
 1024TIP3   OH227266   5.839   4.144  19.165  0.2804  0.2514 -0.1038
 1024TIP3    H127267   5.779   4.134  19.239 -0.5555 -0.5578 -0.8669
 1024TIP3    H227268   5.876   4.057  19.152  0.8520  0.5187 -0.2894
 1025TIP3   OH227269   5.530   0.027  18.383  0.1872 -0.4272 -0.4701
 1025TIP3    H127270   5.509   0.043  18.475  1.3497 -3.3371  0.4471
 1025TIP3    H227271   5.455   0.060  18.335 -0.3628  1.3788  1.4800
 1026TIP3   OH227272   5.414   5.943  20.040  0.4127  0.0514 -0.1549
 1026TIP3    H127273   5.480   5.972  19.978  0.5322  0.0383 -0.0342
 1026TIP3    H227274   5.460   5.938  20.124 -0.3127  2.4353  0.4539
 1027TIP3   OH227275   0.369   3.398  19.194 -0.1962  0.3761  0.0574
 1027TIP3    H127276   0.426   3.441  19.258 -0.7326  1.0705  0.0817
 1027TIP3    H227277   0.376   3.305  19.214  0.4290  0.5086  0.4694
 1028TIP3   OH227278   3.764   0.230  18.543  0.1663  0.3695 -0.3475
 1028TIP3    H127279   3.769   0.297  18.475 -3.1132 -0.0103 -1.1030
 1028TIP3    H227280   3.745   0.278  18.623 -1.9900  0.4316 -0.8526
 1029TIP3   OH227281   2.127   6.323  17.025  0.0095  0.7349 -0.4609
 1029TIP3    H127282   2.100   6.331  17.117  1.9735 -0.6799  0.3236
 1029TIP3    H227283   2.097   6.236  16.999  0.1973  0.7988 -0.8885
 1030TIP3   OH227284   2.274   5.145  17.329 -0.8494 -0.0624 -0.1388
 1030TIP3    H127285   2.246   5.203  17.399 -0.6970  0.2161 -0.3093
 1030TIP3    H227286   2.344   5.092  17.368 -0.8702 -0.0141 -0.0363
 1031TIP3   OH227287   1.442   1.158  20.076 -0.3298 -0.2295 -0.2466
 1031TIP3    H127288   1.443   1.078  20.024 -1.5923 -2.4002  2.7691
 1031TIP3    H227289   1.352   1.163  20.110 -0.0283  2.0171  0.3596
 1032TIP3   OH227290   4.960   0.657  17.996  0.0700  0.2019  0.5666
 1032TIP3    H127291   4.986   0.622  18.081  0.3140  0.7796  0.7281
 1032TIP3    H227292   4.934   0.579  17.946 -1.6762 -0.0155  1.7101
 1033TIP3   OH227293   3.786   2.701  19.424  0.1167  0.0362  0.1961
 1033TIP3    H127294   3.809   2.793  19.409  0.0721 -0.1474 -1.1107
 1033TIP3    H227295   3.697   2.693  19.390  0.4841 -0.7109 -0.6184
 1034TIP3   OH227296   4.585   4.279  17.366  0.0618 -0.4140 -0.2705
 1034TIP3    H127297   4.520   4.248  17.304 -1.3540  0.5965  0.6570
 1034TIP3    H227298   4.655   4.315  17.311 -0.7142 -0.4199 -1.2868
 1035TIP3   OH227299   0.302   5.207  19.230  0.2382  0.4636 -0.0104
 1035TIP3    H127300   0.271   5.298  19.236  1.0847  0.7108  0.7278
 1035TIP3    H227301   0.265   5.164  19.307 -0.7930 -0.0333 -0.7527
 1036TIP3   OH227302   4.610   0.966  16.690 -0.3912 -0.4764  0.3648
 1036TIP3    H127303   4.669   0.948  16.617 -1.1837  1.8256 -0.9344
 1036TIP3    H227304   4.665   1.009  16.756 -0.2214 -0.1139 -0.0126
 1037TIP3   OH227305   6.306   1.687  19.266 -0.0905 -0.0954  0.4841
 1037TIP3    H127306   6.293   1.653  19.355 -1.4014 -1.0629 -0.0368
 1037TIP3    H227307   6.220   1.676  19.224  0.3026  1.0615 -0.6733
 1038TIP3   OH227308   4.659   1.599  18.559  0.1827 -0.3265  0.1437
 1038TIP3    H127309   4.697   1.588  18.646  0.6832  0.9753  0.1169
 1038TIP3    H227310   4.679   1.690  18.536 -0.7291 -0.3861 -0.9526
 1039TIP3   OH227311   1.651   2.877  19.447  0.3073  0.0611  0.1249
 1039TIP3    H127312   1.624   2.856  19.537  0.4201  1.3016  0.4635
 1039TIP3    H227313   1.686   2.794  19.413 -4.5140 -2.0168 -0.6589
 1040TIP3   OH227314   2.224   1.985  19.547 -0.7592 -0.3572  0.1711
 1040TIP3    H127315   2.202   1.946  19.462 -1.4446  0.2536  0.0563
 1040TIP3    H227316   2.279   1.920  19.590 -1.9276 -1.4746  0.0155
 1041TIP3   OH227317   3.651   0.021  17.964 -0.4440  0.0601 -0.4765
 1041TIP3    H127318   3.746   0.031  17.962 -0.2771 -0.8453  0.9707
 1041TIP3    H227319   3.628  -0.016  17.879  0.4698  0.4429 -0.9013
 1042TIP3   OH227320   5.119   5.229  20.171  0.2612  0.2000  0.9709
 1042TIP3    H127321   5.096   5.223  20.078  2.5713  1.3932  0.2382
 1042TIP3    H227322   5.123   5.138  20.200 -0.8995 -0.1793  0.0262
 1043TIP3   OH227323   1.678   1.826  18.038 -0.6391  0.0581 -0.7549
 1043TIP3    H127324   1.588   1.815  18.070 -1.2776 -0.2281 -2.5014
 1043TIP3    H227325   1.678   1.783  17.952  1.0622  0.4168 -0.9699
 1044TIP3   OH227326   6.321   1.451  17.904 -0.3287  0.3958 -0.1570
 1044TIP3    H127327   6.404   1.472  17.861 -0.0647 -1.0784 -0.4229
 1044TIP3    H227328   6.289   1.535  17.936  0.9293  1.0946 -0.6454
 1045TIP3   OH227329   4.849   3.811  18.599  0.3736  0.2041  0.6603
 1045TIP3    H127330   4.839   3.811  18.503 -0.5596 -1.7314  0.7164
 1045TIP3    H227331   4.761   3.828  18.632  0.3041 -1.0053  1.1554
 1046TIP3   OH227332   5.127   6.438  18.908 -0.0368 -0.0001 -0.4723
 1046TIP3    H127333   5.133   6.522  18.862  0.1697  0.7484  0.8740
 1046TIP3    H227334   5.075   6.382  18.850  0.1990  0.9043 -1.5908
 1047TIP3   OH227335   5.516   2.714  18.116 -0.2564 -0.0935  0.1601
 1047TIP3    H127336   5.428   2.713  18.153 -1.2189  4.3597 -1.3418
 1047TIP3    H227337   5.567   2.766  18.179  0.9503 -1.3695  0.2834
 1048TIP3   OH227338   3.757   1.846  19.103  0.0441 -0.1835 -0.0318
 1048TIP3    H127339   3.741   1.870  19.011  0.6851  0.9145  0.1230
 1048TIP3    H227340   3.850   1.860  19.116 -0.0929 -0.0243  0.8716
 1049TIP3   OH227341   5.560   2.902  18.341 -0.0358 -0.3432 -0.3850
 1049TIP3    H127342   5.475   2.858  18.344 -0.7811  1.1011  1.1373
 1049TIP3    H227343   5.618   2.845  18.392 -0.2649 -0.9547 -0.7929
 1050TIP3   OH227344   1.024   0.391  18.996  0.2506  0.2499 -0.3645
 1050TIP3    H127345   1.102   0.436  19.031  1.3683 -1.1614 -0.9236
 1050TIP3    H227346   1.059   0.310  18.959 -1.3012  0.2802 -2.0038
 1051TIP3   OH227347   2.899   4.889  17.120  0.4121 -0.0497  0.4595
 1051TIP3    H127348   2.955   4.958  17.157 -0.4713  0.2503  1.2810
 1051TIP3    H227349   2.857   4.930  17.045  1.3836 -0.3220 -0.2527
 1052TIP3   OH227350   0.694   2.128  17.870  0.4782  0.3631 -0.2883
 1052TIP3    H127351   0.745   2.141  17.950 -1.9016  2.1701  1.0772
 1052TIP3    H227352   0.733   2.188  17.806  1.4654  0.0103 -0.0321
 1053TIP3   OH227353   2.194   4.011  17.802 -0.6226  0.0095  0.3768
 1053TIP3    H127354   2.219   4.072  17.872 -0.1592 -0.1462  0.3539
 1053TIP3    H227355   2.241   4.042  17.725 -2.1787  0.9843 -0.2242
 1054TIP3   OH227356   1.062   1.503  19.503 -0.6060  0.5366  0.4477
 1054TIP3    H127357   1.127   1.564  19.537  0.6486  0.3083 -1.3796
 1054TIP3    H227358   1.014   1.554  19.437  0.7079 -0.4691 -1.3736
 1055TIP3   OH227359   6.341   3.986  16.940 -0.2497 -0.6362  0.2852
 1055TIP3    H127360   6.293   3.903  16.945 -0.0149 -0.9295 -1.6128
 1055TIP3    H227361   6.392   3.979  16.860 -0.3459  1.4039  0.0019
 1056TIP3   OH227362   1.553   3.744  18.549 -0.5176 -0.4437 -0.5443
 1056TIP3    H127363   1.566   3.669  18.491  0.3932  0.7389 -1.9623
 1056TIP3    H227364   1.460   3.763  18.543 -0.5181 -0.6330 -1.2765
 1057TIP3   OH227365   3.645   5.456  17.392  0.3713  0.2470 -0.1356
 1057TIP3    H127366   3.604   5.374  17.421 -1.0649  1.1673  0.5336
 1057TIP3    H227367   3.723   5.464  17.448  1.2172 -1.2077 -1.0057
 1058TIP3   OH227368   3.580   2.481  19.554  0.2499  0.1355 -0.1854
 1058TIP3    H127369   3.577   2.564  19.506  0.8505 -1.3039 -2.9342
 1058TIP3    H227370   3.489   2.465  19.579 -0.1294  0.8886 -1.0195
 1059TIP3   OH227371   2.383   2.710  17.524 -0.0146  0.3260 -0.1211
 1059TIP3    H127372   2.343   2.637  17.571 -0.3896  0.0187 -0.8923
 1059TIP3    H227373   2.472   2.715  17.558  0.1206 -0.7040 -0.2882
 1060TIP3   OH227374   3.139   6.325  16.776  0.2922 -0.5634 -0.2411
 1060TIP3    H127375   3.114   6.416  16.788 -0.3022 -0.7904  0.3507
 1060TIP3    H227376   3.071   6.275  16.823 -0.7887 -1.4462 -2.5476
 1061TIP3   OH227377   3.393   6.631  19.582 -0.6252 -0.7108 -0.4143
 1061TIP3    H127378   3.302   6.603  19.573 -0.4146 -1.3533 -0.6008
 1061TIP3    H227379   3.396   6.676  19.667 -1.3299  0.2161 -0.8602
 1062TIP3   OH227380   5.010   5.097  19.246 -0.0438  0.1189 -0.2634
 1062TIP3    H127381   5.024   5.094  19.341  0.2016  2.3159 -0.1842
 1062TIP3    H227382   5.035   5.186  19.221 -3.3480  0.7705 -1.8412
 1063TIP3   OH227383   5.772   1.811  16.154  0.0527 -0.0724  0.1234
 1063TIP3    H127384   5.702   1.873  16.175 -0.6738 -0.1885 -1.8240
 1063TIP3    H227385   5.837   1.825  16.224  0.7062  4.0644 -1.0073
 1064TIP3   OH227386   3.995   0.591  16.829 -0.1868 -0.3491 -0.4455
 1064TIP3    H127387   4.041   0.672  16.807 -0.8932 -0.1896 -1.3603
 1064TIP3    H227388   4.015   0.577  16.922  4.8128 -2.2652 -1.5000
 1065TIP3   OH227389   0.286   5.844  19.302 -0.0813  0.4815  0.2061
 1065TIP3    H127390   0.296   5.840  19.207 -1.8080 -2.3998  0.0373
 1065TIP3    H227391   0.242   5.928  19.318 -1.6390  0.1188 -1.7806
 1066TIP3   OH227392   6.500   3.901  19.848 -0.9962  0.0316  0.2418
 1066TIP3    H127393   6.545   3.971  19.800 -1.2572  0.3642  0.4728
 1066TIP3    H227394   6.496   3.828  19.787 -3.1253  1.0880 -0.9939
 1067TIP3   OH227395   5.750   1.391  16.873 -0.4915 -0.3779 -0.0969
 1067TIP3    H127396   5.668   1.395  16.823 -0.0205  0.4352 -0.8476
 1067TIP3    H227397   5.725   1.357  16.958 -1.2889 -2.0737 -0.9702
 1068TIP3   OH227398   6.360   1.194  17.049  0.0958 -0.1302 -0.3464
 1068TIP3    H127399   6.311   1.188  17.132 -0.1231 -1.4462 -0.5468
 1068TIP3    H227400   6.429   1.129  17.059  2.9064  2.7616  0.5845
 1069TIP3   OH227401   2.675   1.003  17.834  0.3214  0.3108 -0.3798
 1069TIP3    H127402   2.610   1.071  17.851 -0.0866 -0.0117 -0.6306
 1069TIP3    H227403   2.683   0.958  17.918  1.1702  1.1503  0.0048
 1070TIP3   OH227404   5.290   2.287  19.201  0.4304  0.7125  0.0658
 1070TIP3    H127405   5.219   2.345  19.173  1.5458  1.8698 -0.5032
 1070TIP3    H227406   5.290   2.293  19.296 -1.7376 -1.1999  0.2668
 1071TIP3   OH227407   2.891   3.994  19.796 -0.0358 -0.4949  0.0131
 1071TIP3    H127408   2.864   3.916  19.846  1.1545 -0.2998  1.0193
 1071TIP3    H227409   2.940   3.959  19.722 -0.7964 -0.7454 -0.3838
 1072TIP3   OH227410   3.253   2.046  18.594 -0.3513  0.1494  0.0219
 1072TIP3    H127411   3.264   2.100  18.672  2.3423  0.1294 -0.2302
 1072TIP3    H227412   3.159   2.040  18.581 -0.8100  2.0401  1.9480
 1073TIP3   OH227413   3.079   4.913  19.365 -0.3857 -0.5017  0.1923
 1073TIP3    H127414   3.038   4.957  19.439 -0.9866  0.7178 -0.8296
 1073TIP3    H227415   3.172   4.933  19.374 -0.6967  1.4018 -0.4883
 1074TIP3   OH227416   4.952   3.206  19.283  0.6087  0.1591 -0.4073
 1074TIP3    H127417   5.045   3.198  19.261  0.7483 -1.1571  0.5230
 1074TIP3    H227418   4.910   3.139  19.230  0.2161  0.5976 -0.6531
 1075TIP3   OH227419   4.328   0.967  16.699 -0.3885  0.9242  0.0237
 1075TIP3    H127420   4.401   1.005  16.652 -0.9391  0.1889 -1.4806
 1075TIP3    H227421   4.250   1.007  16.660 -0.8378  1.1352  1.0782
 1076TIP3   OH227422   4.366   0.996  19.220  0.4320 -0.1163 -0.4569
 1076TIP3    H127423   4.277   0.998  19.184  0.1320  0.2099  0.2924
 1076TIP3    H227424   4.394   1.088  19.217  1.0969 -0.3318 -1.5287
 1077TIP3   OH227425   6.662   5.920  19.305 -0.4040  0.1944 -0.5939
 1077TIP3    H127426   6.666   5.903  19.399  0.0332  1.1301 -0.4325
 1077TIP3    H227427   6.743   5.965  19.285 -0.4379 -0.1030 -1.4546
 1078TIP3   OH227428   0.652   1.456  19.483  0.2164  0.5062 -0.1421
 1078TIP3    H127429   0.585   1.459  19.415 -1.3789  2.1198  1.3967
 1078TIP3    H227430   0.697   1.541  19.477  1.4217 -0.1274 -0.4440
 1079TIP3   OH227431   6.137   5.231  19.664 -0.0661 -0.5908 -0.7409
 1079TIP3    H127432   6.161   5.323  19.655 -1.6022  0.2436  2.1883
 1079TIP3    H227433   6.057   5.221  19.612  0.1063 -0.2776 -1.0660
 1080TIP3   OH227434   3.117   5.720  17.676  0.3719  0.0860 -0.5516
 1080TIP3    H127435   3.059   5.789  17.709  0.4907 -0.4122  0.7445
 1080TIP3    H227436   3.077   5.639  17.705  0.7470 -0.3570 -1.2455
 1081TIP3   OH227437   2.889   2.015  20.063 -0.3650  0.2052  0.4681
 1081TIP3    H127438   2.979   1.987  20.080 -0.5494 -0.6965  0.0259
 1081TIP3    H227439   2.836   1.936  20.077 -0.9459  0.4108 -0.4834
 1082TIP3   OH227440   1.628   5.149  19.244  0.1382 -0.2767  0.6516
 1082TIP3    H127441   1.637   5.242  19.227 -0.1519 -0.4012 -0.2318
 1082TIP3    H227442   1.589   5.113  19.164 -1.0849 -0.9376  1.5110
 1083TIP3   OH227443   4.250   3.805  17.040  0.2144  0.0216 -0.1760
 1083TIP3    H127444   4.257   3.840  16.951  0.1521 -1.1641 -0.6741
 1083TIP3    H227445   4.158   3.781  17.049 -0.0726  1.3846  0.7215
 1084TIP3   OH227446   6.652   5.817  19.914 -0.0677 -0.3049  0.1734
 1084TIP3    H127447   6.556   5.810  19.908 -0.0762  0.2614 -0.4703
 1084TIP3    H227448   6.670   5.818  20.007 -0.8317  1.2878  0.3458
 1085TIP3   OH227449   2.843   0.156  18.751 -0.0857  0.4465 -0.4574
 1085TIP3    H127450   2.852   0.069  18.714 -0.3602 -0.6092  1.7992
 1085TIP3    H227451   2.751   0.163  18.776  0.0668  1.1531 -0.0608
 1086TIP3   OH227452   4.918   4.143  17.736 -0.7997  0.2819 -0.1688
 1086TIP3    H127453   4.915   4.187  17.820  1.2732  1.6321 -0.7472
 1086TIP3    H227454   4.833   4.099  17.729 -0.8920 -0.1641  2.7331
 1087TIP3   OH227455   1.332   0.928  19.469 -0.2795 -0.3523 -0.0057
 1087TIP3    H127456   1.323   1.023  19.457  0.0245 -0.3040  0.1446
 1087TIP3    H227457   1.415   0.918  19.514  0.3142 -0.7770 -1.1657
 1088TIP3   OH227458   5.046   4.729  17.696  0.0786 -0.1546 -0.2013
 1088TIP3    H127459   5.101   4.651  17.706  1.1859  0.5594 -0.5711
 1088TIP3    H227460   5.069   4.783  17.772 -1.9155 -0.8834  0.9864
 1089TIP3   OH227461   1.820   5.114  20.197 -0.3163 -0.2281  0.0643
 1089TIP3    H127462   1.861   5.037  20.237 -1.2716 -1.1409 -0.6472
 1089TIP3    H227463   1.886   5.148  20.137  0.2320 -0.2965  0.6153
 1090TIP3   OH227464   2.381   5.620  18.648 -0.2469 -0.0325  0.1314
 1090TIP3    H127465   2.470   5.653  18.660  0.2605  0.0255 -2.8948
 1090TIP3    H227466   2.387   5.564  18.570 -2.6710 -0.8939  0.4834
 1091TIP3   OH227467   3.603   0.551  19.202  0.2329 -0.2475 -0.1844
 1091TIP3    H127468   3.583   0.577  19.292 -0.3637  0.6995 -0.5674
 1091TIP3    H227469   3.554   0.471  19.188 -1.1338  0.5584 -0.2082
 1092TIP3   OH227470   3.641   1.014  16.577  0.3183  0.0670 -0.4445
 1092TIP3    H127471   3.548   1.004  16.596  0.6434  0.2517  1.4607
 1092TIP3    H227472   3.672   1.076  16.642  2.4710 -2.6323  1.3425
 1093TIP3   OH227473   0.926   5.408  17.726 -0.2280  0.7842  0.2409
 1093TIP3    H127474   0.838   5.424  17.759 -0.1336 -0.1809  0.9964
 1093TIP3    H227475   0.980   5.398  17.805  0.3293  0.1697 -0.2085
 1094TIP3   OH227476   5.161   2.835  18.591 -0.1220  0.2201 -0.4797
 1094TIP3    H127477   5.076   2.868  18.621  0.6432  2.9174 -1.0351
 1094TIP3    H227478   5.160   2.851  18.496  0.4587 -1.1035 -0.7225
 1095TIP3   OH227479   3.700   4.687  17.837  0.0726  0.2741 -0.1638
 1095TIP3    H127480   3.714   4.704  17.930  1.2134  1.2315 -0.4745
 1095TIP3    H227481   3.788   4.681  17.800 -0.3568 -0.5555 -1.1155
 1096TIP3   OH227482   2.252   5.150  19.077  0.4454 -0.0093  0.9015
 1096TIP3    H127483   2.338   5.183  19.105  0.0006  0.0860  2.2315
 1096TIP3    H227484   2.251   5.059  19.109 -0.5452  0.4681  2.3290
 1097TIP3   OH227485   0.524   1.185  18.556 -0.3436  0.0855 -0.3306
 1097TIP3    H127486   0.573   1.240  18.494  2.1398 -0.1331  1.3313
 1097TIP3    H227487   0.491   1.246  18.621  0.4036 -0.1034  0.2350
 1098TIP3   OH227488   2.235   6.317  19.268 -0.0534  0.0187  0.7458
 1098TIP3    H127489   2.318   6.271  19.258  0.7331  1.7365 -1.3295
 1098TIP3    H227490   2.254   6.391  19.325 -0.0102  0.7067 -0.1469
 1099TIP3   OH227491   5.432   0.352  19.793 -0.5452 -0.0723  0.7548
 1099TIP3    H127492   5.452   0.362  19.886 -1.5484  1.5380  0.8332
 1099TIP3    H227493   5.465   0.432  19.753 -0.9629 -0.3278 -0.1299
 1100TIP3   OH227494   0.969   3.957  20.180  0.0684 -0.0988 -0.2041
 1100TIP3    H127495   0.939   4.033  20.131 -0.6996 -0.6519 -0.6072
 1100TIP3    H227496   0.903   3.890  20.165  0.2328 -0.5514  0.9205
 1101TIP3   OH227497   5.273   3.111  20.026  0.1448  0.1147 -0.3667
 1101TIP3    H127498   5.289   3.017  20.031 -0.6726 -0.0256 -0.1776
 1101TIP3    H227499   5.358   3.150  20.006  0.2490 -0.7667 -1.7500
 1102TIP3   OH227500   5.102   0.048  19.842 -0.7614  0.5007 -0.3591
 1102TIP3    H127501   5.179   0.063  19.898 -0.8236  2.9091 -0.7840
 1102TIP3    H227502   5.117  -0.037  19.802 -0.1045 -0.7408  2.3164
 1103TIP3   OH227503   6.165   5.795  17.241  0.2139  1.0545 -0.2313
 1103TIP3    H127504   6.100   5.725  17.242 -1.5196  2.5007  2.4274
 1103TIP3    H227505   6.177   5.816  17.148 -0.9426 -1.1674 -0.9477
 1104TIP3   OH227506   1.545   4.634  17.598 -0.1480  0.7091  0.2584
 1104TIP3    H127507   1.498   4.555  17.622  0.1290 -0.0612 -1.5712
 1104TIP3    H227508   1.509   4.702  17.655  1.6046 -1.1610  3.9758
 1105TIP3   OH227509   6.347   4.535  19.790 -0.1990 -0.0878 -0.5517
 1105TIP3    H127510   6.440   4.515  19.804  0.3024  0.3653 -2.7904
 1105TIP3    H227511   6.320   4.475  19.720 -1.4499  0.1873 -0.3297
 1106TIP3   OH227512   2.904   1.575  17.867  0.1066  0.4679 -0.1426
 1106TIP3    H127513   2.981   1.614  17.908  0.1138  0.0962  0.2005
 1106TIP3    H227514   2.913   1.481  17.883 -0.2226  0.3851 -0.4336
 1107TIP3   OH227515   1.758   3.878  16.868 -0.1973 -0.3071 -0.5764
 1107TIP3    H127516   1.704   3.891  16.790 -0.1560  0.2953 -0.5070
 1107TIP3    H227517   1.786   3.966  16.893  1.1893 -0.6396 -0.8628
 1108TIP3   OH227518   2.078   4.084  18.589  0.5728 -0.3977  0.6146
 1108TIP3    H127519   2.028   4.151  18.636  0.4884 -0.3707  0.4866
 1108TIP3    H227520   2.170   4.107  18.606  0.7204  2.0689 -2.4709
 1109TIP3   OH227521   0.687   5.446  17.278 -0.0803 -0.7506  0.0346
 1109TIP3    H127522   0.757   5.453  17.343  1.1256 -0.4155 -1.2492
 1109TIP3    H227523   0.708   5.367  17.229  0.7770  0.5585 -1.8496
 1110TIP3   OH227524   3.952   3.755  19.146  0.0444 -0.0318 -0.3102
 1110TIP3    H127525   4.016   3.756  19.074  0.1690  0.3795 -0.1983
 1110TIP3    H227526   3.908   3.840  19.140 -0.2337 -0.1651 -0.1568
 1111TIP3   OH227527   6.566   0.128  18.814  0.4960 -0.2522  0.0279
 1111TIP3    H127528   6.654   0.105  18.784 -0.1292 -0.2706 -1.9917
 1111TIP3    H227529   6.564   0.103  18.906  2.0774 -1.7982 -0.3080
 1112TIP3   OH227530   1.898   4.190  18.203 -0.2168  0.4185  0.2794
 1112TIP3    H127531   1.902   4.285  18.209  0.1082  0.4895 -0.7561
 1112TIP3    H227532   1.818   4.166  18.250 -0.8136  1.2960 -0.2404
 1113TIP3   OH227533   1.184   4.066  16.817  0.2640 -0.1445  0.0134
 1113TIP3    H127534   1.174   4.022  16.901 -0.8738  1.6026  0.8465
 1113TIP3    H227535   1.140   4.008  16.754  2.2992 -2.1394  0.3140
 1114TIP3   OH227536   2.309   3.540  17.725  0.2892 -0.4490 -0.7071
 1114TIP3    H127537   2.246   3.599  17.685 -0.4045 -0.8241 -0.2025
 1114TIP3    H227538   2.322   3.471  17.660 -0.5953 -0.8923 -0.4408
 1115TIP3   OH227539   0.009   1.136  18.035 -0.1262 -0.0612 -0.3165
 1115TIP3    H127540   0.044   1.185  17.961 -1.4717 -2.2313 -2.5714
 1115TIP3    H227541  -0.085   1.153  18.033 -0.2296 -0.4568  0.6746
 1116TIP3   OH227542   3.539   5.513  17.809 -0.5640  0.3993  0.2794
 1116TIP3    H127543   3.580   5.459  17.741  0.1369  1.2056  0.0417
 1116TIP3    H227544   3.475   5.567  17.762  0.5064  1.5604  0.0864
 1117TIP3   OH227545   0.071   6.635  17.287  0.1558  0.2268 -0.1221
 1117TIP3    H127546  -0.024   6.640  17.286  0.2171  1.9579 -0.9968
 1117TIP3    H227547   0.097   6.649  17.196  1.2555 -0.0155  0.1377
 1118TIP3   OH227548   2.841   3.016  19.368  0.1223 -0.2326 -0.0805
 1118TIP3    H127549   2.841   2.943  19.429 -0.1435  0.3266  0.6102
 1118TIP3    H227550   2.789   2.985  19.294 -0.1326 -0.6863  0.2780
 1119TIP3   OH227551   5.547   4.396  17.943 -0.1911 -0.0802 -0.5969
 1119TIP3    H127552   5.487   4.336  17.987 -0.3370  1.0578  0.8318
 1119TIP3    H227553   5.604   4.429  18.012  0.2760  0.9524 -1.4364
 1120TIP3   OH227554   0.828   2.908  19.694 -0.5566  0.0447 -0.1615
 1120TIP3    H127555   0.818   2.960  19.773  1.4122  0.5560 -0.2091
 1120TIP3    H227556   0.767   2.835  19.705  0.8857 -0.8598  2.6444
 1121TIP3   OH227557   6.192   3.743  16.959  0.0071  0.4153  0.2423
 1121TIP3    H127558   6.127   3.674  16.972  1.4455 -0.8687  0.9209
 1121TIP3    H227559   6.161   3.791  16.882 -0.9454 -1.1007 -0.3577
 1122TIP3   OH227560   1.243   2.700  18.340  0.0831 -0.4117  0.7359
 1122TIP3    H127561   1.339   2.697  18.343  0.1294 -0.7334 -0.4325
 1122TIP3    H227562   1.223   2.764  18.273 -0.5260 -0.3610  0.9622
 1123TIP3   OH227563   5.222   5.866  18.594  0.2883  0.2267  0.0461
 1123TIP3    H127564   5.209   5.902  18.506  0.8496 -0.6040 -0.3945
 1123TIP3    H227565   5.245   5.774  18.579 -0.2125 -0.0878  1.0959
 1124TIP3   OH227566   4.238   6.461  16.997  0.2890 -0.2495 -0.0952
 1124TIP3    H127567   4.296   6.402  17.044  0.1754 -0.5834 -0.3670
 1124TIP3    H227568   4.153   6.452  17.041  0.7188  1.1878  1.1121
 1125TIP3   OH227569   2.590   1.946  18.572  1.0194  0.3705  0.0486
 1125TIP3    H127570   2.543   1.898  18.640  0.5058  0.7931 -0.0041
 1125TIP3    H227571   2.534   1.940  18.495  0.6347  1.6154  0.2244
 1126TIP3   OH227572   0.410   5.838  20.000  0.4308  0.5233 -0.2290
 1126TIP3    H127573   0.358   5.918  19.989 -0.4842  0.0639  0.5625
 1126TIP3    H227574   0.373   5.777  19.937  0.4491  0.4049 -0.1247
 1127TIP3   OH227575   5.154   6.594  17.515 -0.1569  0.0725  0.3886
 1127TIP3    H127576   5.127   6.678  17.553 -0.3886  0.2352 -0.1275
 1127TIP3    H227577   5.241   6.578  17.551  0.1248  0.8091  0.0473
 1128TIP3   OH227578   6.431   6.225  17.710  0.1947  0.4579 -0.0097
 1128TIP3    H127579   6.450   6.308  17.665 -1.6382  0.2617 -1.2261
 1128TIP3    H227580   6.388   6.171  17.644 -0.0493 -0.8983  1.2137
 1129TIP3   OH227581   2.843   0.215  17.596  0.1503 -0.1164 -0.0237
 1129TIP3    H127582   2.859   0.123  17.578  1.5696  0.1584 -0.2615
 1129TIP3    H227583   2.747   0.224  17.594  0.0221 -1.4511 -0.5979
 1130TIP3   OH227584   6.203   6.265  18.508  0.0058  0.3253  0.2105
 1130TIP3    H127585   6.233   6.344  18.464  1.8563 -0.2516  0.3314
 1130TIP3    H227586   6.282   6.229  18.549 -0.6153 -1.9099 -0.3800
 1131TIP3   OH227587   1.723   1.240  19.719  0.2051 -0.2629 -0.1526
 1131TIP3    H127588   1.693   1.299  19.788 -0.9844 -0.4714 -0.4717
 1131TIP3    H227589   1.752   1.300  19.649 -2.4850  0.0426 -1.1257
 1132TIP3   OH227590   3.647   4.387  18.798  0.1734  0.1350  0.1071
 1132TIP3    H127591   3.602   4.303  18.785 -0.0037  0.5773 -2.6385
 1132TIP3    H227592   3.740   4.365  18.802  0.0379 -0.3221  1.2012
 1133TIP3   OH227593   1.196   3.488  19.156 -0.2164  0.2007  0.0794
 1133TIP3    H127594   1.236   3.482  19.069 -0.2295  1.2840 -0.0143
 1133TIP3    H227595   1.134   3.415  19.159 -1.2477  0.9845 -1.3582
 1134TIP3   OH227596   2.503   2.535  18.371 -0.1124 -0.1777 -0.2434
 1134TIP3    H127597   2.464   2.448  18.364 -1.3927  0.2980  0.6749
 1134TIP3    H227598   2.559   2.531  18.448  0.8212 -0.5353 -0.9239
 1135TIP3   OH227599   4.486   1.249  19.121 -0.1806 -0.2125  0.0965
 1135TIP3    H127600   4.471   1.294  19.038 -0.0473 -0.2329  0.0593
 1135TIP3    H227601   4.557   1.188  19.102 -0.5860 -0.6770  0.0623
 1136TIP3   OH227602   2.273   5.346  20.048  0.6632  0.0688  0.3274
 1136TIP3    H127603   2.220   5.373  19.973 -0.0958 -1.3373  0.3192
 1136TIP3    H227604   2.212   5.297  20.104  1.3299  0.6683  1.6311
 1137TIP3   OH227605   1.560   6.218  16.547  0.1257  0.0073  0.2988
 1137TIP3    H127606   1.561   6.288  16.612 -1.7277 -1.6813  2.2799
 1137TIP3    H227607   1.546   6.264  16.464  1.9094  2.1787  1.0986
 1138TIP3   OH227608   0.852   2.410  17.431  0.3698  0.1843 -0.2766
 1138TIP3    H127609   0.925   2.472  17.440 -0.1579  0.5247  2.2940
 1138TIP3    H227610   0.776   2.457  17.465 -0.2826 -1.4319  0.5916
 1139TIP3   OH227611   1.688   4.104  18.373 -0.1453 -0.3413 -0.3727
 1139TIP3    H127612   1.715   4.060  18.454  1.0164 -2.8026 -1.9618
 1139TIP3    H227613   1.595   4.125  18.387 -0.0460 -0.9691  1.4727
 1140TIP3   OH227614   0.543   0.774  18.816 -0.0518 -0.5147 -0.0099
 1140TIP3    H127615   0.623   0.765  18.764  0.3225 -0.8533  0.5988
 1140TIP3    H227616   0.472   0.755  18.755  0.0671  2.7279 -1.3572
 1141TIP3   OH227617   4.721   0.116  18.469 -0.0712  0.4790  0.6057
 1141TIP3    H127618   4.798   0.127  18.414 -0.8001  0.3848 -0.4497
 1141TIP3    H227619   4.745   0.046  18.531 -0.2285 -1.5070 -1.4467
 1142TIP3   OH227620   2.770   6.304  18.183  0.0338 -0.1544 -0.2984
 1142TIP3    H127621   2.837   6.335  18.244 -0.1636  1.5687 -0.8918
 1142TIP3    H227622   2.725   6.234  18.230 -0.1737  1.1701  1.5978
 1143TIP3   OH227623   5.848   2.216  16.617 -0.5118 -0.3410 -0.3228
 1143TIP3    H127624   5.870   2.206  16.710  0.1855  1.2824 -0.2798
 1143TIP3    H227625   5.901   2.149  16.573  1.1289  0.5171  0.2450
 1144TIP3   OH227626   4.045   0.341  19.833  0.3431 -0.1603  0.2155
 1144TIP3    H127627   3.961   0.387  19.840  0.2108 -0.3937  0.1450
 1144TIP3    H227628   4.081   0.370  19.750 -0.1886 -0.9394 -0.2939
 1145TIP3   OH227629   2.482   3.949  17.903 -0.1869 -0.8541  0.0825
 1145TIP3    H127630   2.496   3.854  17.906 -0.1868 -0.8364  1.4889
 1145TIP3    H227631   2.393   3.961  17.934 -0.5678 -0.4447 -1.1251
 1146TIP3   OH227632   5.193   3.710  18.403 -0.6336 -0.5922  0.0158
 1146TIP3    H127633   5.137   3.635  18.382 -2.1715  0.0640  1.5274
 1146TIP3    H227634   5.187   3.718  18.498  0.7180  0.5408  0.0375
 1147TIP3   OH227635   1.985   3.772  19.640 -0.4814  0.3496 -0.3243
 1147TIP3    H127636   1.912   3.712  19.623 -0.3392 -0.0708  0.4926
 1147TIP3    H227637   1.963   3.813  19.723  0.3782 -0.0504  0.1167
 1148TIP3   OH227638   1.180   1.084  18.911 -0.2903  0.1752  0.2213
 1148TIP3    H127639   1.224   1.007  18.946  2.4707  2.2941  1.8725
 1148TIP3    H227640   1.104   1.097  18.968 -1.0810 -1.4817 -0.3778
 1149TIP3   OH227641   1.945   4.723  17.996  0.2911  0.8844  0.3765
 1149TIP3    H127642   1.868   4.666  17.996  0.0165  1.2498 -0.0326
 1149TIP3    H227643   1.949   4.758  17.907  0.8036  1.0470  0.4575
 1150TIP3   OH227644   1.392   3.827  16.922  0.6983  0.1420 -0.0766
 1150TIP3    H127645   1.370   3.817  16.830  0.1884  0.7607 -0.0281
 1150TIP3    H227646   1.311   3.859  16.963  0.3504 -1.7783  0.9099
 1151TIP3   OH227647   3.258   0.564  18.067  0.0932 -0.4466 -0.2103
 1151TIP3    H127648   3.260   0.519  18.151 -1.0060 -0.5458 -0.2193
 1151TIP3    H227649   3.270   0.657  18.089  4.1954 -0.7638 -0.3340
 1152TIP3   OH227650   4.700   3.584  18.335  0.0432  0.2614 -0.5142
 1152TIP3    H127651   4.653   3.511  18.294 -0.1113  0.5281 -0.8123
 1152TIP3    H227652   4.739   3.546  18.414  1.1316 -0.5112 -1.3827
 1153TIP3   OH227653   0.358   3.035  17.725  0.3630 -0.0111 -0.1033
 1153TIP3    H127654   0.277   3.003  17.765 -0.5882  1.9635 -0.3155
 1153TIP3    H227655   0.386   2.965  17.667 -1.1909 -0.7546  0.0027
 1154TIP3   OH227656   4.027   5.740  17.313  0.7355  0.4752  0.6766
 1154TIP3    H127657   4.043   5.753  17.220  0.2409  2.9944  0.8774
 1154TIP3    H227658   3.936   5.768  17.326  0.1431 -1.6575  1.6433
 1155TIP3   OH227659   0.001   0.046  19.231 -0.0772 -0.7528 -0.5414
 1155TIP3    H127660   0.062   0.033  19.159  0.0504 -0.6099 -0.4606
 1155TIP3    H227661  -0.069   0.100  19.193  0.4179  0.0580 -0.3383
 1156TIP3   OH227662   1.952   5.330  19.638  0.2687  0.4163  0.2392
 1156TIP3    H127663   2.007   5.315  19.561 -1.7884 -0.4295 -1.1738
 1156TIP3    H227664   1.890   5.398  19.610  0.3547  1.1190  1.6528
 1157TIP3   OH227665   6.425   6.371  17.316  0.3817 -0.1435 -0.3518
 1157TIP3    H127666   6.330   6.361  17.307  0.4046 -2.2050  0.9500
 1157TIP3    H227667   6.462   6.314  17.249  0.6191 -1.7148  1.0361
 1158TIP3   OH227668   6.068   5.662  18.023 -0.1987  0.4238 -0.1630
 1158TIP3    H127669   6.116   5.661  17.940 -0.3856 -0.4780 -0.2637
 1158TIP3    H227670   6.027   5.576  18.029  0.5506  0.1267  1.2979
 1159TIP3   OH227671   6.013   3.509  18.175  0.5439  0.3685 -0.1630
 1159TIP3    H127672   5.931   3.461  18.188  0.4026  1.1720  2.7496
 1159TIP3    H227673   6.052   3.469  18.098 -2.1539 -0.6261 -1.1418
 1160TIP3   OH227674   2.348   0.029  17.521  0.2514 -0.1757  0.0479
 1160TIP3    H127675   2.279   0.067  17.576  1.7902  2.6433  0.2312
 1160TIP3    H227676   2.310  -0.053  17.488 -3.8739  1.9219 -1.2255
 1161TIP3   OH227677   1.671   1.983  18.560 -0.2044 -0.3513  0.6423
 1161TIP3    H127678   1.678   1.911  18.498  1.0551 -0.3148  0.7066
 1161TIP3    H227679   1.737   2.047  18.531 -1.0413  0.6133  0.8052
 1162TIP3   OH227680   2.255   4.851  19.107  0.1237  0.0375  0.3237
 1162TIP3    H127681   2.160   4.859  19.118  0.1934 -0.2031  1.1661
 1162TIP3    H227682   2.267   4.769  19.059 -0.0127 -0.8350  1.7420
 1163TIP3   OH227683   0.271   1.773  18.129  0.6257  0.6964 -0.3116
 1163TIP3    H127684   0.363   1.786  18.152  0.6589 -0.2940  0.1729
 1163TIP3    H227685   0.269   1.687  18.088 -0.2536  0.1851  0.7438
 1164TIP3   OH227686   4.068   3.280  17.077  0.0145  0.8330  0.3421
 1164TIP3    H127687   4.062   3.318  16.989 -0.6259  2.7007  1.1419
 1164TIP3    H227688   4.042   3.351  17.136 -0.2339 -0.5692  2.0164
 1165TIP3   OH227689   1.491   3.276  19.784 -0.0204  0.7150  0.2013
 1165TIP3    H127690   1.513   3.328  19.707 -0.3830 -0.3549 -0.6415
 1165TIP3    H227691   1.467   3.190  19.750 -0.7518  0.3891  1.4648
 1166TIP3   OH227692   0.002   2.392  17.271  0.0372  0.8149  0.2934
 1166TIP3    H127693   0.078   2.386  17.329  1.3558  3.8823 -0.9118
 1166TIP3    H227694   0.039   2.388  17.183 -1.6004 -0.7932 -0.3848
 1167TIP3   OH227695   6.452   2.941  17.795 -0.2708  0.2273  0.0867
 1167TIP3    H127696   6.495   3.024  17.773  0.1078  0.5795  1.9608
 1167TIP3    H227697   6.370   2.968  17.838 -0.8889 -0.4087 -0.6612
 1168TIP3   OH227698   4.506   1.260  19.475 -0.4039  0.1801  0.1879
 1168TIP3    H127699   4.529   1.352  19.462 -0.3783  0.1003 -0.3440
 1168TIP3    H227700   4.411   1.259  19.479 -0.3730  0.3508  1.1572
 1169TIP3   OH227701   5.859   6.290  19.932 -0.0883 -0.0626 -0.1549
 1169TIP3    H127702   5.869   6.376  19.973  0.3573 -0.0665 -0.2402
 1169TIP3    H227703   5.778   6.254  19.968  0.1826  0.0286  0.5593
 1170TIP3   OH227704   2.163   3.009  19.692  0.5060 -0.0392  0.1824
 1170TIP3    H127705   2.235   2.987  19.633 -0.9217  1.5409 -2.3946
 1170TIP3    H227706   2.093   2.949  19.666  0.9003 -1.8818  2.9667
 1171TIP3   OH227707   5.259   0.680  18.336 -0.5378  0.5726 -0.0726
 1171TIP3    H127708   5.311   0.675  18.256  0.3498  0.0382  0.5175
 1171TIP3    H227709   5.169   0.673  18.307 -0.2293 -4.7919 -0.7367
 1172TIP3   OH227710   3.798   4.016  19.702  0.2892  0.7048  0.1827
 1172TIP3    H127711   3.789   3.950  19.633  0.7618  0.1783  0.6148
 1172TIP3    H227712   3.708   4.040  19.724  0.0682 -0.3671  0.5470
 1173TIP3   OH227713   0.918   5.321  16.886  0.0599 -0.1011  0.3997
 1173TIP3    H127714   0.922   5.268  16.805 -1.4414 -0.6020  0.6110
 1173TIP3    H227715   0.825   5.342  16.895  0.5931  2.6462  0.3263
 1174TIP3   OH227716   0.580   5.801  16.671  0.0749  0.3438 -0.4961
 1174TIP3    H127717   0.566   5.844  16.586 -1.5127 -0.2578 -0.5690
 1174TIP3    H227718   0.538   5.859  16.734 -3.6811 -1.7226 -0.7712
 1175TIP3   OH227719   0.696   2.444  19.368  0.0341 -0.0485  1.0873
 1175TIP3    H127720   0.774   2.494  19.344 -0.2601 -0.0940 -0.0236
 1175TIP3    H227721   0.645   2.505  19.423 -0.6233  1.1668 -0.7638
 1176TIP3   OH227722   0.246   0.785  19.610  0.4678  0.9066  0.0339
 1176TIP3    H127723   0.283   0.717  19.666  1.1593  1.6158  0.4668
 1176TIP3    H227724   0.298   0.780  19.529 -0.0823  0.3274 -0.2864
 1177TIP3   OH227725   0.931   0.864  19.573 -0.1814  0.6202 -0.6050
 1177TIP3    H127726   0.953   0.953  19.544  0.9572  0.5425 -0.0659
 1177TIP3    H227727   0.842   0.849  19.541  0.5717  0.9420 -3.0445
 1178TIP3   OH227728   5.929   1.704  17.463  0.1828 -0.7766  0.2698
 1178TIP3    H127729   5.982   1.759  17.405  0.4985  1.3145  2.3803
 1178TIP3    H227730   5.841   1.707  17.426  0.4710  0.0793 -0.3696
 1179TIP3   OH227731   5.085   3.869  17.842  0.0150 -0.1295 -0.0526
 1179TIP3    H127732   5.142   3.945  17.830  1.6091 -1.1754  0.5628
 1179TIP3    H227733   5.060   3.843  17.753  0.9187  0.0752 -0.3810
 1180TIP3   OH227734   1.825   3.677  17.059  0.2917  0.7920  0.2439
 1180TIP3    H127735   1.759   3.609  17.047  1.6786 -0.8534  1.4994
 1180TIP3    H227736   1.827   3.723  16.975 -0.3063 -1.0665 -0.8505
 1181TIP3   OH227737   0.210   2.795  17.572 -0.4258  0.5151 -0.2953
 1181TIP3    H127738   0.175   2.715  17.611  0.7110  0.4931  0.7209
 1181TIP3    H227739   0.138   2.858  17.579 -0.9157 -0.0665 -0.0067
 1182TIP3   OH227740   1.154   0.683  19.493 -0.2730  0.3039 -0.4376
 1182TIP3    H127741   1.081   0.745  19.500  0.6573  1.6040 -1.5321
 1182TIP3    H227742   1.233   0.738  19.502  0.5832 -1.0884  0.8990
 1183TIP3   OH227743   1.538   4.539  19.528  0.2421  0.3678  0.1726
 1183TIP3    H127744   1.527   4.633  19.513  1.3794  0.2899 -1.5593
 1183TIP3    H227745   1.531   4.500  19.441  1.0143 -0.9997  0.6827
 1184TIP3   OH227746   2.909   5.218  18.873  0.5620 -0.3005 -0.4845
 1184TIP3    H127747   2.841   5.282  18.850  0.4418 -0.6131 -1.0308
 1184TIP3    H227748   2.942   5.247  18.958 -0.2718 -0.1485 -0.2008
 1185TIP3   OH227749   6.250   2.063  20.049  0.3360  0.9722  0.3221
 1185TIP3    H127750   6.207   2.141  20.013 -1.7387 -0.0782  0.4003
 1185TIP3    H227751   6.290   2.021  19.974 -1.3000  0.4450 -0.2941
 1186TIP3   OH227752   6.270   5.120  17.695  0.5092 -0.2804 -0.1456
 1186TIP3    H127753   6.341   5.184  17.704 -0.7023  1.0073  0.6345
 1186TIP3    H227754   6.202   5.166  17.646 -0.1972 -1.1497 -0.0138
 1187TIP3   OH227755   1.588   5.733  19.141 -0.0894  0.4666  0.1807
 1187TIP3    H127756   1.680   5.752  19.125 -0.2759  0.5645 -0.8527
 1187TIP3    H227757   1.575   5.755  19.233  1.1688 -0.6074  0.6404
 1188TIP3   OH227758   1.913   1.622  16.496 -0.0799  0.0730  0.7836
 1188TIP3    H127759   1.866   1.544  16.467  1.3692 -1.0404  1.3316
 1188TIP3    H227760   1.854   1.695  16.474 -2.1777 -1.2497  1.6817
 1189TIP3   OH227761   5.991   2.437  18.779  0.1795 -0.3584 -0.2141
 1189TIP3    H127762   6.050   2.396  18.842  1.1277  0.5700 -0.4696
 1189TIP3    H227763   6.048   2.490  18.723 -0.3818 -2.3264 -2.8928
 1190TIP3   OH227764   1.158   1.944  17.636 -0.3864  0.1471 -0.3474
 1190TIP3    H127765   1.209   1.898  17.570 -0.9661 -0.4834 -0.3714
 1190TIP3    H227766   1.168   1.892  17.715 -1.1644 -0.1208 -0.4101
 1191TIP3   OH227767   6.319   4.895  17.180  0.5856  0.5016 -0.1508
 1191TIP3    H127768   6.340   4.988  17.172 -1.3243  0.8771 -2.0710
 1191TIP3    H227769   6.233   4.894  17.223  0.2200 -0.2902 -0.8646
 1192TIP3   OH227770   0.696   0.906  18.455 -0.2027 -0.0198 -0.1083
 1192TIP3    H127771   0.616   0.956  18.438 -0.9177 -0.8708  0.6295
 1192TIP3    H227772   0.736   0.893  18.369 -0.8679  0.4045 -0.4855
 1193TIP3   OH227773   2.618   1.107  19.895 -0.2052  0.4782  0.2442
 1193TIP3    H127774   2.672   1.029  19.883 -0.5523  0.4749 -1.6197
 1193TIP3    H227775   2.537   1.074  19.935  0.5875  0.2778  1.7374
 1194TIP3   OH227776   3.513   1.502  17.517  0.5120  0.0739  0.7176
 1194TIP3    H127777   3.583   1.441  17.541  1.4091  0.5654 -0.5799
 1194TIP3    H227778   3.532   1.581  17.568  0.2506 -0.1810  1.2139
 1195TIP3   OH227779   2.459   0.419  18.120 -0.3350  0.0419  0.1331
 1195TIP3    H127780   2.462   0.501  18.171  0.2038 -0.0942  0.3262
 1195TIP3    H227781   2.466   0.350  18.186  0.2172 -0.1385 -0.1132
 1196TIP3   OH227782   5.659   3.748  19.834 -0.6547 -0.1094 -0.2549
 1196TIP3    H127783   5.610   3.665  19.829 -0.3305 -0.2489 -1.4833
 1196TIP3    H227784   5.749   3.721  19.850 -0.5995  0.0152 -0.3578
 1197TIP3   OH227785   5.928   4.647  18.173  0.4757 -0.9090  0.0095
 1197TIP3    H127786   6.011   4.607  18.199  1.3134  0.9947  0.4499
 1197TIP3    H227787   5.902   4.699  18.249  0.0827  0.3578 -0.9555
 1198TIP3   OH227788   2.991   4.093  18.351 -0.0259  0.2049  0.2112
 1198TIP3    H127789   3.067   4.059  18.304  0.3192  3.4420 -1.9698
 1198TIP3    H227790   3.026   4.161  18.409 -1.1138  1.0496 -0.0708
 1199TIP3   OH227791   4.913   3.733  18.909 -0.5068 -0.0165  0.0908
 1199TIP3    H127792   4.910   3.825  18.938 -0.8180 -0.3795  1.2740
 1199TIP3    H227793   4.850   3.729  18.838 -0.3481  0.7305 -0.1046
 1200TIP3   OH227794   4.102   3.090  19.254  0.0113  0.1211  0.4254
 1200TIP3    H127795   4.196   3.099  19.268  0.3000 -1.1063 -0.4618
 1200TIP3    H227796   4.075   3.173  19.216  0.6898  0.5853  0.9478
 1201TIP3   OH227797   2.193   1.714  17.520 -0.1239 -0.6875 -0.5067
 1201TIP3    H127798   2.266   1.654  17.535  0.0312 -0.5661 -0.7739
 1201TIP3    H227799   2.116   1.658  17.511  0.1575 -0.8955 -1.6485
 1202TIP3   OH227800   2.818   6.287  17.587 -0.3760 -0.2144 -0.1360
 1202TIP3    H127801   2.789   6.344  17.659 -0.7282 -0.3896 -0.1364
 1202TIP3    H227802   2.748   6.223  17.578 -0.3959 -0.1187 -0.7234
 1203TIP3   OH227803   0.796   2.268  19.580 -0.2998  0.0282 -0.4340
 1203TIP3    H127804   0.774   2.320  19.502 -1.0954 -2.6563 -2.1450
 1203TIP3    H227805   0.888   2.245  19.567  0.0028  0.8248  0.2344
 1204TIP3   OH227806   6.172   1.305  16.649 -0.2819 -0.2314  0.2837
 1204TIP3    H127807   6.193   1.222  16.693 -0.4949  0.3432  1.5090
 1204TIP3    H227808   6.198   1.291  16.558 -3.3112 -2.8216 -0.3692
 1205TIP3   OH227809   6.645   1.387  20.486 -0.1078  0.1624 -0.2524
 1205TIP3    H127810   6.594   1.466  20.504  1.9584  1.5041  0.0464
 1205TIP3    H227811   6.670   1.355  20.572  1.1512  0.6456 -0.4254
 1206TIP3   OH227812   3.418   1.673  19.427 -0.2464  0.1698 -0.5980
 1206TIP3    H127813   3.344   1.706  19.478  0.1725  2.0272 -1.1341
 1206TIP3    H227814   3.485   1.653  19.492 -0.6237  0.0817 -0.2335
 1207TIP3   OH227815   6.037   1.191  17.266  0.2056 -0.2808 -0.3501
 1207TIP3    H127816   5.985   1.129  17.214 -0.1367  0.2945 -0.7096
 1207TIP3    H227817   6.010   1.278  17.234  1.7874  0.0287 -0.9345
 1208TIP3   OH227818   1.851   6.354  18.756 -0.5166 -0.5089  0.2103
 1208TIP3    H127819   1.830   6.261  18.762 -0.7154 -0.4895 -0.1235
 1208TIP3    H227820   1.781   6.397  18.805 -0.6526 -0.5114  0.0192
 1209TIP3   OH227821   3.292   4.549  19.720  0.2177  0.7349  0.4107
 1209TIP3    H127822   3.299   4.524  19.812 -1.8942 -0.4636  0.3048
 1209TIP3    H227823   3.247   4.475  19.678  2.2609  0.6641 -1.8846
 1210TIP3   OH227824   1.467   5.065  20.095 -0.0119  0.2059  0.3352
 1210TIP3    H127825   1.536   5.089  20.033  0.1667 -0.1655  0.3898
 1210TIP3    H227826   1.477   5.129  20.167 -0.3790  0.7916 -0.1260
 1211TIP3   OH227827   5.998   4.891  17.224  0.9801  0.4727 -0.0385
 1211TIP3    H127828   6.030   4.927  17.307 -0.3375 -0.6917  1.0017
 1211TIP3    H227829   5.970   4.803  17.245 -0.6800  0.6326 -1.4268
 1212TIP3   OH227830   4.531   5.357  18.688  0.6174  0.5556 -0.4255
 1212TIP3    H127831   4.605   5.345  18.748 -1.7338 -0.4491  2.4905
 1212TIP3    H227832   4.555   5.306  18.611  3.1445  0.6737  0.1835
 1213TIP3   OH227833   5.432   6.281  19.891 -0.0665 -0.3040  0.2093
 1213TIP3    H127834   5.411   6.326  19.973 -0.1056  0.7415 -0.3555
 1213TIP3    H227835   5.349   6.244  19.862 -0.3272  0.4437 -0.0124
 1214TIP3   OH227836   1.041   1.589  18.746 -0.2703 -0.4532 -0.2735
 1214TIP3    H127837   0.957   1.616  18.708 -1.1050 -2.7947 -0.2996
 1214TIP3    H227838   1.054   1.647  18.821 -2.4018 -0.5618  0.2558
 1215TIP3   OH227839   5.831   0.561  17.476  0.1489 -0.8260 -0.1664
 1215TIP3    H127840   5.872   0.622  17.414  1.9152 -1.4777  0.3117
 1215TIP3    H227841   5.754   0.529  17.430 -0.9576  1.8591 -0.3797
 1216TIP3   OH227842   6.082   0.981  19.000 -0.6096  0.0515 -0.0613
 1216TIP3    H127843   6.149   1.020  18.944 -0.8910  0.7044  0.0451
 1216TIP3    H227844   6.026   1.055  19.026  0.0839 -0.0609  1.9049
 1217TIP3   OH227845   5.907   0.297  17.843 -0.4030 -0.0829  0.1107
 1217TIP3    H127846   5.975   0.287  17.776 -1.3476 -0.4846 -0.8248
 1217TIP3    H227847   5.854   0.217  17.834  1.1556 -1.6589  3.3825
 1218TIP3   OH227848   0.772   6.264  18.853 -0.4344 -0.3164  0.4327
 1218TIP3    H127849   0.815   6.212  18.920 -0.4753 -1.6581 -0.5364
 1218TIP3    H227850   0.837   6.270  18.783  0.3679  2.7391  1.2988
 1219TIP3   OH227851   3.983   5.886  19.642  0.4232  0.4633 -0.0547
 1219TIP3    H127852   3.946   5.859  19.726  1.6492 -0.5386  0.1940
 1219TIP3    H227853   3.940   5.828  19.578 -0.5750  1.2858 -0.1563
 1220TIP3   OH227854   5.961   1.470  18.146 -0.1222 -0.3080 -0.3396
 1220TIP3    H127855   5.921   1.525  18.213  0.8974 -1.1538  1.0321
 1220TIP3    H227856   6.055   1.475  18.165  0.2252 -0.3363 -1.9122
 1221TIP3   OH227857   1.788   2.581  17.579  0.3267  0.0974  0.2441
 1221TIP3    H127858   1.792   2.673  17.553 -0.2367 -0.2806 -1.3130
 1221TIP3    H227859   1.703   2.571  17.621 -0.3990 -0.0500 -1.1809
 1222TIP3   OH227860   0.510   5.330  19.380  0.3211 -0.3654 -0.1560
 1222TIP3    H127861   0.450   5.288  19.318  0.1140 -0.5856  0.1855
 1222TIP3    H227862   0.508   5.423  19.357 -2.5769  0.1716  1.7857
 1223TIP3   OH227863   6.465   4.142  18.122  0.1114 -0.0886 -0.1131
 1223TIP3    H127864   6.549   4.187  18.119  0.2092 -0.2892 -0.4994
 1223TIP3    H227865   6.487   4.049  18.114  0.0272 -0.3629  2.1681
 1224TIP3   OH227866   4.737   1.579  16.943 -0.1228  0.2853  1.0107
 1224TIP3    H127867   4.744   1.672  16.920 -1.4986  0.3408  0.7182
 1224TIP3    H227868   4.806   1.536  16.892  0.2504  1.0928  0.8246
 1225TIP3   OH227869   2.373   1.074  20.012  0.5388  0.5632 -0.3057
 1225TIP3    H127870   2.299   1.129  19.986  0.1504  0.2309  0.0811
 1225TIP3    H227871   2.387   1.094  20.104 -1.2415 -1.7770  0.5616
 1226TIP3   OH227872   3.719   6.603  18.794 -0.1022  0.2643  0.3105
 1226TIP3    H127873   3.791   6.570  18.740 -0.2628  0.9955 -0.3740
 1226TIP3    H227874   3.642   6.556  18.764 -0.1312  0.4236  0.1296
 1227TIP3   OH227875   4.463   5.303  17.536 -0.5017 -0.5475 -0.4213
 1227TIP3    H127876   4.469   5.251  17.456  0.9377  1.0137 -1.3998
 1227TIP3    H227877   4.551   5.340  17.548 -1.2780  1.1367  0.5482
 1228TIP3   OH227878   5.984   3.065  18.031 -0.3277 -0.1450  0.2059
 1228TIP3    H127879   5.953   2.975  18.028 -1.0529  0.0937  0.3461
 1228TIP3    H227880   5.966   3.094  18.120  0.3079  0.0003  0.2901
 1229TIP3   OH227881   4.507   0.432  18.707 -0.1462  0.1021 -0.2376
 1229TIP3    H127882   4.584   0.432  18.650  0.8054 -0.2941  0.9786
 1229TIP3    H227883   4.461   0.513  18.685  2.0640  1.7655  0.8123
 1230TIP3   OH227884   5.882   4.466  17.751  0.1137  0.5290  0.0491
 1230TIP3    H127885   5.847   4.526  17.686 -1.6133 -1.1571 -0.6953
 1230TIP3    H227886   5.816   4.397  17.758  1.0065 -0.2091  2.4061
 1231TIP3   OH227887   0.787   6.649  17.149  0.3495 -0.2381 -0.4957
 1231TIP3    H127888   0.707   6.612  17.187 -1.4136 -0.8769 -4.3427
 1231TIP3    H227889   0.767   6.742  17.137  1.4145  0.2524  1.1925
 1232TIP3   OH227890   0.890   0.298  17.867 -0.4982 -0.2120  0.3001
 1232TIP3    H127891   0.956   0.256  17.811  0.1219 -0.8975  1.5215
 1232TIP3    H227892   0.807   0.283  17.820 -0.3656 -3.1038  0.7905
 1233TIP3   OH227893   0.183   2.232  18.280  0.6712 -0.0970  0.4940
 1233TIP3    H127894   0.211   2.251  18.370  2.2262 -0.7428  0.1764
 1233TIP3    H227895   0.257   2.259  18.226 -0.2328  0.2499 -0.6104
 1234TIP3   OH227896   0.714   0.621  16.986 -0.7933  0.1032  0.3101
 1234TIP3    H127897   0.696   0.527  16.992 -1.5362  0.2792  0.9249
 1234TIP3    H227898   0.646   0.654  16.928  0.8191 -0.0803 -1.7971
 1235TIP3   OH227899   6.244   2.993  20.244  0.3872 -0.8077 -0.2698
 1235TIP3    H127900   6.320   3.029  20.197  0.0415 -0.7758 -0.8087
 1235TIP3    H227901   6.198   3.070  20.277  1.4184 -0.8713  1.3919
 1236TIP3   OH227902   6.531   1.748  19.056 -0.0717 -0.3178 -0.2480
 1236TIP3    H127903   6.564   1.659  19.047  0.6436 -0.1792  0.7904
 1236TIP3    H227904   6.486   1.749  19.141 -0.8520  0.0806 -0.6497
 1237TIP3   OH227905   4.598   1.583  17.821  0.1734 -0.0972  0.6322
 1237TIP3    H127906   4.552   1.520  17.766 -1.3848 -0.2534  1.9994
 1237TIP3    H227907   4.674   1.610  17.770 -0.9751 -0.5031 -1.4014
 1238TIP3   OH227908   0.761   5.944  16.897 -0.2086 -0.2314  0.2438
 1238TIP3    H127909   0.835   5.958  16.955  1.2982 -0.7074 -1.4796
 1238TIP3    H227910   0.686   5.978  16.945  1.1004  0.2054  2.0693
 1239TIP3   OH227911   1.845   2.504  18.435  0.1713  0.2938  0.1816
 1239TIP3    H127912   1.757   2.497  18.472 -0.4430  0.1003 -1.2326
 1239TIP3    H227913   1.833   2.488  18.341  1.4116  2.3334 -0.3849
 1240TIP3   OH227914   4.760   2.499  19.614 -0.0985 -0.5543 -0.2461
 1240TIP3    H127915   4.738   2.588  19.587  0.4545 -0.5146 -0.5919
 1240TIP3    H227916   4.703   2.443  19.560  0.7766 -0.4615 -1.2967
 1241TIP3   OH227917   4.193   0.355  19.605 -0.1754  0.0094 -0.3000
 1241TIP3    H127918   4.257   0.319  19.543 -1.2123  2.7920 -3.2634
 1241TIP3    H227919   4.236   0.433  19.640 -0.4733 -0.3231  0.8367
 1242TIP3   OH227920   0.553   4.534  16.901  0.6415 -0.0279 -0.3058
 1242TIP3    H127921   0.627   4.582  16.864 -0.0535  0.9407 -0.4703
 1242TIP3    H227922   0.551   4.560  16.993 -1.8644  3.1755 -1.0928
 1243TIP3   OH227923   3.083   5.507  18.914  0.7356 -0.2031  0.5044
 1243TIP3    H127924   3.178   5.505  18.919  0.8054  2.0142  1.4075
 1243TIP3    H227925   3.054   5.473  18.999  0.8541  1.5736  1.3098
 1244TIP3   OH227926   0.823   1.188  19.664  0.6765  0.4552  0.0089
 1244TIP3    H127927   0.911   1.161  19.690  0.1934 -0.7164  0.4947
 1244TIP3    H227928   0.803   1.263  19.719  1.7720  1.4162 -0.8582
 1245TIP3   OH227929   5.015   4.642  18.441  0.0250 -0.7680 -0.0530
 1245TIP3    H127930   4.995   4.550  18.457 -0.1169 -1.0126 -1.5658
 1245TIP3    H227931   4.930   4.683  18.424  0.0889 -0.3449  0.5834
 1246TIP3   OH227932   3.190   1.698  18.746  0.1788  0.1026  0.2942
 1246TIP3    H127933   3.229   1.611  18.747  1.9598  0.8343  2.5787
 1246TIP3    H227934   3.178   1.718  18.654  0.4955 -2.2110 -0.3053
 1247TIP3   OH227935   6.168   5.308  18.381  0.5183  0.3648  0.3949
 1247TIP3    H127936   6.241   5.248  18.369  1.1405  0.7709  1.9237
 1247TIP3    H227937   6.203   5.394  18.360  0.3334  0.4961  0.6198
 1248TIP3   OH227938   1.170   2.787  17.550  0.0601 -0.0697  0.8680
 1248TIP3    H127939   1.181   2.692  17.552 -2.0575 -0.3547  1.9007
 1248TIP3    H227940   1.137   2.805  17.462 -0.0374 -0.3423  0.8482
 1249TIP3   OH227941   0.375   4.035  19.358 -0.0255 -0.3484 -0.8337
 1249TIP3    H127942   0.356   4.070  19.446 -0.8102  0.7305 -1.4021
 1249TIP3    H227943   0.424   4.105  19.315 -0.6656 -0.3863 -1.6420
 1250TIP3   OH227944   3.275   4.199  17.261 -0.8359  0.0950  0.2024
 1250TIP3    H127945   3.293   4.139  17.189  0.4758  1.9115 -1.0938
 1250TIP3    H227946   3.182   4.220  17.253 -0.4832  1.1278 -1.7218
 1251TIP3   OH227947   1.041   1.182  17.386 -0.6829  0.2886  0.5899
 1251TIP3    H127948   1.122   1.234  17.383 -1.0286  0.7911 -0.8793
 1251TIP3    H227949   0.985   1.221  17.318 -1.7558 -0.7122  0.8707
 1252TIP3   OH227950   2.576   3.696  20.054 -0.2864 -0.1989 -0.3852
 1252TIP3    H127951   2.514   3.765  20.030  1.4078  1.2742 -0.7438
 1252TIP3    H227952   2.662   3.733  20.034  0.6476 -2.9475 -1.8826
 1253TIP3   OH227953   0.147   6.662  18.760 -0.3238 -0.1797  0.2977
 1253TIP3    H127954   0.236   6.670  18.725 -1.1879  1.5039 -1.7048
 1253TIP3    H227955   0.141   6.571  18.788  1.2571 -1.0323 -1.8205
 1254TIP3   OH227956   4.926   1.403  18.553  0.1384  0.4680 -0.2048
 1254TIP3    H127957   4.907   1.496  18.544  1.0151  0.6499 -0.2792
 1254TIP3    H227958   4.841   1.361  18.562 -0.3921  1.0616 -2.0631
 1255TIP3   OH227959   6.304   3.478  18.390  0.4488 -0.2520  0.1812
 1255TIP3    H127960   6.270   3.425  18.462 -1.3927 -0.4158 -0.7719
 1255TIP3    H227961   6.288   3.426  18.311 -1.6722  1.7483 -0.8231
 1256TIP3   OH227962   0.120   2.692  17.244  0.0923  0.4314  0.1051
 1256TIP3    H127963   0.207   2.732  17.232 -0.4236  1.5511 -0.0338
 1256TIP3    H227964   0.091   2.671  17.156 -0.0141  0.5647  0.1095
 1257TIP3   OH227965   5.864   2.829  17.047 -0.3686 -0.5329 -0.1470
 1257TIP3    H127966   5.947   2.866  17.015  0.0587 -0.9445  0.4708
 1257TIP3    H227967   5.805   2.904  17.053  0.6234  0.1552  1.5490
 1258TIP3   OH227968   5.842   5.790  17.351 -0.1162 -0.0084  0.5733
 1258TIP3    H127969   5.862   5.863  17.293  1.0659 -2.3544 -2.2110
 1258TIP3    H227970   5.889   5.810  17.432  0.0139  2.3589 -0.0156
 1259TIP3   OH227971   3.115   6.223  19.133 -0.0135 -0.2103 -0.5435
 1259TIP3    H127972   3.021   6.203  19.126  0.0752 -0.9356  0.2426
 1259TIP3    H227973   3.158   6.140  19.111  0.4179 -0.1889  0.2132
 1260TIP3   OH227974   2.270   2.364  17.930 -0.1413 -1.0694  0.3194
 1260TIP3    H127975   2.305   2.446  17.895  0.5993 -0.1970  2.9215
 1260TIP3    H227976   2.271   2.304  17.855 -1.9352  1.5817 -2.0503
 1261TIP3   OH227977   0.341   2.005  18.552 -0.4190 -0.0215 -0.1210
 1261TIP3    H127978   0.307   1.959  18.475  1.2359 -2.3660  0.4118
 1261TIP3    H227979   0.327   2.098  18.534 -0.7500 -0.5385 -2.9113
 1262TIP3   OH227980   3.585   4.638  19.762  0.1779  0.0268  0.0265
 1262TIP3    H127981   3.564   4.655  19.670  1.6938 -1.5903 -0.6757
 1262TIP3    H227982   3.535   4.559  19.784  0.9412 -0.4442  0.1206
 1263TIP3   OH227983   1.896   4.653  19.683  0.0304  0.1063 -0.5704
 1263TIP3    H127984   1.821   4.617  19.731 -0.9708  1.3434 -1.1286
 1263TIP3    H227985   1.969   4.595  19.704 -0.7582 -0.3240  1.1192
 1264TIP3   OH227986   4.544   5.745  18.980 -0.0212  0.1649 -0.6921
 1264TIP3    H127987   4.452   5.720  18.989 -0.1167  0.7216  0.0476
 1264TIP3    H227988   4.581   5.730  19.067  0.2524  1.2063 -0.6132
 1265TIP3   OH227989   0.855   4.312  19.045 -0.1080  0.4136  0.3353
 1265TIP3    H127990   0.918   4.256  19.090 -0.9878  0.2665  1.4301
 1265TIP3    H227991   0.772   4.266  19.052 -0.3779  0.6679 -0.9681
 1266TIP3   OH227992   3.789   6.071  17.815 -0.2571  0.1241  0.6825
 1266TIP3    H127993   3.824   6.157  17.839 -0.3746  0.3263  0.1355
 1266TIP3    H227994   3.723   6.090  17.749  1.3518 -0.5347 -1.2379
 1267TIP3   OH227995   1.739   2.632  19.330  0.4246  0.1474 -0.3023
 1267TIP3    H127996   1.832   2.608  19.336 -0.2320 -3.0672 -0.7933
 1267TIP3    H227997   1.733   2.684  19.250  1.9551  1.4856  0.4084
 1268TIP3   OH227998   4.707   5.572  16.625 -0.4022 -0.4585  0.3107
 1268TIP3    H127999   4.629   5.556  16.571  0.2007  0.0628 -0.7486
 1268TIP3    H228000   4.754   5.641  16.579  0.9116 -1.0656  0.7000
 1269TIP3   OH228001   2.969   4.434  17.774 -0.2282 -0.4453  0.1132
 1269TIP3    H128002   2.887   4.437  17.725 -0.3393  2.1194  0.2837
 1269TIP3    H228003   2.962   4.355  17.828 -1.4101 -1.6974 -1.7633
 1270TIP3   OH228004   3.667   5.953  19.446  0.1555 -0.4345  0.1231
 1270TIP3    H128005   3.622   5.961  19.362  1.4236 -0.6782 -0.6112
 1270TIP3    H228006   3.674   6.043  19.478 -2.9382 -0.5565  1.4637
 1271TIP3   OH228007   2.783   4.931  18.347 -0.0508  0.2306  0.4404
 1271TIP3    H128008   2.821   4.937  18.259 -0.3638  1.8457  0.3767
 1271TIP3    H228009   2.857   4.938  18.407  0.3267 -2.2450  0.3530
 1272TIP3   OH228010   5.810   4.642  17.540 -0.8287  0.2882 -0.1861
 1272TIP3    H128011   5.740   4.589  17.500 -0.2315 -0.5273 -0.1726
 1272TIP3    H228012   5.885   4.630  17.482 -0.6627  1.0853 -0.1482
 1273TIP3   OH228013   2.369   6.551  19.456  0.5465  0.1213 -0.1175
 1273TIP3    H128014   2.363   6.555  19.552  1.1263  1.4728 -0.1251
 1273TIP3    H228015   2.462   6.539  19.439  0.4689  0.0977 -0.5201
 1274TIP3   OH228016   2.799   6.252  18.790  0.3362 -0.0951 -0.1195
 1274TIP3    H128017   2.841   6.243  18.704 -1.8147  0.2284 -1.3054
 1274TIP3    H228018   2.712   6.288  18.769 -0.0037  0.6103  2.2738
 1275TIP3   OH228019   3.041   4.160  16.678 -0.0909  0.3631  0.6309
 1275TIP3    H128020   3.021   4.248  16.646 -0.2932  0.3699  0.7692
 1275TIP3    H228021   3.131   4.144  16.651 -1.3607 -1.1692 -3.4832
 1276TIP3   OH228022   4.848   4.460  17.706  0.4220  0.2152  0.0226
 1276TIP3    H128023   4.784   4.401  17.666  2.2974 -1.2567 -0.9533
 1276TIP3    H228024   4.918   4.467  17.641  3.0269 -1.2287  2.4457
 1277TIP3   OH228025   4.703   4.270  18.452 -0.5016  0.5137 -0.1348
 1277TIP3    H128026   4.789   4.304  18.425  0.3516 -0.9532  0.6551
 1277TIP3    H228027   4.686   4.198  18.391  0.3723 -1.3232  1.7099
 1278TIP3   OH228028   1.958   1.153  17.344  0.3444 -0.1120 -0.8364
 1278TIP3    H128029   2.040   1.157  17.393 -1.0808 -1.3939  1.8318
 1278TIP3    H228030   1.890   1.171  17.409 -1.6362 -1.0895 -2.5156
 1279TIP3   OH228031   0.385   1.180  19.480  0.4156 -0.2444  0.4159
 1279TIP3    H128032   0.451   1.136  19.534  1.9527 -0.2075 -1.3505
 1279TIP3    H228033   0.404   1.153  19.390 -1.1239  0.8608 -0.3038
 1280TIP3   OH228034   1.723   4.016  19.686 -0.1401 -0.1262  0.4002
 1280TIP3    H128035   1.730   4.111  19.682  0.1293 -0.1347 -3.6147
 1280TIP3    H228036   1.809   3.986  19.716  0.9236  0.8927 -1.4795
 1281TIP3   OH228037   5.860   2.393  18.104 -0.0922 -0.1204  0.1235
 1281TIP3    H128038   5.796   2.432  18.164 -0.6349  0.4686 -0.8033
 1281TIP3    H228039   5.810   2.376  18.024  0.5807 -1.0204 -0.1259
 1282TIP3   OH228040   0.138   6.008  19.658 -0.4377  0.4688  0.2394
 1282TIP3    H128041   0.066   6.066  19.683 -0.1244  1.2742 -0.6624
 1282TIP3    H228042   0.094   5.928  19.627 -0.8516 -0.0936  2.1544
 1283TIP3   OH228043   4.936   6.084  19.889  0.3224 -0.4480  0.4242
 1283TIP3    H128044   4.869   6.128  19.836  1.0059 -1.2126 -1.1488
 1283TIP3    H228045   4.916   6.110  19.979 -2.5749 -1.3059  0.1282
 1284TIP3   OH228046   5.924   3.551  17.174 -0.1638  0.0311 -0.1928
 1284TIP3    H128047   5.983   3.624  17.192  1.0663 -0.6990 -1.0666
 1284TIP3    H228048   5.970   3.474  17.210 -1.3120 -0.3557  0.4865
 1285TIP3   OH228049   6.518   3.068  18.199 -0.1169  0.8350 -0.4788
 1285TIP3    H128050   6.528   3.054  18.293  1.2020  0.3571 -0.6711
 1285TIP3    H228051   6.464   2.995  18.170 -1.1546  1.3834 -0.0004
 1286TIP3   OH228052   5.724   0.075  19.938  0.1033  0.5125  0.4105
 1286TIP3    H128053   5.770   0.142  19.888  1.1344  0.0441  0.6973
 1286TIP3    H228054   5.771  -0.006  19.918 -0.9399 -0.0808  0.2953
 1287TIP3   OH228055   1.715   6.532  18.105 -0.7955  0.3760 -0.7317
 1287TIP3    H128056   1.681   6.609  18.059  0.4575  1.0864 -0.5174
 1287TIP3    H228057   1.737   6.470  18.036 -0.6219  0.7251 -0.9943
 1288TIP3   OH228058   0.392   0.162  18.699 -0.3902  0.1729  0.1544
 1288TIP3    H128059   0.420   0.189  18.786  3.2475  1.7114 -1.2964
 1288TIP3    H228060   0.422   0.072  18.691  0.0801  0.3267  0.1798
 1289TIP3   OH228061   5.593   6.319  17.775  0.0229  0.9039 -0.2247
 1289TIP3    H128062   5.588   6.250  17.840 -3.4459 -0.7442 -1.9658
 1289TIP3    H228063   5.665   6.292  17.717  1.9898  1.5121  1.7702
 1290TIP3   OH228064   5.398   4.925  17.368  0.1354  0.6465  0.1015
 1290TIP3    H128065   5.396   4.958  17.278 -2.0733 -1.8625 -0.8956
 1290TIP3    H228066   5.454   4.847  17.364 -0.0806  0.4383  0.8809
 1291TIP3   OH228067   2.314   4.645  17.654 -0.2827  0.2919 -0.0854
 1291TIP3    H128068   2.271   4.729  17.642  0.9919  1.0677  0.6323
 1291TIP3    H228069   2.286   4.616  17.741 -2.0726 -0.8874 -0.9761
 1292TIP3   OH228070   5.571   3.795  17.671  0.0979  0.0353  0.4753
 1292TIP3    H128071   5.495   3.820  17.619 -0.4983 -0.1541  1.2291
 1292TIP3    H228072   5.539   3.795  17.762  0.1832 -2.8319  0.6083
 1293TIP3   OH228073   0.841   1.308  18.521 -0.0822 -0.3126  0.3502
 1293TIP3    H128074   0.887   1.294  18.438 -0.3227  0.2099  0.1161
 1293TIP3    H228075   0.895   1.266  18.587  1.2337  1.0964  0.2171
 1294TIP3   OH228076   6.348   2.549  20.272 -0.8844 -0.5784 -0.0656
 1294TIP3    H128077   6.260   2.582  20.253 -0.9590 -0.2572  0.7512
 1294TIP3    H228078   6.406   2.602  20.218 -1.0752  0.3660  0.6141
 1295TIP3   OH228079   0.796   1.028  16.993  0.5388  0.1516 -0.0427
 1295TIP3    H128080   0.826   1.040  16.903 -1.5358  0.6383 -0.7472
 1295TIP3    H228081   0.712   0.982  16.985 -0.1191  0.9526  1.5546
 1296TIP3   OH228082   1.945   0.496  20.125 -0.0181 -0.1167 -0.0795
 1296TIP3    H128083   2.008   0.426  20.110  0.2939  0.1112  0.1445
 1296TIP3    H228084   1.997   0.576  20.123 -0.5580  0.2258 -1.5575
 1297TIP3   OH228085   3.872   0.366  18.278  0.0442 -0.1054 -0.2242
 1297TIP3    H128086   3.823   0.370  18.196 -1.4996  0.9066  0.6962
 1297TIP3    H228087   3.885   0.458  18.303  0.5160 -0.3926  0.6386
 1298TIP3   OH228088   0.991   1.232  19.081 -0.0161 -0.5451  0.8280
 1298TIP3    H128089   0.898   1.230  19.058 -0.0470 -1.1419  0.9735
 1298TIP3    H228090   0.993   1.267  19.170  0.1272  2.0546 -0.1092
 1299TIP3   OH228091   1.340   3.157  18.333 -0.4515  0.1127  0.6675
 1299TIP3    H128092   1.267   3.217  18.345  1.2502  2.2939  0.7051
 1299TIP3    H228093   1.378   3.148  18.420  0.7418  0.9416  0.2480
 1300TIP3   OH228094   5.397   2.072  18.143  0.4907 -0.1534 -0.3089
 1300TIP3    H128095   5.469   2.121  18.183 -0.2232 -0.2071  1.1226
 1300TIP3    H228096   5.422   1.980  18.153  0.1871 -0.1765  0.3039
 1301TIP3   OH228097   0.948   4.123  17.612  0.4071  0.2244 -0.4749
 1301TIP3    H128098   0.884   4.062  17.576  0.1804  0.9894 -1.4122
 1301TIP3    H228099   1.010   4.067  17.660 -0.9723 -0.5168  0.5080
 1302TIP3   OH228100   3.373   3.224  17.537  0.1741  0.2764 -0.4685
 1302TIP3    H128101   3.337   3.225  17.626 -0.5193  0.4977 -0.7412
 1302TIP3    H228102   3.459   3.266  17.545  0.6688 -0.8511  0.3111
 1303TIP3   OH228103   0.742   6.275  18.436  0.0898  0.5638 -0.3299
 1303TIP3    H128104   0.648   6.259  18.439 -0.2384  2.4438  0.7628
 1303TIP3    H228105   0.779   6.193  18.403 -1.7469 -0.8592  0.9555
 1304TIP3   OH228106   4.483   5.218  19.496  0.2098 -0.2657  0.0996
 1304TIP3    H128107   4.454   5.129  19.477  2.4018 -0.9953 -0.1897
 1304TIP3    H228108   4.559   5.206  19.553  0.8365  1.3889 -0.3309
 1305TIP3   OH228109   1.299   5.237  17.138 -0.5225  0.2992  0.3478
 1305TIP3    H128110   1.387   5.267  17.164 -0.5760 -1.1413  2.4200
 1305TIP3    H228111   1.314   5.185  17.060  0.3531  0.7334  0.2086
 1306TIP3   OH228112   6.162   1.105  19.563 -0.3425 -0.4628 -0.1628
 1306TIP3    H128113   6.085   1.159  19.579  0.1462 -0.3149  1.9758
 1306TIP3    H228114   6.160   1.039  19.633 -0.4875 -2.7877 -2.2050
 1307TIP3   OH228115   6.412   4.509  17.747  0.3361 -0.1056 -0.2592
 1307TIP3    H128116   6.456   4.439  17.697  1.4678 -0.1882  0.7898
 1307TIP3    H228117   6.475   4.531  17.816 -1.0718  0.1731  0.9757
 1308TIP3   OH228118   2.849   4.736  19.351  0.4869 -0.0722 -0.2591
 1308TIP3    H128119   2.929   4.787  19.339  0.7567 -0.5779 -0.6310
 1308TIP3    H228120   2.879   4.652  19.386 -0.1778  1.0223  3.3262
 1309TIP3   OH228121   4.077   5.105  19.120  0.0906  0.0684 -0.5345
 1309TIP3    H128122   4.120   5.150  19.047  1.5508 -1.3597 -0.5997
 1309TIP3    H228123   4.027   5.034  19.078 -0.1807  0.0806 -0.2398
 1310TIP3   OH228124   2.105   0.167  18.805  0.3456 -0.1765 -0.0401
 1310TIP3    H128125   2.111   0.119  18.722  1.5343 -0.2974  0.0918
 1310TIP3    H228126   2.090   0.258  18.779  0.9045 -0.1802 -0.4102
 1311TIP3   OH228127   1.674   2.321  18.874 -0.4664 -0.0605  0.1489
 1311TIP3    H128128   1.691   2.266  18.951 -3.4409 -1.7167 -0.2309
 1311TIP3    H228129   1.698   2.266  18.799  0.1767  0.6531 -0.1822
 1312TIP3   OH228130   4.205   6.057  19.503  0.0215 -0.7444  0.3354
 1312TIP3    H128131   4.204   6.148  19.474  0.8305 -0.5945  0.7507
 1312TIP3    H228132   4.118   6.024  19.482  0.6146 -0.7232 -2.4947
 1313TIP3   OH228133   1.743   3.629  19.674  0.3048 -0.1410 -0.3548
 1313TIP3    H128134   1.730   3.609  19.767 -0.1800 -1.0250 -0.5952
 1313TIP3    H228135   1.727   3.546  19.630 -1.5680  0.7046 -1.4034
 1314TIP3   OH228136   4.527   0.482  17.772 -0.5815 -0.3499 -0.3381
 1314TIP3    H128137   4.557   0.573  17.778 -0.2242 -0.3638 -1.5675
 1314TIP3    H228138   4.514   0.454  17.863 -0.3367  0.8073  0.0637
 1315TIP3   OH228139   2.921   3.386  17.114 -0.5201  0.7119  0.1321
 1315TIP3    H128140   2.843   3.375  17.060  0.4740  1.7783 -1.6365
 1315TIP3    H228141   2.948   3.297  17.136 -1.4552  0.2901 -0.3861
 1316TIP3   OH228142   3.374   3.218  18.009 -0.3795 -0.5953  0.1829
 1316TIP3    H128143   3.428   3.275  18.064  1.3160 -1.3859 -0.6170
 1316TIP3    H228144   3.290   3.214  18.056 -0.3710  2.0149  0.5947
 1317TIP3   OH228145   4.541   2.763  17.944  0.6038 -0.1037  0.1026
 1317TIP3    H128146   4.490   2.817  18.003 -1.1373 -1.8405  0.2802
 1317TIP3    H228147   4.563   2.685  17.995  1.9944 -0.1477 -0.5177
 1318TIP3   OH228148   3.809   2.957  16.605  0.1490 -0.5392 -0.4753
 1318TIP3    H128149   3.801   2.878  16.659  2.7691 -2.8738 -3.1434
 1318TIP3    H228150   3.881   3.005  16.645 -1.4766  0.6935  1.1791
 1319TIP3   OH228151   1.181   2.290  18.539  0.3112  0.2651  0.3807
 1319TIP3    H128152   1.088   2.298  18.521  0.4058 -1.0033 -0.8527
 1319TIP3    H228153   1.208   2.210  18.493  1.7684 -0.0458  1.6753
 1320TIP3   OH228154   5.810   2.068  20.352 -0.2026 -0.7084  0.4899
 1320TIP3    H128155   5.890   2.022  20.325  0.0338  0.6152 -1.2687
 1320TIP3    H228156   5.840   2.138  20.409 -0.0052  0.1073 -0.5802
 1321TIP3   OH228157   2.924   0.355  18.056  0.2625  0.5003 -0.2958
 1321TIP3    H128158   2.957   0.431  18.008 -1.8799  0.9205 -1.1868
 1321TIP3    H228159   2.972   0.357  18.139  1.0014  2.2177 -0.7238
 1322TIP3   OH228160   6.394   5.799  18.295 -0.1743  0.1367  0.1376
 1322TIP3    H128161   6.385   5.733  18.226  2.1912 -0.5718  0.4117
 1322TIP3    H228162   6.341   5.873  18.266  0.2745 -0.3751 -2.1552
 1323TIP3   OH228163   6.482   3.070  19.809  0.4927 -0.7317 -0.1270
 1323TIP3    H128164   6.575   3.091  19.805  0.3962 -0.3584 -0.5507
 1323TIP3    H228165   6.443   3.120  19.737 -0.1065 -0.5210  0.3343
 1324TIP3   OH228166   5.051   1.403  19.368 -0.4301 -0.0144 -0.2825
 1324TIP3    H128167   5.119   1.356  19.320 -0.2668  0.8039 -0.8776
 1324TIP3    H228168   4.973   1.395  19.313 -0.6582 -0.4467  0.1073
 1325TIP3   OH228169   2.529   2.967  20.105  0.0199 -0.2238 -0.2061
 1325TIP3    H128170   2.487   2.883  20.124  0.3183 -0.4343 -0.4634
 1325TIP3    H228171   2.622   2.948  20.109  0.0916  0.1481 -0.0521
 1326TIP3   OH228172   4.393   4.872  18.608 -0.0060  0.3802 -0.3313
 1326TIP3    H128173   4.339   4.918  18.544  0.4535  0.5615 -0.6000
 1326TIP3    H228174   4.483   4.887  18.578  0.1609 -0.5257 -0.3161
 1327TIP3   OH228175   6.313   3.984  19.336 -0.0644 -0.0800  0.4663
 1327TIP3    H128176   6.354   3.953  19.416  2.4233 -1.5803 -1.2755
 1327TIP3    H228177   6.318   4.080  19.342 -0.0988 -0.1472  2.1163
 1328TIP3   OH228178   5.889   1.185  19.093 -0.1317  0.9755  0.6139
 1328TIP3    H128179   5.942   1.161  19.169  0.1308  0.3495  0.2490
 1328TIP3    H228180   5.799   1.180  19.124 -0.0531  0.1256  0.7339
 1329TIP3   OH228181   6.081   2.484  17.919 -0.6259  0.7292 -0.4241
 1329TIP3    H128182   6.173   2.475  17.942 -0.4385  1.3341 -0.9302
 1329TIP3    H228183   6.034   2.458  17.998 -0.0415 -0.3783 -0.4229
 1330TIP3   OH228184   2.354   0.979  18.478 -0.1686  0.2288 -0.3009
 1330TIP3    H128185   2.301   1.054  18.505  0.7352  0.8357 -0.1852
 1330TIP3    H228186   2.320   0.906  18.530 -0.0209  0.8837  0.7371
 1331TIP3   OH228187   5.670   4.222  18.207  0.0603 -0.2448  0.0705
 1331TIP3    H128188   5.685   4.316  18.203 -0.1254 -0.0262  2.6305
 1331TIP3    H228189   5.646   4.205  18.298 -1.6415 -2.5256 -0.6724
 1332TIP3   OH228190   1.596   4.177  20.017 -0.0336 -0.7682  0.0453
 1332TIP3    H128191   1.507   4.143  20.008 -0.5499  0.6372 -0.3636
 1332TIP3    H228192   1.614   4.174  20.111 -1.4070  1.0422  0.4212
 1333TIP3   OH228193   4.890   5.043  19.001  0.4513 -0.0099 -0.6127
 1333TIP3    H128194   4.906   5.064  19.093 -0.5834 -0.6791 -0.2585
 1333TIP3    H228195   4.973   5.007  18.969  0.2226 -1.7685  0.6578
 1334TIP3   OH228196   2.083   1.611  19.091  0.5536 -0.6269  0.4313
 1334TIP3    H128197   2.163   1.594  19.042 -0.6902 -2.0647 -1.2110
 1334TIP3    H228198   2.067   1.705  19.079  1.7821 -0.4047  0.4769
 1335TIP3   OH228199   4.721   4.130  17.972 -0.5253 -0.3657 -0.1806
 1335TIP3    H128200   4.633   4.163  17.991 -0.2152  1.4910 -1.7096
 1335TIP3    H228201   4.706   4.048  17.925 -1.3938 -0.4372  0.1955
 1336TIP3   OH228202   0.711   4.068  19.061 -0.6014 -0.3645 -0.4085
 1336TIP3    H128203   0.671   4.104  19.141  0.1262  0.3443 -0.3543
 1336TIP3    H228204   0.740   3.980  19.086  1.8309  0.7091  0.8767
 1337TIP3   OH228205   0.856   4.469  19.710  0.1649  0.7471 -0.0497
 1337TIP3    H128206   0.886   4.531  19.644 -0.2389  1.6776  0.6238
 1337TIP3    H228207   0.870   4.383  19.670  0.5703  1.2677 -1.0637
 1338TIP3   OH228208   1.157   5.757  17.387  0.4246 -0.7045 -0.1591
 1338TIP3    H128209   1.062   5.760  17.400  0.1953 -1.9346 -1.3246
 1338TIP3    H228210   1.184   5.674  17.426  1.2532  0.2493  1.3618
 1339TIP3   OH228211   2.110   5.856  19.194  0.4059 -0.3163  0.2992
 1339TIP3    H128212   2.180   5.851  19.129 -0.2005 -0.2616 -0.3673
 1339TIP3    H228213   2.110   5.947  19.222  0.0302 -0.1008 -0.3632
 1340TIP3   OH228214   1.577   0.597  18.039  0.8391  0.3950 -0.7031
 1340TIP3    H128215   1.583   0.502  18.027  1.6420  0.3252  0.1163
 1340TIP3    H228216   1.503   0.623  17.985 -1.3036 -1.1056  1.2813
 1341TIP3   OH228217   1.079   5.389  20.291 -0.5870  0.1737 -0.0222
 1341TIP3    H128218   1.132   5.374  20.369 -1.0109 -1.1662  0.0320
 1341TIP3    H228219   1.140   5.424  20.227 -0.1132  0.7343  0.7182
 1342TIP3   OH228220   3.123   1.173  19.417 -0.0314 -0.2317  0.0518
 1342TIP3    H128221   3.061   1.100  19.424  1.8202 -1.8195  0.7908
 1342TIP3    H228222   3.155   1.168  19.327 -2.2951  1.8177 -0.9768
 1343TIP3   OH228223   1.799   1.134  18.174  0.5746 -0.2296 -0.3776
 1343TIP3    H128224   1.704   1.125  18.182  0.2656  1.9807 -0.9438
 1343TIP3    H228225   1.833   1.046  18.191 -1.5695 -1.1040 -0.3250
 1344TIP3   OH228226   4.562   2.501  19.956  0.2803  0.6493 -0.2535
 1344TIP3    H128227   4.599   2.455  20.031 -0.8215  0.6112  0.2882
 1344TIP3    H228228   4.572   2.594  19.978 -2.0554  0.6606  1.0240
 1345TIP3   OH228229   1.892   5.753  20.013  0.4394  0.0942 -0.0265
 1345TIP3    H128230   1.968   5.696  20.012 -0.3514 -1.0600  1.3379
 1345TIP3    H228231   1.818   5.695  19.993 -0.1856  1.0283 -0.5181
 1346TIP3   OH228232   6.073   4.445  19.926  0.2467  0.5086  0.2259
 1346TIP3    H128233   6.157   4.413  19.959  1.0263 -0.5178 -2.4946
 1346TIP3    H228234   6.097   4.510  19.860 -1.1977  1.8174  0.9285
 1347TIP3   OH228235   6.373   0.955  17.565  0.7608  0.0999  0.5495
 1347TIP3    H128236   6.294   0.913  17.599  0.2574  0.2631 -0.3907
 1347TIP3    H228237   6.346   0.992  17.481  2.0063 -0.3725 -0.0758
 1348TIP3   OH228238   0.429   4.807  17.372 -0.2574 -0.0108  0.6063
 1348TIP3    H128239   0.333   4.815  17.377 -0.1897  1.9217 -0.3291
 1348TIP3    H228240   0.462   4.884  17.417  0.8197  0.2467 -0.5747
 1349TIP3   OH228241   1.376   0.374  19.170  0.0088 -0.1680 -0.1194
 1349TIP3    H128242   1.358   0.465  19.144  1.8270  0.6048  1.0922
 1349TIP3    H228243   1.462   0.355  19.132  0.2191 -0.9311  0.7074
 1350TIP3   OH228244   3.474   1.151  18.700 -0.2840  0.1455  0.1858
 1350TIP3    H128245   3.499   1.081  18.640  0.4307 -0.0877  0.7463
 1350TIP3    H228246   3.410   1.203  18.651  0.9799  0.5226 -1.1264
 1351TIP3   OH228247   2.116   5.861  18.066 -0.5649  0.2930  0.1615
 1351TIP3    H128248   2.034   5.910  18.057 -1.0703 -0.5915 -0.2896
 1351TIP3    H228249   2.170   5.890  17.993 -0.1607  1.4423  0.8992
 1352TIP3   OH228250   1.428   3.794  19.260 -0.0257  0.1991 -0.1888
 1352TIP3    H128251   1.513   3.754  19.281 -0.5044 -0.8952 -0.2606
 1352TIP3    H228252   1.432   3.809  19.165  0.0832  0.1545 -0.1923
 1353TIP3   OH228253   4.901   3.209  18.291 -0.0986  0.2583  0.1220
 1353TIP3    H128254   4.848   3.254  18.357 -0.2460  1.6336 -0.8741
 1353TIP3    H228255   4.989   3.206  18.329 -0.5747 -0.8084  1.2100
 1354TIP3   OH228256   1.293   4.591  18.884 -0.2423  0.6387 -0.1478
 1354TIP3    H128257   1.346   4.607  18.806  0.7204 -0.5510  0.2251
 1354TIP3    H228258   1.243   4.671  18.896  1.9576  2.1089 -0.1654
 1355TIP3   OH228259   0.675   1.146  17.227  0.3568  0.2264 -0.3125
 1355TIP3    H128260   0.769   1.158  17.217  0.8266 -0.7660  2.2381
 1355TIP3    H228261   0.665   1.057  17.260 -1.1897  1.2140  2.1493
 1356TIP3   OH228262   3.741   4.574  18.611  0.6536 -0.1715  0.2957
 1356TIP3    H128263   3.730   4.507  18.678  0.7326  0.3164  0.8105
 1356TIP3    H228264   3.835   4.592  18.611  0.4526  1.1004  1.3479
 1357TIP3   OH228265   1.726   1.018  20.089 -0.1038 -0.0332 -0.2716
 1357TIP3    H128266   1.637   1.048  20.110  0.6350 -0.0024  3.4607
 1357TIP3    H228267   1.724   0.924  20.103  0.4807 -0.0147 -0.0302
 1358TIP3   OH228268   3.431   6.369  17.584 -0.1507 -0.1807  0.1312
 1358TIP3    H128269   3.432   6.362  17.680 -1.9627 -0.3054  0.1893
 1358TIP3    H228270   3.473   6.453  17.566  0.1754 -0.1373  1.0451
 1359TIP3   OH228271   0.730   1.673  18.870 -0.4138 -0.6505 -0.2792
 1359TIP3    H128272   0.751   1.626  18.789  1.9296 -1.2606  0.5747
 1359TIP3    H228273   0.696   1.758  18.841  3.3034  0.4718 -2.1053
 1360TIP3   OH228274   5.358   3.642  18.163 -0.3914  0.6337  0.5137
 1360TIP3    H128275   5.429   3.591  18.201 -0.7138  0.7078  1.2419
 1360TIP3    H228276   5.337   3.707  18.230 -1.7563  0.0307  0.7006
 1361TIP3   OH228277   4.588   4.481  18.551 -0.1896  0.4311 -0.1682
 1361TIP3    H128278   4.638   4.418  18.499  1.7333  2.3455 -0.7960
 1361TIP3    H228279   4.497   4.453  18.542  0.4300 -1.2329 -1.8471
 1362TIP3   OH228280   6.123   0.632  18.841  0.2375  0.7927 -0.2753
 1362TIP3    H128281   6.179   0.681  18.780  2.1448 -0.2841  0.5094
 1362TIP3    H228282   6.075   0.699  18.889 -0.9883  1.6743 -2.6086
 1363TIP3   OH228283   2.394   5.492  17.711 -0.1941  0.5213 -0.4958
 1363TIP3    H128284   2.391   5.513  17.805  2.0930 -0.6503 -0.0636
 1363TIP3    H228285   2.416   5.398  17.709 -0.3779  0.4950 -2.2187
 1364TIP3   OH228286   3.975   4.589  18.333 -0.7697 -0.3726 -0.3005
 1364TIP3    H128287   3.970   4.675  18.375 -1.0841  0.3806 -1.8352
 1364TIP3    H228288   4.059   4.553  18.362 -0.0672  0.9732 -0.6033
 1365TIP3   OH228289   4.034   6.208  17.659 -0.2801  0.0457 -0.4357
 1365TIP3    H128290   4.065   6.168  17.578 -2.0891 -0.3973 -0.9532
 1365TIP3    H228291   3.956   6.258  17.634 -0.9881 -0.2478  1.0303
 1366TIP3   OH228292   2.135   6.375  18.282 -0.3599 -0.2282 -0.0785
 1366TIP3    H128293   2.186   6.456  18.279  0.0084 -0.4242  0.6613
 1366TIP3    H228294   2.152   6.339  18.369  1.4444 -2.3744 -1.2303
 1367TIP3   OH228295   3.548   5.716  17.379 -0.0051 -0.6779  0.2258
 1367TIP3    H128296   3.579   5.626  17.387 -1.1679 -1.0471  0.8594
 1367TIP3    H228297   3.516   5.737  17.467 -0.2973  0.1426 -0.0773
 1368TIP3   OH228298   0.375   5.092  17.234 -0.1195  0.0130 -0.2559
 1368TIP3    H128299   0.451   5.067  17.288  0.5150 -0.0497 -1.1529
 1368TIP3    H228300   0.411   5.102  17.146 -0.7789  1.9046 -0.3537
 1369TIP3   OH228301   4.323   1.182  17.955 -0.0046  0.1138  0.1503
 1369TIP3    H128302   4.229   1.184  17.969  0.2883 -0.5186  2.8095
 1369TIP3    H228303   4.356   1.258  18.002  0.9061 -0.3098  0.2202
 1370TIP3   OH228304   4.826   3.350  18.890  0.4487  0.2697  0.2939
 1370TIP3    H128305   4.826   3.275  18.949  1.5410 -0.3903 -0.4975
 1370TIP3    H228306   4.781   3.419  18.938 -0.7199 -0.9369  0.9812
 1371TIP3   OH228307   4.232   6.348  19.506  0.1937 -0.0827 -0.7781
 1371TIP3    H128308   4.193   6.402  19.575 -0.0720  0.5273 -1.3906
 1371TIP3    H228309   4.186   6.374  19.427 -0.0286 -1.3336 -1.0675
 1372TIP3   OH228310   4.767   5.353  17.268 -0.0780  0.1189  0.5796
 1372TIP3    H128311   4.730   5.435  17.302  1.6768  1.5016 -0.6920
 1372TIP3    H228312   4.859   5.356  17.293  0.3250 -0.7761 -0.7096
 1373TIP3   OH228313   3.512   0.300  17.457 -0.1214 -0.4976 -0.6847
 1373TIP3    H128314   3.501   0.269  17.367 -0.7035 -0.8053 -0.5136
 1373TIP3    H228315   3.578   0.242  17.495 -2.4220 -2.7868  0.1753
 1374TIP3   OH228316   3.785   1.126  19.008  0.9407  0.1510  0.0309
 1374TIP3    H128317   3.827   1.064  18.948 -0.6758 -0.7688 -0.2076
 1374TIP3    H228318   3.724   1.072  19.059  2.4760  0.8430  2.7718
 1375TIP3   OH228319   0.257   5.569  18.265 -0.2260  0.3473 -0.8684
 1375TIP3    H128320   0.241   5.475  18.268  0.0559  0.3173 -0.3746
 1375TIP3    H228321   0.171   5.608  18.283 -0.3024  0.1905 -0.8874
 1376TIP3   OH228322   2.575   5.594  19.479 -0.4634 -0.1107  0.0625
 1376TIP3    H128323   2.598   5.659  19.413  1.9650 -1.1051 -0.1870
 1376TIP3    H228324   2.656   5.547  19.495 -1.7964 -2.1430  1.2896
 1377TIP3   OH228325   3.746   6.093  19.051 -0.3615  0.2098 -0.0762
 1377TIP3    H128326   3.780   6.130  19.133  0.5496 -0.3095 -0.2029
 1377TIP3    H228327   3.729   6.001  19.071  3.6091 -1.0279 -1.4052
 1378TIP3   OH228328   4.615   6.615  17.096 -0.2479 -0.3199 -0.6050
 1378TIP3    H128329   4.643   6.528  17.068 -1.0072 -0.6642 -0.3339
 1378TIP3    H228330   4.606   6.664  17.014  1.0451 -0.2171 -0.7011
 1379TIP3   OH228331   2.368   0.178  19.742  0.5317  0.1653 -0.1704
 1379TIP3    H128332   2.441   0.125  19.709 -1.3382 -1.8483 -1.3187
 1379TIP3    H228333   2.325   0.212  19.664 -0.1176  0.8260  0.4606
 1380TIP3   OH228334   4.325   2.377  19.658 -0.4987 -0.4467  0.5814
 1380TIP3    H128335   4.374   2.302  19.693  0.5334  0.7642  1.8364
 1380TIP3    H228336   4.372   2.453  19.691 -1.2428  0.7777 -1.0713
 1381TIP3   OH228337   1.249   2.673  19.829 -0.0280 -0.4282 -0.1151
 1381TIP3    H128338   1.293   2.646  19.749 -2.2242 -1.7245 -0.9753
 1381TIP3    H228339   1.275   2.608  19.894 -0.9772 -1.4885 -0.7494
 1382TIP3   OH228340   3.017   1.180  18.373  0.1926  0.8046  0.4513
 1382TIP3    H128341   3.057   1.101  18.408  0.8409  0.3640 -1.1941
 1382TIP3    H228342   3.026   1.245  18.443 -0.3161 -0.5415  1.8062
 1383TIP3   OH228343   2.355   5.184  17.805  0.4566  0.2121 -0.1547
 1383TIP3    H128344   2.360   5.094  17.772  1.0961 -0.0528  0.6493
 1383TIP3    H228345   2.290   5.180  17.875 -0.7925  0.7452 -1.2380
 1384TIP3   OH228346   5.038   4.055  16.912  0.1799 -0.0022  0.1835
 1384TIP3    H128347   5.018   3.991  16.981  0.6220  1.4257  1.6889
 1384TIP3    H228348   5.114   4.017  16.867 -0.5969 -1.3346 -0.0875
 1385TIP3   OH228349   2.906   6.294  19.622 -0.1947  0.3316 -0.0387
 1385TIP3    H128350   2.975   6.229  19.609 -1.6018 -1.3826  0.6615
 1385TIP3    H228351   2.914   6.354  19.548 -0.1313 -1.8439 -1.8873
 1386TIP3   OH228352   1.576   4.715  19.946  0.8558 -0.3946  0.1481
 1386TIP3    H128353   1.627   4.790  19.978  0.4212 -0.0826  0.1104
 1386TIP3    H228354   1.587   4.648  20.014  1.7236 -0.5127 -0.0943
 1387TIP3   OH228355   5.924   0.461  16.632  0.1085  0.1442  0.0654
 1387TIP3    H128356   5.856   0.456  16.699 -1.1036  0.1608 -1.1259
 1387TIP3    H228357   5.884   0.510  16.560  0.6709 -1.5359 -1.4723
 1388TIP3   OH228358   1.259   4.458  17.831 -0.3598  0.3311 -0.5143
 1388TIP3    H128359   1.264   4.549  17.859 -1.1374  0.6670 -1.4225
 1388TIP3    H228360   1.167   4.435  17.839 -0.1732 -0.3704 -0.3111
 1389TIP3   OH228361   5.124   3.414  17.396 -0.1170 -0.5548  0.0945
 1389TIP3    H128362   5.197   3.407  17.335  0.7328  0.6845  0.9225
 1389TIP3    H228363   5.165   3.437  17.480 -1.3750 -0.7894  0.7990
 1390TIP3   OH228364   0.853   5.274  18.106  0.0854 -0.0679 -0.0840
 1390TIP3    H128365   0.821   5.288  18.196 -0.2047  1.7285 -0.4156
 1390TIP3    H228366   0.801   5.202  18.073 -0.5624 -0.0532  0.8491
 1391TIP3   OH228367   0.251   2.033  19.929 -0.8292  0.9474  0.5725
 1391TIP3    H128368   0.291   2.037  20.016  0.2896 -0.1196  0.1348
 1391TIP3    H228369   0.288   2.107  19.881  1.1652 -0.3607 -0.0116
 1392TIP3   OH228370   5.792   4.930  18.643 -0.7508  0.5333  0.2231
 1392TIP3    H128371   5.731   4.999  18.670 -3.0113 -0.6024 -1.5962
 1392TIP3    H228372   5.762   4.852  18.690  0.2106  0.2377  0.3656
 1393TIP3   OH228373   5.245   0.366  19.433 -0.3539  0.6310  1.0284
 1393TIP3    H128374   5.287   0.450  19.417 -1.4164  0.8580 -0.9325
 1393TIP3    H228375   5.300   0.324  19.499  1.6800  1.8108  0.1960
 1394TIP3   OH228376   1.061   4.842  19.195  0.8129 -0.0981 -0.4423
 1394TIP3    H128377   1.139   4.842  19.251  1.2422  1.9900 -0.9306
 1394TIP3    H228378   1.021   4.928  19.210  0.6201  0.3060 -2.8573
 1395TIP3   OH228379   2.231   5.533  19.330 -0.1016 -0.3438 -0.1550
 1395TIP3    H128380   2.169   5.487  19.274 -0.6715  0.6170 -0.3323
 1395TIP3    H228381   2.217   5.626  19.310  0.6840 -0.0635  0.5444
 1396TIP3   OH228382   5.696   2.801  17.486  0.3405  0.0485 -0.0811
 1396TIP3    H128383   5.615   2.766  17.522  1.3357 -1.7542  0.4922
 1396TIP3    H228384   5.669   2.880  17.439 -1.6504 -0.1997  0.5769
 1397TIP3   OH228385   6.319   4.821  18.050 -0.2345  0.6831 -0.1252
 1397TIP3    H128386   6.387   4.862  18.105 -0.8604 -0.7054  1.7740
 1397TIP3    H228387   6.331   4.861  17.964  2.4025  1.1637  0.3763
 1398TIP3   OH228388   4.746   6.378  17.908  0.1852 -0.7069  0.2789
 1398TIP3    H128389   4.766   6.445  17.972  0.7888 -0.8567  0.2526
 1398TIP3    H228390   4.661   6.403  17.872  0.5209  0.1826  0.0865
 1399TIP3   OH228391   4.673   6.541  18.651  0.5105 -0.3112 -0.3867
 1399TIP3    H128392   4.758   6.520  18.613  0.3129 -0.0460 -0.9834
 1399TIP3    H228393   4.617   6.467  18.626  0.4158 -0.2030 -0.4985
 1400TIP3   OH228394   0.959   0.103  18.452 -0.5406 -0.4058 -0.1687
 1400TIP3    H128395   0.969   0.153  18.533 -0.3291 -1.1267  0.2642
 1400TIP3    H228396   0.868   0.073  18.454 -1.1866  1.3025 -1.2449
 1401TIP3   OH228397   3.580   0.608  19.475  0.0767  0.0140  0.0555
 1401TIP3    H128398   3.605   0.666  19.547  1.9152 -2.3053  1.4601
 1401TIP3    H228399   3.603   0.520  19.507 -0.3296 -1.2499 -2.8486
 1402TIP3   OH228400   5.899   1.656  17.929  0.2345  0.0231 -0.0380
 1402TIP3    H128401   5.911   1.742  17.969  1.2485 -0.0747 -0.0874
 1402TIP3    H228402   5.943   1.595  17.989 -0.8184 -0.5256  0.2040
 1403TIP3   OH228403   4.983   5.354  17.422  0.0734  0.0858  0.0704
 1403TIP3    H128404   4.995   5.432  17.476 -2.4796 -0.4198  1.5074
 1403TIP3    H228405   5.032   5.286  17.467 -0.3557  0.1312  0.6103
 1404TIP3   OH228406   3.365   4.325  18.314 -0.7270  0.2419  0.0743
 1404TIP3    H128407   3.412   4.261  18.261 -0.1235  0.6228  0.1292
 1404TIP3    H228408   3.375   4.407  18.266  2.7469  1.3529  2.3102
 1405TIP3   OH228409   1.663   5.869  18.592  0.2630 -0.1571  0.0538
 1405TIP3    H128410   1.736   5.930  18.583  0.4570 -0.3956  0.0049
 1405TIP3    H228411   1.594   5.921  18.633 -0.1575  0.5619 -1.5051
 1406TIP3   OH228412   5.405   6.535  17.681 -0.2433 -0.1064  0.2132
 1406TIP3    H128413   5.331   6.546  17.741 -0.7991 -0.4146 -0.4029
 1406TIP3    H228414   5.460   6.468  17.722 -0.1722  0.3098  0.7997
 1407TIP3   OH228415   5.307   3.978  18.005 -0.3239 -0.3013  0.3327
 1407TIP3    H128416   5.233   3.944  18.054 -0.0104  0.4948  1.3886
 1407TIP3    H228417   5.338   4.053  18.056  1.0652 -0.4761 -0.1938
 1408TIP3   OH228418   2.530   3.411  19.099  0.2867 -0.7610  0.3827
 1408TIP3    H128419   2.623   3.428  19.116  0.1573 -0.6856  1.0192
 1408TIP3    H228420   2.524   3.404  19.003  0.8323 -0.1109  0.2973
 1409TIP3   OH228421   0.498   2.083  17.109 -0.0722  0.1684 -0.0131
 1409TIP3    H128422   0.423   2.028  17.086  0.4519 -0.1809 -0.9403
 1409TIP3    H228423   0.460   2.168  17.128 -0.8588 -0.3930  1.0514
 1410TIP3   OH228424   6.561   6.512  18.219  0.2001 -0.4574  0.0313
 1410TIP3    H128425   6.562   6.587  18.160  0.4260  0.5284  1.2333
 1410TIP3    H228426   6.645   6.468  18.204  1.0597  0.8287  0.8589
 1411TIP3   OH228427   1.528   3.896  19.010  0.6645  0.2416  0.0054
 1411TIP3    H128428   1.525   3.809  18.971  1.1085  0.7182 -1.1613
 1411TIP3    H228429   1.619   3.924  18.998  0.5678  0.7990  0.5134
 1412TIP3   OH228430   6.666   1.397  17.908  0.1328  0.3215  0.6599
 1412TIP3    H128431   6.717   1.476  17.925 -1.7998  1.3214  2.2732
 1412TIP3    H228432   6.617   1.417  17.828 -1.5664  1.5023  1.9211
 1413TIP3   OH228433   5.623   1.481  20.033  0.2159  0.4697 -0.4236
 1413TIP3    H128434   5.642   1.523  20.117  0.2498 -1.4652  0.5993
 1413TIP3    H228435   5.573   1.547  19.984  1.1571  2.0564  0.6403
 1414TIP3   OH228436   5.706   5.401  18.910  0.3002  0.2323  0.3973
 1414TIP3    H128437   5.773   5.357  18.857  0.4104  0.8536  0.0038
 1414TIP3    H228438   5.689   5.483  18.863 -0.6333  0.1461  0.5740
 1415TIP3   OH228439   3.151   6.067  18.601 -0.1904  1.2531  0.0495
 1415TIP3    H128440   3.234   6.106  18.628  0.4943  0.0868 -0.2751
 1415TIP3    H228441   3.126   6.012  18.675 -0.2204  0.9377 -0.1904
 1416TIP3   OH228442   4.966   1.473  16.815 -0.2030 -0.7434  0.0450
 1416TIP3    H128443   5.033   1.451  16.881 -0.1299 -0.1508  0.1781
 1416TIP3    H228444   4.963   1.396  16.758  0.5760 -0.7919  0.0491
 1417TIP3   OH228445   3.854   4.195  18.241  0.2306 -0.3499  0.0966
 1417TIP3    H128446   3.945   4.222  18.227  0.2330 -1.1560 -1.7869
 1417TIP3    H228447   3.859   4.102  18.262 -0.2138 -1.1564 -2.8510
 1418TIP3   OH228448   2.428   4.364  17.458 -0.2392  0.7114 -0.1899
 1418TIP3    H128449   2.458   4.273  17.455 -3.2224 -0.3496 -2.0695
 1418TIP3    H228450   2.423   4.384  17.551 -2.3891 -2.1937  0.4566
 1419TIP3   OH228451   3.878   4.585  18.894  0.0666 -0.0824  0.8418
 1419TIP3    H128452   3.886   4.665  18.843 -1.8900  0.2665  0.9961
 1419TIP3    H228453   3.929   4.520  18.846  0.1461  0.7966 -0.2974
 1420TIP3   OH228454   3.933   2.147  19.846 -0.0222  0.4313  0.1246
 1420TIP3    H128455   3.994   2.199  19.897  1.2183 -1.1080  0.3050
 1420TIP3    H228456   3.946   2.175  19.756  0.1045  0.9281  0.2976
 1421TIP3   OH228457   4.575   4.284  17.628  0.4517 -0.3981  0.1846
 1421TIP3    H128458   4.579   4.282  17.532  2.6462  2.5065  0.1012
 1421TIP3    H228459   4.605   4.197  17.655 -0.6490 -1.4407 -1.7089
 1422TIP3   OH228460   5.429   5.605  18.317  0.1103  0.4915  0.4995
 1422TIP3    H128461   5.478   5.593  18.235  0.2798  0.1659  0.6474
 1422TIP3    H228462   5.444   5.524  18.365 -0.6550  0.3493  0.5047
 1423TIP3   OH228463   2.204   0.459  17.467 -0.7760 -0.1087  0.1410
 1423TIP3    H128464   2.181   0.380  17.515 -0.5438  0.3990  1.1147
 1423TIP3    H228465   2.134   0.470  17.403 -1.5453 -0.3447  0.9225
 1424TIP3   OH228466   0.911   6.093  19.029 -0.1273  0.4999 -1.4678
 1424TIP3    H128467   0.986   6.095  18.969  0.5172  0.5177 -0.6708
 1424TIP3    H228468   0.921   6.010  19.076 -0.4091  0.6756 -1.0996
 1425TIP3   OH228469   3.535   6.326  18.933 -0.4987 -0.2860  0.2158
 1425TIP3    H128470   3.533   6.397  18.870  1.1563  0.7684  1.2828
 1425TIP3    H228471   3.563   6.250  18.883  0.1137  0.3782 -0.4656
 1426TIP3   OH228472   3.288   4.023  18.539 -0.2720 -0.4153 -0.3229
 1426TIP3    H128473   3.280   3.939  18.584 -0.4522 -1.5657 -2.3935
 1426TIP3    H228474   3.297   4.000  18.447 -1.1807  1.8827 -1.0485
 1427TIP3   OH228475   0.772   2.343  17.715 -0.5044  0.0726  0.4518
 1427TIP3    H128476   0.782   2.431  17.751 -0.3773 -0.1716  1.0276
 1427TIP3    H228477   0.808   2.349  17.626  0.3820  0.3792  0.8175
 1428TIP3   OH228478   5.136   0.438  17.927 -0.0118 -0.2670  0.0629
 1428TIP3    H128479   5.051   0.423  17.885  0.3877 -1.5865 -0.3422
 1428TIP3    H228480   5.200   0.400  17.866  0.7225 -0.7680  1.1151
 1429TIP3   OH228481   6.453   0.149  19.111 -0.7328  0.2663 -0.1369
 1429TIP3    H128482   6.380   0.140  19.050 -1.2160  1.5540  0.2342
 1429TIP3    H228483   6.416   0.190  19.189  0.6292  2.3573 -0.5022
 1430TIP3   OH228484   0.956   3.245  20.066  0.3818 -0.5834  0.0927
 1430TIP3    H128485   0.874   3.272  20.107  0.1542 -2.2002  0.7854
 1430TIP3    H228486   1.007   3.326  20.058 -1.2055  0.4312 -0.2375
 1431TIP3   OH228487   3.060   4.678  17.447  0.1800  0.6988 -0.3147
 1431TIP3    H128488   2.992   4.610  17.452 -0.5507  1.4492  0.0621
 1431TIP3    H228489   3.108   4.656  17.367  1.2643 -1.4511  0.8182
 1432TIP3   OH228490   3.180   1.148  16.797 -0.4524 -0.2943  1.0299
 1432TIP3    H128491   3.168   1.117  16.887 -1.2468  0.7003  1.2942
 1432TIP3    H228492   3.105   1.206  16.782 -1.9247 -2.6185 -1.2761
 1433TIP3   OH228493   2.156   0.553  17.114 -0.0577  0.7542  0.2804
 1433TIP3    H128494   2.122   0.612  17.047 -1.0917 -0.0693  0.0521
 1433TIP3    H228495   2.246   0.535  17.087 -0.3557  0.6920 -0.7024
 1434TIP3   OH228496   6.192   3.005  18.677 -0.0435 -0.2127  0.6403
 1434TIP3    H128497   6.195   2.911  18.699 -1.0092 -0.1508  1.0823
 1434TIP3    H228498   6.122   3.040  18.732 -1.0343  0.3838 -0.9326
 1435TIP3   OH228499   4.176   2.507  17.399 -0.4698 -0.1227 -0.1151
 1435TIP3    H128500   4.178   2.598  17.370 -0.8449  0.2777  1.0520
 1435TIP3    H228501   4.171   2.456  17.318 -0.9988  0.9150 -0.7632
 1436TIP3   OH228502   5.184   0.303  18.426 -0.1093 -0.3023 -0.4162
 1436TIP3    H128503   5.136   0.352  18.493  1.2697 -0.2715  0.5807
 1436TIP3    H228504   5.273   0.338  18.430 -0.0104 -0.1652 -2.4079
 1437TIP3   OH228505   5.995   3.931  19.486 -0.3328  0.2332  0.2793
 1437TIP3    H128506   5.962   3.998  19.546 -2.0743 -1.3481  1.1568
 1437TIP3    H228507   5.919   3.905  19.434  0.4325 -0.6946 -0.4208
 1438TIP3   OH228508   0.474   5.162  18.707  0.0825  0.0595  0.2423
 1438TIP3    H128509   0.525   5.090  18.744  1.4607  0.2921 -1.0859
 1438TIP3    H228510   0.425   5.197  18.781  1.9402 -0.1291  1.6527
 1439TIP3   OH228511   6.160   0.913  20.001  0.5741  0.3569 -0.3412
 1439TIP3    H128512   6.078   0.925  20.049 -0.3231  0.5341 -1.8375
 1439TIP3    H228513   6.134   0.918  19.909  1.9907 -1.3315 -0.8942
 1440TIP3   OH228514   0.989   2.658  19.685  0.2193  0.2914  0.1080
 1440TIP3    H128515   1.080   2.674  19.710  0.8534  1.7209 -2.6668
 1440TIP3    H228516   0.944   2.740  19.703  0.2983  0.7364 -1.5626
 1441TIP3   OH228517   2.789   6.131  19.351 -0.0321 -0.1260  0.6453
 1441TIP3    H128518   2.838   6.212  19.363  0.0093  0.0238 -0.4323
 1441TIP3    H228519   2.768   6.129  19.258  1.4916 -2.2092  0.2668
 1442TIP3   OH228520   0.433   5.566  19.639 -1.0410  0.5757 -0.0509
 1442TIP3    H128521   0.404   5.475  19.649  0.9422  0.0378  1.2835
 1442TIP3    H228522   0.520   5.560  19.601 -1.8737  2.0819 -2.4037
 1443TIP3   OH228523   1.895   0.710  18.452  0.1405 -0.1613 -0.1544
 1443TIP3    H128524   1.825   0.658  18.412  0.5261 -1.0402  0.2756
 1443TIP3    H228525   1.976   0.669  18.422  0.5359  1.4480 -1.4591
 1444TIP3   OH228526   0.215   3.782  19.336  0.0571  0.1368  0.4430
 1444TIP3    H128527   0.221   3.703  19.390  1.8022 -0.0069  0.0990
 1444TIP3    H228528   0.284   3.840  19.370 -0.3696  1.0088 -0.1297
 1445TIP3   OH228529   0.192   4.770  17.039 -0.1949  0.2115 -0.2275
 1445TIP3    H128530   0.127   4.826  17.082 -0.6797 -1.5931  1.5733
 1445TIP3    H228531   0.171   4.682  17.070  0.7380 -0.9525 -2.6707
 1446TIP3   OH228532   2.068   2.317  17.398  0.0830  0.0038  0.3096
 1446TIP3    H128533   2.014   2.311  17.319 -0.2162 -1.7214  0.6229
 1446TIP3    H228534   2.136   2.251  17.387 -0.1058 -0.4350  1.6013
 1447TIP3   OH228535   3.287   5.326  19.151  0.2127 -0.3693 -0.5405
 1447TIP3    H128536   3.335   5.294  19.228 -0.8823 -3.1520 -0.8920
 1447TIP3    H228537   3.348   5.313  19.078  0.7773  1.0547 -0.3502
 1448TIP3   OH228538   2.768   1.287  18.019 -0.3534  0.5891  0.2503
 1448TIP3    H128539   2.800   1.211  18.068  0.0538  1.0794  0.7555
 1448TIP3    H228540   2.680   1.261  17.989  0.2973 -0.5752 -0.7134
 1449TIP3   OH228541   1.559   5.315  18.882  0.3807  0.0946  0.5792
 1449TIP3    H128542   1.615   5.371  18.828  1.0145 -0.3235  0.7874
 1449TIP3    H228543   1.497   5.277  18.820  1.2458 -0.5628  0.0985
 1450TIP3   OH228544   2.303   5.920  19.473  0.3620 -0.7225 -0.0991
 1450TIP3    H128545   2.251   5.981  19.421 -0.8939 -1.2226  0.5365
 1450TIP3    H228546   2.260   5.836  19.462  0.2237 -0.8935  1.4973
 1451TIP3   OH228547   6.366   5.341  17.024  0.4129  0.0956  0.1247
 1451TIP3    H128548   6.323   5.255  17.018 -0.7377  0.5647  1.1364
 1451TIP3    H228549   6.447   5.323  17.072  1.0950 -0.7078 -1.2829
 1452TIP3   OH228550   0.134   0.158  18.434  0.6415 -0.3324  0.2208
 1452TIP3    H128551   0.109   0.223  18.369  1.2269  0.2192  0.5348
 1452TIP3    H228552   0.140   0.206  18.516  1.9452 -0.5738  0.2966
 1453TIP3   OH228553   2.453   2.962  17.724  0.0750 -0.2100 -0.1934
 1453TIP3    H128554   2.467   3.056  17.728  0.0451 -0.1862 -0.5694
 1453TIP3    H228555   2.438   2.944  17.631 -2.9777 -0.1550  0.2065
 1454TIP3   OH228556   0.109   1.069  19.636 -0.1811 -0.4832 -0.1846
 1454TIP3    H128557   0.146   0.989  19.597  1.5283 -0.3415  1.0395
 1454TIP3    H228558   0.022   1.076  19.597  1.0000 -0.9035 -3.1493
 1455TIP3   OH228559   5.960   6.486  19.455  0.1819  0.2391  0.3062
 1455TIP3    H128560   6.017   6.554  19.421 -2.5317  3.2338  1.2892
 1455TIP3    H228561   5.933   6.517  19.542 -3.6430 -0.3820 -0.4444
 1456TIP3   OH228562   4.920   2.808  17.576  0.0076  0.1641  0.2753
 1456TIP3    H128563   4.962   2.893  17.557 -0.5794  0.7648  1.5389
 1456TIP3    H228564   4.834   2.814  17.536 -0.9116  1.1073  2.2249
 1457TIP3   OH228565   1.612   6.637  18.700 -0.1382  0.1750  0.0165
 1457TIP3    H128566   1.601   6.544  18.720 -1.5113  0.2182 -0.3948
 1457TIP3    H228567   1.700   6.644  18.664 -0.3536 -1.1429 -0.8395
 1458TIP3   OH228568   3.867   1.915  18.496 -0.4268  0.4169 -0.0871
 1458TIP3    H128569   3.806   1.987  18.505 -0.7535  0.1117  0.1867
 1458TIP3    H228570   3.952   1.956  18.485 -0.5470  0.8391  0.5301
 1459TIP3   OH228571   3.541   2.632  18.132 -0.2059  0.1173  0.0736
 1459TIP3    H128572   3.533   2.681  18.050  1.5374  0.0661 -0.1632
 1459TIP3    H228573   3.546   2.699  18.200 -2.6081  0.1525  0.2922
 1460TIP3   OH228574   1.520   2.008  17.469 -0.1949  0.0129 -0.2435
 1460TIP3    H128575   1.515   2.061  17.389 -0.1052  1.8583  0.9103
 1460TIP3    H228576   1.429   2.000  17.498 -0.0595  1.0674  0.5154
 1461TIP3   OH228577   3.881   3.537  17.570 -0.1278 -0.4728  0.4868
 1461TIP3    H128578   3.877   3.589  17.650  3.5598  0.6729  0.1191
 1461TIP3    H228579   3.909   3.450  17.598 -1.4608 -0.8799  0.6278
 1462TIP3   OH228580   2.393   2.190  19.452 -0.2645 -0.2174 -0.0657
 1462TIP3    H128581   2.325   2.222  19.393 -0.4313 -0.3599  0.0514
 1462TIP3    H228582   2.368   2.101  19.473 -0.2255 -0.1564  0.2523
 1463TIP3   OH228583   5.448   0.028  17.469  0.4133 -0.2446  0.3012
 1463TIP3    H128584   5.451  -0.000  17.560  1.2480 -0.8334  0.1071
 1463TIP3    H228585   5.527  -0.009  17.430  0.4296  0.5930 -0.4938
 1464TIP3   OH228586   3.495   5.839  19.102  0.3025 -0.1961 -0.7795
 1464TIP3    H128587   3.564   5.799  19.155 -0.4774  0.8246  1.0909
 1464TIP3    H228588   3.475   5.921  19.147 -3.2141 -1.1747 -0.2961
 1465TIP3   OH228589   2.105   3.178  17.831  0.4155 -0.3730  0.4153
 1465TIP3    H128590   2.069   3.089  17.835  0.0628 -0.2100  1.3275
 1465TIP3    H228591   2.148   3.184  17.746  2.7994 -2.3280  1.3769
 1466TIP3   OH228592   4.708   2.924  19.792 -0.1370 -0.0826  0.4210
 1466TIP3    H128593   4.657   2.980  19.733  0.1430 -1.0184 -0.7495
 1466TIP3    H228594   4.796   2.923  19.754 -0.1776 -1.4175  0.3187
 1467TIP3   OH228595   1.734   5.091  19.782 -0.0484 -0.1901 -0.1394
 1467TIP3    H128596   1.721   5.022  19.846 -1.1274 -0.6759 -0.8542
 1467TIP3    H228597   1.828   5.091  19.765  0.3243  0.2237  1.7120
 1468TIP3   OH228598   3.739   1.557  18.489 -0.2142 -0.6650  0.2051
 1468TIP3    H128599   3.725   1.477  18.541 -1.2689 -0.4328  0.3098
 1468TIP3    H228600   3.834   1.569  18.488 -0.0845 -1.5392  0.7700
 1469TIP3   OH228601   6.415   1.179  19.250  0.3653  0.8434 -0.4539
 1469TIP3    H128602   6.428   1.179  19.345  1.6834 -0.0519 -0.5991
 1469TIP3    H228603   6.501   1.156  19.214 -0.6117 -1.1020 -1.7605
 1470TIP3   OH228604   0.603   2.427  18.489 -0.1052  0.3851 -0.1315
 1470TIP3    H128605   0.540   2.499  18.482  1.7055  2.0691 -0.1637
 1470TIP3    H228606   0.644   2.441  18.575 -1.1825 -1.9569  0.8534
 1471TIP3   OH228607   1.077   0.985  19.294  0.5096  0.1386  0.3765
 1471TIP3    H128608   1.048   1.065  19.338  2.0209  0.9123  0.0443
 1471TIP3    H228609   1.171   0.999  19.278  0.5938 -1.2884 -0.5736
 1472TIP3   OH228610   2.330   6.414  19.019 -0.5059 -0.4234 -0.4968
 1472TIP3    H128611   2.274   6.399  18.942 -1.9413  0.9033  0.2435
 1472TIP3    H228612   2.277   6.469  19.076  0.4972 -1.4554  1.5063
 1473TIP3   OH228613   2.360   0.517  19.909 -0.0391  0.0861  0.0493
 1473TIP3    H128614   2.379   0.583  19.977 -0.7849 -0.9847  1.3245
 1473TIP3    H228615   2.345   0.436  19.957 -0.2201 -0.8006 -1.4380
 1474TIP3   OH228616   5.844   3.048  19.255 -0.8161  0.9389 -0.4666
 1474TIP3    H128617   5.792   3.106  19.199 -2.7774  0.1424  0.4489
 1474TIP3    H228618   5.785   2.976  19.277  0.5468  0.2045  0.9863
 1475TIP3   OH228619   5.396   0.326  20.087 -0.2033  0.5274 -0.2031
 1475TIP3    H128620   5.353   0.253  20.043  0.5501  0.9481 -1.7222
 1475TIP3    H228621   5.324   0.383  20.115 -0.7479 -0.3611  0.2338
 1476TIP3   OH228622   4.533   2.255  19.051 -0.2057 -0.3328  0.0634
 1476TIP3    H128623   4.490   2.208  18.979 -1.5723  1.0829 -0.0945
 1476TIP3    H228624   4.529   2.195  19.125 -1.6345 -0.6188 -0.2149
 1477TIP3   OH228625   5.631   6.445  18.118  0.0161 -0.1680 -0.5730
 1477TIP3    H128626   5.590   6.493  18.190  0.7056  0.2996 -0.4784
 1477TIP3    H228627   5.715   6.489  18.105 -0.0310 -0.3456 -1.5597
 1478TIP3   OH228628   5.754   0.165  19.173 -0.3893 -0.4740 -0.1969
 1478TIP3    H128629   5.836   0.116  19.162 -0.0650  0.0793 -0.2797
 1478TIP3    H228630   5.689   0.114  19.125 -0.2414 -1.2804  0.4325
 1479TIP3   OH228631   1.238   2.027  18.408 -0.2088  0.4383 -0.5268
 1479TIP3    H128632   1.306   2.012  18.475  1.2628 -0.7042 -2.1705
 1479TIP3    H228633   1.192   1.943  18.402 -2.3794  1.4228  1.1084
 1480TIP3   OH228634   3.375   4.246  19.912 -0.0544  0.0589  0.2002
 1480TIP3    H128635   3.380   4.325  19.966 -1.0118 -0.3979  0.9917
 1480TIP3    H228636   3.290   4.253  19.867  0.8044  0.5326 -1.4558
 1481TIP3   OH228637   5.944   4.629  17.278  0.2047  0.0589 -0.3785
 1481TIP3    H128638   5.876   4.600  17.217  0.0897 -2.0272  0.6655
 1481TIP3    H228639   5.991   4.549  17.302  3.2624  1.4339 -1.2500
 1482TIP3   OH228640   6.221   5.332  16.716  0.0566 -0.2218  0.8669
 1482TIP3    H128641   6.163   5.294  16.782 -1.3731  0.4933  0.0711
 1482TIP3    H228642   6.166   5.394  16.669  1.7696  1.3159  0.7766
 1483TIP3   OH228643   0.286   1.370  20.294  0.1864 -0.1126 -0.0782
 1483TIP3    H128644   0.211   1.378  20.353 -0.1340 -0.6946 -0.3956
 1483TIP3    H228645   0.281   1.448  20.238  0.1553  0.1458  0.2837
 1484TIP3   OH228646   0.962   1.602  17.982 -0.2831 -0.1407 -0.3772
 1484TIP3    H128647   1.040   1.658  17.986  0.1822 -0.7686 -0.6371
 1484TIP3    H228648   0.993   1.515  18.005 -1.0092 -0.3032  0.0194
 1485TIP3   OH228649   5.058   4.819  18.687  0.5828  0.0306  0.5455
 1485TIP3    H128650   5.000   4.747  18.713 -1.4153  1.4200  0.1719
 1485TIP3    H228651   5.067   4.809  18.592 -0.0487  0.4715  0.4278
 1486TIP3   OH228652   4.210   5.994  18.620 -0.7355 -0.0401  0.4192
 1486TIP3    H128653   4.233   5.907  18.587 -1.6829 -1.0819  2.3346
 1486TIP3    H228654   4.286   6.020  18.673  0.4544  1.2903 -1.8161
 1487TIP3   OH228655   5.416   6.188  18.242  0.0448  0.2847 -0.2545
 1487TIP3    H128656   5.479   6.143  18.297  0.3620  0.1673 -0.7083
 1487TIP3    H228657   5.428   6.281  18.263  0.8929  0.3288 -0.8661
 1488TIP3   OH228658   2.942   5.609  19.575  0.0348  0.4872 -0.2106
 1488TIP3    H128659   2.958   5.526  19.619 -0.6969  0.0651 -0.7300
 1488TIP3    H228660   2.874   5.651  19.628 -0.2651  0.3361 -0.4710
 1489TIP3   OH228661   2.318   1.198  18.686 -0.1977 -0.4555  0.6357
 1489TIP3    H128662   2.290   1.177  18.776  0.3012  2.6951  1.6772
 1489TIP3    H228663   2.406   1.161  18.679 -0.8908 -2.2045  0.7908
 1490TIP3   OH228664   3.617   0.230  16.635 -0.2572  0.1849  0.3284
 1490TIP3    H128665   3.529   0.206  16.663  0.3051 -1.0725  1.1381
 1490TIP3    H228666   3.626   0.190  16.548 -0.8360  1.2330 -0.2322
 1491TIP3   OH228667   2.082   2.761  17.767  0.5938  0.3859 -0.2256
 1491TIP3    H128668   2.174   2.762  17.795  0.8189  0.6403 -0.9738
 1491TIP3    H228669   2.082   2.710  17.686 -0.0720 -0.4065  0.2589
 1492TIP3   OH228670   3.841   3.070  17.538  0.5544  0.5999 -0.2257
 1492TIP3    H128671   3.756   3.109  17.555 -0.6703 -2.4813  1.5225
 1492TIP3    H228672   3.839   3.046  17.446 -0.5246  0.4548 -0.1689
 1493TIP3   OH228673   0.654   1.044  19.130 -0.4448  0.1181  0.1278
 1493TIP3    H128674   0.684   0.954  19.134 -2.8266 -0.7103  0.6809
 1493TIP3    H228675   0.645   1.071  19.222 -2.3801 -0.0635  0.0251
 1494TIP3   OH228676   4.039   6.226  18.671  0.3107 -0.0857  0.3165
 1494TIP3    H128677   4.118   6.172  18.668  0.0554 -0.5307  1.2475
 1494TIP3    H228678   4.023   6.240  18.764 -0.1649  0.8199  0.1083
 1495TIP3   OH228679   2.828   3.305  17.851  0.7276 -0.3947 -0.0162
 1495TIP3    H128680   2.774   3.345  17.783 -0.4548  1.0442  1.6797
 1495TIP3    H228681   2.880   3.377  17.886 -0.0707 -0.6543  1.8441
 1496TIP3   OH228682   1.977   1.756  18.056 -0.1525  0.2880 -0.2943
 1496TIP3    H128683   1.983   1.662  18.073  1.8293  0.2068 -1.1741
 1496TIP3    H228684   1.883   1.776  18.063 -0.8350 -2.0681 -1.7199
 1497TIP3   OH228685   2.219   6.085  19.008  1.0561 -0.0064  0.3108
 1497TIP3    H128686   2.219   6.122  18.920 -0.5146  0.8462  0.6311
 1497TIP3    H228687   2.248   5.994  18.996  0.2053 -0.1095 -1.1707
 1498TIP3   OH228688   5.110   1.622  16.626 -0.7553 -0.0234 -0.0083
 1498TIP3    H128689   5.081   1.712  16.615 -1.4719 -0.3389 -0.8308
 1498TIP3    H228690   5.029   1.571  16.633 -0.3909 -0.7562 -0.9138
 1499TIP3   OH228691   4.638   3.078  19.547 -0.5216  0.1348  0.1516
 1499TIP3    H128692   4.607   3.035  19.467 -1.9039  0.1555  0.6420
 1499TIP3    H228693   4.558   3.106  19.592  0.2465  0.6655  1.2465
 1500TIP3   OH228694   4.901   1.872  20.181  0.3496 -0.1889  0.0406
 1500TIP3    H128695   4.909   1.813  20.256  1.1365 -0.9513 -0.6226
 1500TIP3    H228696   4.977   1.852  20.127 -0.5253 -0.1070 -1.2743
 1501TIP3   OH228697   0.455   3.799  17.890  0.0082 -0.1719  0.4576
 1501TIP3    H128698   0.422   3.889  17.881  0.3007  0.2785  3.0827
 1501TIP3    H228699   0.550   3.809  17.901  0.0632 -0.8043  0.6123
 1502TIP3   OH228700   2.068   4.939  19.426 -0.2579 -0.1027  0.9493
 1502TIP3    H128701   2.016   5.009  19.386 -0.2471 -0.3446  0.4992
 1502TIP3    H228702   2.020   4.859  19.404  0.3109 -0.3286  0.5126
 1503TIP3   OH228703   4.421   5.515  20.039 -0.0276 -0.7006  0.2146
 1503TIP3    H128704   4.486   5.472  20.095  0.3182  0.2005  0.5238
 1503TIP3    H228705   4.473   5.562  19.974 -0.3482  0.3049  0.6695
 1504TIP3   OH228706   1.828   1.601  18.716 -0.1285 -0.6436  0.1478
 1504TIP3    H128707   1.890   1.631  18.649 -0.7485 -0.3172 -0.2921
 1504TIP3    H228708   1.806   1.680  18.765  1.0670 -1.0399  1.3888
 1505TIP3   OH228709   1.368   2.058  19.058 -0.1461  0.0701 -0.1176
 1505TIP3    H128710   1.307   1.987  19.079 -1.1782  1.3326  1.3913
 1505TIP3    H228711   1.321   2.112  18.994  0.1601  0.0671 -0.3519
 1506TIP3   OH228712   6.641   1.762  17.404 -0.1064 -0.0684 -0.4387
 1506TIP3    H128713   6.726   1.765  17.450  0.5897  1.9683 -1.7464
 1506TIP3    H228714   6.664   1.757  17.312 -1.4672 -1.2480 -0.7394
 1507TIP3   OH228715   3.695   5.364  17.139 -0.3389 -0.6037 -0.7044
 1507TIP3    H128716   3.701   5.417  17.219  0.9144 -0.4716 -0.8785
 1507TIP3    H228717   3.623   5.303  17.157  0.2284 -0.8986  0.7234
 1508TIP3   OH228718   3.089   0.592  18.364 -0.3163  0.1834 -0.2233
 1508TIP3    H128719   3.035   0.638  18.300 -2.9535 -1.0875  0.9544
 1508TIP3    H228720   3.058   0.501  18.362  1.5882 -0.5429  0.7416
 1509TIP3   OH228721   1.136   3.848  18.970  0.2267 -0.6236  0.1725
 1509TIP3    H128722   1.211   3.897  18.936 -1.0607  1.6809  0.4811
 1509TIP3    H228723   1.065   3.913  18.976 -1.4013 -2.3951  1.2215
 1510TIP3   OH228724   1.084   6.233  19.214  0.7393  0.3591  0.6272
 1510TIP3    H128725   1.037   6.163  19.259  3.5149 -2.6959 -0.7902
 1510TIP3    H228726   1.065   6.219  19.121  2.2328  0.7310  0.2397
 1511TIP3   OH228727   1.292   2.799  17.205  0.0209  0.2826 -0.1228
 1511TIP3    H128728   1.301   2.856  17.128  1.1993 -0.6535 -0.7200
 1511TIP3    H228729   1.198   2.778  17.208  0.1162 -0.6981 -2.1215
 1512TIP3   OH228730   0.341   5.713  16.470 -0.2063  0.4253 -0.1140
 1512TIP3    H128731   0.305   5.765  16.542  4.1236  0.3141  2.5640
 1512TIP3    H228732   0.317   5.623  16.491  0.0170  0.5199  0.5737
 1513TIP3   OH228733   3.415   3.009  17.351 -0.1594  0.4045 -0.3352
 1513TIP3    H128734   3.351   2.939  17.362 -0.5332  0.7615 -0.2477
 1513TIP3    H228735   3.399   3.069  17.424 -0.3030  0.9466 -0.8045
 1514TIP3   OH228736   6.041   1.280  16.935  0.0555 -0.6885  0.3403
 1514TIP3    H128737   5.994   1.321  17.007  0.2190  0.5104 -0.2007
 1514TIP3    H228738   6.021   1.187  16.942 -1.4216 -0.3584  0.8387
 1515TIP3   OH228739   6.091   5.613  18.607 -0.2138 -0.4739  0.3040
 1515TIP3    H128740   6.023   5.612  18.539  1.3211  0.6927 -1.3364
 1515TIP3    H228741   6.115   5.521  18.618 -1.4654 -0.8198  0.3290
 1516TIP3   OH228742   3.029   5.868  18.441  0.5084  0.0013 -0.1062
 1516TIP3    H128743   3.101   5.812  18.412 -0.1911 -0.7368 -0.4565
 1516TIP3    H228744   3.070   5.931  18.500  1.2228 -1.2858  0.8261
 1517TIP3   OH228745   1.804   2.057  16.804 -1.1652 -0.6057 -0.1829
 1517TIP3    H128746   1.728   1.999  16.798 -1.7360 -0.0668  1.2954
 1517TIP3    H228747   1.819   2.068  16.898  1.3146 -1.3935 -0.4010
 1518TIP3   OH228748   5.527   4.628  19.723  0.4014  0.2362  0.1779
 1518TIP3    H128749   5.436   4.606  19.744  0.0134  1.3761 -0.2408
 1518TIP3    H228750   5.577   4.549  19.746 -0.3151  0.5113  3.0364
 1519TIP3   OH228751   3.283   2.579  19.355 -0.1320 -0.2392  0.5981
 1519TIP3    H128752   3.295   2.511  19.421 -2.7154 -0.1615  1.2590
 1519TIP3    H228753   3.224   2.540  19.290 -1.6925  1.3067  1.0003
 1520TIP3   OH228754   0.354   1.879  18.808 -0.2946 -0.1576  0.8401
 1520TIP3    H128755   0.344   1.940  18.734 -0.6428  1.0762  1.8602
 1520TIP3    H228756   0.284   1.816  18.797  1.4958 -1.8995 -1.5850
 1521TIP3   OH228757   4.496   0.400  17.262  0.1025 -0.6847 -0.5891
 1521TIP3    H128758   4.448   0.339  17.207  1.7195 -0.8837 -1.8706
 1521TIP3    H228759   4.516   0.351  17.342 -0.4719 -1.0978 -0.7002
 1522TIP3   OH228760   5.631   3.259  18.541 -0.2391 -0.6989 -0.3537
 1522TIP3    H128761   5.606   3.304  18.622 -0.9988  2.3576 -2.1078
 1522TIP3    H228762   5.707   3.309  18.509  0.0579 -1.8510 -1.5066
 1523TIP3   OH228763   0.193   1.033  18.965 -0.3511 -0.1298 -0.2935
 1523TIP3    H128764   0.274   0.982  18.972 -0.4356 -0.2717 -0.3707
 1523TIP3    H228765   0.151   1.003  18.885 -0.5356 -0.1318 -0.1969
 1524TIP3   OH228766   6.128   2.251  17.400 -0.4311 -0.1646  0.1856
 1524TIP3    H128767   6.160   2.186  17.337  0.9117 -0.6050  1.2524
 1524TIP3    H228768   6.084   2.317  17.347  1.7703  0.1683 -1.3700
 1525TIP3   OH228769   6.670   0.584  18.397 -0.2270 -0.5310  0.4453
 1525TIP3    H128770   6.723   0.615  18.471  2.4824  0.1969 -1.6633
 1525TIP3    H228771   6.718   0.510  18.361  0.2520  1.0094 -2.3946
 1526TIP3   OH228772   4.639   3.686  19.735  0.1661 -0.1082  0.3929
 1526TIP3    H128773   4.653   3.600  19.776 -0.2681  0.0791  0.9512
 1526TIP3    H228774   4.641   3.748  19.808 -0.8875  0.2094  0.1643
 1527TIP3   OH228775   1.031   2.994  19.523  0.2071 -0.4207 -0.1224
 1527TIP3    H128776   1.053   3.086  19.538 -0.3656  0.2405 -2.8229
 1527TIP3    H228777   0.985   2.967  19.602 -0.5167  1.9340  0.3349
 1528TIP3   OH228778   2.268   0.630  19.701 -0.0261  0.4781 -0.1198
 1528TIP3    H128779   2.300   0.719  19.691 -1.0201  0.7860 -0.6408
 1528TIP3    H228780   2.310   0.599  19.782  1.9592  0.6710 -1.0025
 1529TIP3   OH228781   2.162   6.154  18.478  0.0369  0.1973 -0.7616
 1529TIP3    H128782   2.086   6.105  18.447 -0.0304 -1.4142  1.6907
 1529TIP3    H228783   2.235   6.121  18.425 -0.2355 -1.6826 -0.0448
 1530TIP3   OH228784   6.269   0.564  17.199  0.8928 -0.3096  0.4549
 1530TIP3    H128785   6.273   0.561  17.295  0.8047  1.1989  0.5303
 1530TIP3    H228786   6.176   0.567  17.179  0.9174 -0.3892  0.3254
 1531TIP3   OH228787   2.308   4.158  19.577 -0.0251  0.1537 -0.0065
 1531TIP3    H128788   2.217   4.186  19.567  0.0937  0.0478 -1.7098
 1531TIP3    H228789   2.330   4.117  19.493  1.7525  0.6525  0.1698
 1532TIP3   OH228790   0.352   1.732  16.862  0.5014  0.1744  0.1506
 1532TIP3    H128791   0.307   1.817  16.865 -1.7537 -0.9352  0.0015
 1532TIP3    H228792   0.367   1.716  16.769 -0.1732 -0.0998  0.0808
 1533TIP3   OH228793   0.762   1.087  18.729 -0.0213 -0.3926  0.6558
 1533TIP3    H128794   0.689   1.092  18.667 -0.0485  1.0139  0.7760
 1533TIP3    H228795   0.824   1.153  18.698  1.7721 -2.3215 -0.1105
 1534TIP3   OH228796   3.993   4.204  17.297  1.1614 -0.5765  0.8637
 1534TIP3    H128797   4.008   4.272  17.231  1.7132 -1.2639  0.2584
 1534TIP3    H228798   3.969   4.252  17.376 -0.5832  0.2225 -0.1050
 1535TIP3   OH228799   3.640   0.894  18.824  0.8339  0.2800 -0.0219
 1535TIP3    H128800   3.609   0.850  18.903  0.8977  0.2320 -0.0234
 1535TIP3    H228801   3.594   0.978  18.824  0.4294  0.0580 -0.2208
 1536TIP3   OH228802   2.035   0.188  17.300 -0.0316  0.0854 -0.1492
 1536TIP3    H128803   1.941   0.170  17.306  0.0526 -0.0326  0.9120
 1536TIP3    H228804   2.049   0.207  17.207 -0.9155 -0.9364 -0.5207
 1537TIP3   OH228805   1.109   3.350  17.594  0.1946 -0.0937  0.3922
 1537TIP3    H128806   1.109   3.347  17.689  0.6924 -1.7081  0.3644
 1537TIP3    H228807   1.201   3.347  17.569  0.0401 -0.6900 -0.1452
 1538TIP3   OH228808   1.747   0.287  18.218  0.3545  0.8190  0.0487
 1538TIP3    H128809   1.679   0.272  18.153  0.0826 -0.2948  0.5815
 1538TIP3    H228810   1.791   0.203  18.228  1.6649  1.4527 -0.1000
 1539TIP3   OH228811   2.971   0.391  17.416  0.0292 -0.0216 -0.1576
 1539TIP3    H128812   3.003   0.454  17.481  0.4294  0.4412 -0.7957
 1539TIP3    H228813   2.908   0.338  17.464  2.2390 -1.4610  1.3661
 1540TIP3   OH228814   6.626   5.554  18.899  0.0130 -0.1168  0.0200
 1540TIP3    H128815   6.576   5.596  18.829 -0.1846  0.3017  0.4079
 1540TIP3    H228816   6.626   5.618  18.970  0.3273 -0.4837  0.3541
 1541TIP3   OH228817   0.100   2.503  19.596  0.2644  0.3628  0.4773
 1541TIP3    H128818   0.085   2.531  19.686 -1.0012  0.2755  0.3080
 1541TIP3    H228819   0.014   2.475  19.565  0.3612  1.7923 -1.2334
 1542TIP3   OH228820   0.005   3.609  18.805 -0.0546  0.4070 -0.0955
 1542TIP3    H128821  -0.065   3.545  18.806 -2.0641  2.4541  0.1348
 1542TIP3    H228822   0.004   3.647  18.894  0.5134  1.2941 -0.4474
 1543TIP3   OH228823   2.965   2.784  17.863  0.3494  0.2344 -0.0997
 1543TIP3    H128824   2.885   2.760  17.909  0.9011 -1.9213 -0.1402
 1543TIP3    H228825   3.028   2.803  17.932  0.1226  0.8901 -0.0609
 1544TIP3   OH228826   3.904   2.654  17.483  0.4110  0.1334  0.5600
 1544TIP3    H128827   3.976   2.700  17.441  1.2150  0.4111  2.1378
 1544TIP3    H228828   3.854   2.616  17.412  1.8641  0.3172 -0.5943
 1545TIP3   OH228829   3.841   6.351  16.813  0.0629  0.0107  0.0645
 1545TIP3    H128830   3.797   6.430  16.781  1.3810  1.2211  1.0677
 1545TIP3    H228831   3.872   6.306  16.735 -1.3317  0.1067 -0.5557
 1546TIP3   OH228832   2.328   3.696  19.075  0.0323  0.0751 -0.2561
 1546TIP3    H128833   2.328   3.609  19.115  0.9968  1.0135  1.8979
 1546TIP3    H228834   2.411   3.735  19.101 -0.7779  1.9895 -0.3815
 1547TIP3   OH228835   5.223   1.751  18.745 -0.1118  0.5318 -0.1125
 1547TIP3    H128836   5.140   1.779  18.708 -0.4879 -2.2934 -1.7160
 1547TIP3    H228837   5.224   1.656  18.733  3.0367  0.3700  0.5030
 1548TIP3   OH228838   4.100   4.026  18.863 -0.1858 -0.0791 -0.0737
 1548TIP3    H128839   4.083   4.047  18.771 -0.2576  1.8440  0.3477
 1548TIP3    H228840   4.137   4.106  18.900 -1.8401 -0.1797  1.9919
 1549TIP3   OH228841   2.184   6.491  17.427 -0.2329  0.4674  0.0041
 1549TIP3    H128842   2.227   6.406  17.441 -0.7970  0.5241  2.4896
 1549TIP3    H228843   2.095   6.468  17.398  0.3181  0.3077 -1.7063
 1550TIP3   OH228844   2.628   3.792  19.061  0.2365  0.4647  0.5096
 1550TIP3    H128845   2.703   3.734  19.047 -1.4625 -1.1024 -3.7796
 1550TIP3    H228846   2.660   3.879  19.035  1.3911  0.5016  1.9481
 1551TIP3   OH228847   2.808   1.713  19.615  0.2809 -0.1020  0.4032
 1551TIP3    H128848   2.742   1.776  19.587 -0.0581 -1.0709 -1.0803
 1551TIP3    H228849   2.761   1.654  19.675  0.4695  0.7035  1.3741
 1552TIP3   OH228850   0.042   0.890  18.781  0.3644 -0.6679 -0.1479
 1552TIP3    H128851  -0.050   0.901  18.806  1.0729  3.7599  1.3664
 1552TIP3    H228852   0.040   0.890  18.685 -1.1809  1.1263 -0.1872
 1553TIP3   OH228853   1.061   4.841  17.204 -0.0085 -0.6589 -0.3190
 1553TIP3    H128854   1.141   4.790  17.188 -0.0060 -0.4351 -1.0380
 1553TIP3    H228855   1.075   4.923  17.155 -0.2008 -0.1475  0.4661
 1554TIP3   OH228856   3.663   6.182  18.409 -0.1391  0.0008  0.3699
 1554TIP3    H128857   3.719   6.255  18.435  2.0557 -0.5537 -2.2975
 1554TIP3    H228858   3.594   6.223  18.357  0.8809  0.2887 -0.8185
 1555TIP3   OH228859   4.005   0.265  16.924 -0.2165  0.2325 -0.4176
 1555TIP3    H128860   4.011   0.331  16.993 -2.3152 -0.4497  0.4924
 1555TIP3    H228861   3.976   0.313  16.847  1.2902  0.8541 -0.6256
 1556TIP3   OH228862   2.783   3.397  19.187 -0.2665  0.6426 -0.4692
 1556TIP3    H128863   2.841   3.324  19.165  1.7518  2.4949 -1.7111
 1556TIP3    H228864   2.787   3.404  19.282 -1.0820 -1.2473 -0.2465
 1557TIP3   OH228865   5.325   0.294  17.517  0.1270  0.0056 -0.4609
 1557TIP3    H128866   5.371   0.215  17.546 -1.2981 -0.2533  1.2791
 1557TIP3    H228867   5.364   0.365  17.568 -0.6790 -0.0613  0.2617
 1558TIP3   OH228868   1.998   1.783  19.463  0.2106  0.3792  0.8027
 1558TIP3    H128869   1.959   1.751  19.545  2.8953 -1.5021  1.4710
 1558TIP3    H228870   1.991   1.710  19.402  0.1266  1.0245  0.0253
 1559TIP3   OH228871   1.116   0.110  16.873 -0.0855  0.6219  0.4875
 1559TIP3    H128872   1.039   0.166  16.883 -1.0058 -0.5507  0.1786
 1559TIP3    H228873   1.169   0.129  16.950 -1.2336  0.6342  1.3007
 1560TIP3   OH228874   0.887   4.886  17.431 -0.0481 -0.2670  0.1981
 1560TIP3    H128875   0.855   4.796  17.442 -0.0662 -0.3356 -0.3727
 1560TIP3    H228876   0.931   4.885  17.346  0.7843  0.0320  0.6200
 1561TIP3   OH228877   4.250   5.939  17.594  0.6734  0.2830 -0.2112
 1561TIP3    H128878   4.217   5.905  17.677  1.8473 -0.3582  0.0077
 1561TIP3    H228879   4.340   5.965  17.613  0.5789  1.2393 -0.9943
 1562TIP3   OH228880   0.206   5.635  19.451  0.4813  0.3544  0.1055
 1562TIP3    H128881   0.233   5.713  19.402 -0.1275  0.4845 -0.0276
 1562TIP3    H228882   0.279   5.618  19.510  0.0358  1.8975  1.1866
 1563TIP3   OH228883   3.545   1.291  18.077  0.1392 -0.0714 -0.1250
 1563TIP3    H128884   3.580   1.344  18.006  0.1388 -0.4651 -0.4222
 1563TIP3    H228885   3.569   1.338  18.156 -0.8134  0.9462 -0.4201
 1564TIP3   OH228886   4.688   1.074  19.015  0.6123 -0.5486 -0.2174
 1564TIP3    H128887   4.657   1.007  19.076 -2.8508  1.1991  0.1980
 1564TIP3    H228888   4.685   1.031  18.929 -0.4850 -1.2735  0.1580
 1565TIP3   OH228889   0.806   2.290  19.110 -0.3848  0.2091  0.1057
 1565TIP3    H128890   0.859   2.216  19.079  0.3891  1.1617 -0.9159
 1565TIP3    H228891   0.866   2.341  19.163 -1.2043 -0.4154  1.6962
 1566TIP3   OH228892   1.856   5.595  19.391  0.0779  0.0176 -0.0718
 1566TIP3    H128893   1.939   5.616  19.435  0.3868 -0.5715 -0.3477
 1566TIP3    H228894   1.824   5.678  19.357  0.4429  0.2878  0.2435
 1567TIP3   OH228895   4.679   3.067  20.057 -0.1435 -0.0792 -0.1855
 1567TIP3    H128896   4.696   3.029  19.972 -0.8796 -0.3162 -0.2337
 1567TIP3    H228897   4.755   3.043  20.111 -0.3624 -1.1625 -0.3589
 1568TIP3   OH228898   5.918   3.277  18.819 -0.0058  0.1337 -0.3082
 1568TIP3    H128899   5.919   3.244  18.729  0.3136 -1.3609  0.2114
 1568TIP3    H228900   5.875   3.362  18.813 -0.1708 -0.0257 -1.8430
 1569TIP3   OH228901   3.965   3.225  18.364 -0.2419  1.0047 -0.3629
 1569TIP3    H128902   3.907   3.226  18.289 -2.3420  1.2912  1.1882
 1569TIP3    H228903   3.913   3.188  18.435  2.7598 -2.7728  0.1982
 1570TIP3   OH228904   3.827   0.849  16.391 -0.1037 -0.4772 -0.3323
 1570TIP3    H128905   3.877   0.800  16.457  1.1108 -1.9520 -2.2534
 1570TIP3    H228906   3.763   0.899  16.442  0.9457 -1.3397  1.9713
 1571TIP3   OH228907   0.506   6.270  17.293 -0.4700  0.3395 -0.2763
 1571TIP3    H128908   0.481   6.215  17.368  0.2603 -0.4137 -0.5718
 1571TIP3    H228909   0.469   6.225  17.217  1.9623 -1.0187 -0.7773
 1572TIP3   OH228910   5.623   6.114  18.409 -0.0737 -0.1794 -0.2651
 1572TIP3    H128911   5.686   6.135  18.339 -2.0527 -0.9627 -2.4148
 1572TIP3    H228912   5.673   6.059  18.470  1.2504 -1.1989 -2.1345
 1573TIP3   OH228913   2.470   4.987  19.174  0.6503  0.3366  0.3270
 1573TIP3    H128914   2.551   4.963  19.128  1.2155  1.3790  0.7429
 1573TIP3    H228915   2.408   4.918  19.151  0.8766  0.8486 -2.0511
 1574TIP3   OH228916   3.320   4.516  20.015 -0.2100 -0.3582  0.3081
 1574TIP3    H128917   3.228   4.534  20.033  0.2483  2.7336  0.1897
 1574TIP3    H228918   3.364   4.598  20.035  2.7693 -2.1514  1.6975
 1575TIP3   OH228919   1.603   1.231  17.589 -0.5223 -0.3347 -0.1955
 1575TIP3    H128920   1.650   1.162  17.635  0.2569 -0.1219 -0.6552
 1575TIP3    H228921   1.571   1.289  17.658 -0.7320 -0.8697  0.1620
 1576TIP3   OH228922   6.667   2.358  19.948  0.6986  0.3564 -0.4171
 1576TIP3    H128923   6.648   2.278  19.899  2.6474  0.3708 -1.3174
 1576TIP3    H228924   6.666   2.332  20.039  2.2497 -0.9723 -0.7378
 1577TIP3   OH228925   6.505   4.208  18.844  0.4971  0.3081  0.6055
 1577TIP3    H128926   6.438   4.263  18.884  1.9470  2.3609  0.3892
 1577TIP3    H228927   6.583   4.219  18.899  1.3579 -0.0538 -0.4798
 1578TIP3   OH228928   0.468   1.494  17.797 -0.1305 -0.0326  0.3809
 1578TIP3    H128929   0.450   1.521  17.707  2.0932  0.1067 -0.0726
 1578TIP3    H228930   0.495   1.402  17.788 -0.6039 -0.2397  1.0218
 1579TIP3   OH228931   6.189   6.500  19.869  0.0972 -0.6957 -0.0182
 1579TIP3    H128932   6.138   6.421  19.852 -1.7854  0.3309  0.5630
 1579TIP3    H228933   6.169   6.523  19.960 -1.8717  2.1070 -1.0213
 1580TIP3   OH228934   2.322   1.881  18.982  0.0833  0.6621  0.0523
 1580TIP3    H128935   2.232   1.912  18.993  0.6483  2.5724 -0.3063
 1580TIP3    H228936   2.341   1.832  19.062 -1.2535  0.2729  0.1513
 1581TIP3   OH228937   1.155   0.300  18.335  0.3035 -0.1552 -0.1580
 1581TIP3    H128938   1.094   0.293  18.409  0.7457 -0.2244  0.2049
 1581TIP3    H228939   1.199   0.215  18.332 -1.9144 -1.3280 -2.4731
 1582TIP3   OH228940   1.648   5.564  16.836 -0.0885  0.7340  0.0215
 1582TIP3    H128941   1.573   5.593  16.784 -0.6491 -1.5136 -0.5022
 1582TIP3    H228942   1.724   5.603  16.793 -0.2232 -3.0009 -4.2884
 1583TIP3   OH228943   0.766   0.776  17.484  0.2269 -0.4483  0.1864
 1583TIP3    H128944   0.797   0.860  17.517  0.2365 -0.3925  0.0366
 1583TIP3    H228945   0.738   0.795  17.394  2.0394 -0.9859 -0.5526
 1584TIP3   OH228946   5.674   3.908  18.732 -0.3472 -0.0191  0.0732
 1584TIP3    H128947   5.745   3.852  18.701  0.1681  1.0561 -0.7376
 1584TIP3    H228948   5.680   3.904  18.828 -1.9918 -3.4338  0.2017
 1585TIP3   OH228949   6.255   3.603  19.773  0.0274  0.5105  0.4164
 1585TIP3    H128950   6.260   3.683  19.721  1.2793  0.1669 -0.0336
 1585TIP3    H228951   6.164   3.598  19.801 -0.8201  0.4863 -2.1205
 1586TIP3   OH228952   5.517   3.824  17.931 -0.7208 -0.4310 -0.0797
 1586TIP3    H128953   5.436   3.870  17.953 -1.0903 -1.0333 -0.1573
 1586TIP3    H228954   5.581   3.855  17.996 -0.9104  0.3307 -0.2512
 1587TIP3   OH228955   3.522   4.033  17.617 -0.1600 -0.2373 -0.1237
 1587TIP3    H128956   3.431   4.057  17.600 -0.8690 -0.1486  3.0792
 1587TIP3    H228957   3.517   3.950  17.664  1.2246  0.6216  1.6640
 1588TIP3   OH228958   1.187   1.688  19.888  0.4721 -0.2040  0.8804
 1588TIP3    H128959   1.097   1.717  19.901 -0.6531 -2.0032 -1.9752
 1588TIP3    H228960   1.197   1.614  19.948  0.2964  0.4174  1.6881
 1589TIP3   OH228961   3.509   0.767  18.178 -0.1110 -0.2450  0.0706
 1589TIP3    H128962   3.597   0.762  18.141  0.4680  0.6533  1.2691
 1589TIP3    H228963   3.460   0.821  18.117  0.3565 -0.1945 -0.2625
 1590TIP3   OH228964   3.348   5.381  17.986 -0.0381 -0.1742  0.2710
 1590TIP3    H128965   3.411   5.453  17.980 -0.6858  0.3075 -1.4206
 1590TIP3    H228966   3.375   5.321  17.915 -0.6798 -0.6265  0.4028
 1591TIP3   OH228967   3.969   6.661  16.988  0.0742 -0.0658  0.6302
 1591TIP3    H128968   3.969   6.751  16.956  1.0449 -0.3623 -0.2450
 1591TIP3    H228969   4.024   6.664  17.067 -0.7132  0.2898  1.1739
 1592TIP3   OH228970   3.082   2.392  17.889  0.2501  0.1181  0.2582
 1592TIP3    H128971   3.161   2.445  17.897  0.2668  0.1360 -0.0122
 1592TIP3    H228972   3.109   2.304  17.915  0.6575 -0.1344 -0.9638
 1593TIP3   OH228973   5.582   5.688  18.934 -0.4237 -0.0869  0.0194
 1593TIP3    H128974   5.666   5.707  18.975  0.0160 -1.3603 -0.2386
 1593TIP3    H228975   5.552   5.772  18.901  0.4884  0.4830  0.5956
 1594TIP3   OH228976   1.529   2.794  19.219 -0.2310 -0.3888  0.0752
 1594TIP3    H128977   1.534   2.836  19.305 -0.8506 -0.8740  0.3608
 1594TIP3    H228978   1.448   2.744  19.222  1.6327 -3.6369  0.6791
 1595TIP3   OH228979   5.943   2.783  17.716  0.5303  0.2867 -0.1598
 1595TIP3    H128980   5.930   2.725  17.641 -0.5075  0.9249 -0.4842
 1595TIP3    H228981   5.874   2.757  17.778  0.6565  0.5357  0.0863
 1596TIP3   OH228982   1.217   3.081  17.853  0.0438  0.7129  0.3463
 1596TIP3    H128983   1.268   3.050  17.928  0.7730 -2.7872 -1.3907
 1596TIP3    H228984   1.279   3.134  17.802  1.5495 -1.9282 -0.7649
 1597TIP3   OH228985   5.954   1.440  17.175 -0.4124  0.4675 -0.2326
 1597TIP3    H128986   5.985   1.531  17.178  0.6277  0.1215 -0.0800
 1597TIP3    H228987   5.880   1.438  17.235  0.2302  0.9813  0.5934
 1598TIP3   OH228988   6.337   5.625  18.095  0.0145 -0.3009  0.1605
 1598TIP3    H128989   6.245   5.633  18.068  0.0762  1.4149  0.3304
 1598TIP3    H228990   6.376   5.565  18.032 -1.0235 -0.3525 -0.4541
 1599TIP3   OH228991   0.649   2.175  18.296 -0.6424 -0.3242  0.0137
 1599TIP3    H128992   0.563   2.216  18.284  0.0216  1.6394  1.4863
 1599TIP3    H228993   0.664   2.177  18.390  2.1385  1.9199 -0.3641
 1600TIP3   OH228994   3.522   1.853  17.354 -0.0734 -0.2270  0.0399
 1600TIP3    H128995   3.576   1.821  17.281  1.9676  1.2827  0.8316
 1600TIP3    H228996   3.473   1.926  17.317  1.9080  1.3621  0.4272
 1601TIP3   OH228997   1.246   2.391  19.977  0.0618  0.3801 -0.0853
 1601TIP3    H128998   1.306   2.423  20.044 -0.2865 -1.7948  1.3888
 1601TIP3    H228999   1.298   2.329  19.926 -0.2711  0.3203 -0.3539
 1602TIP3   OH229000   2.408   3.457  18.198  0.3570 -0.0887 -0.4998
 1602TIP3    H129001   2.475   3.390  18.212  0.0204 -0.0476  1.7864
 1602TIP3    H229002   2.352   3.422  18.129  0.6455 -1.8199  0.0937
 1603TIP3   OH229003   0.227   4.099  18.195  0.2679 -0.8692  0.2751
 1603TIP3    H129004   0.201   4.087  18.287  0.0011  0.0003  0.3246
 1603TIP3    H229005   0.234   4.010  18.160 -0.4823 -1.1859  0.9059
 1604TIP3   OH229006   0.851   1.617  19.101  0.1051  0.3385 -0.1590
 1604TIP3    H129007   0.811   1.653  19.023 -1.1841  1.3522  0.9264
 1604TIP3    H229008   0.784   1.558  19.137  0.5748  0.1002  0.3401
 1605TIP3   OH229009   5.231   0.591  18.860  0.5300  0.1535  0.1136
 1605TIP3    H129010   5.320   0.624  18.849  1.0237 -1.1533  0.0384
 1605TIP3    H229011   5.184   0.621  18.782  1.0194  0.5040 -0.0470
 1606TIP3   OH229012   2.997   2.512  18.581  0.3619 -0.1556 -0.0808
 1606TIP3    H129013   2.991   2.604  18.554 -3.1538 -0.1530  0.2706
 1606TIP3    H229014   2.979   2.513  18.675  0.5524 -1.1960 -0.0206
 1607TIP3   OH229015   2.627   1.456  18.876 -0.3433 -0.1076  0.3872
 1607TIP3    H129016   2.706   1.471  18.928  1.3276  0.9726 -2.2803
 1607TIP3    H229017   2.655   1.397  18.806 -2.3319 -0.9829  0.2647
 1608TIP3   OH229018   4.984   5.861  18.958 -0.0844  0.1689 -0.5208
 1608TIP3    H129019   4.933   5.881  18.879 -2.1709  1.3711  1.0114
 1608TIP3    H229020   4.956   5.774  18.984  0.3920 -0.1108 -0.9225
 1609TIP3   OH229021   4.086   5.404  18.617  0.0065  0.5323 -0.3113
 1609TIP3    H129022   4.119   5.379  18.531 -0.0559  0.6585 -0.3713
 1609TIP3    H229023   4.154   5.461  18.653 -1.1058  2.6107 -1.3363
 1610TIP3   OH229024   1.425   3.386  17.318 -0.3388  0.1119  0.2761
 1610TIP3    H129025   1.511   3.374  17.356  0.0384  1.8385  0.0530
 1610TIP3    H229026   1.435   3.359  17.227 -0.4116 -0.9732  0.5738
 1611TIP3   OH229027   3.363   1.039  17.250  0.2698  0.3559 -0.3466
 1611TIP3    H129028   3.304   1.113  17.235  0.0626  0.4629  0.8919
 1611TIP3    H229029   3.354   0.985  17.171 -2.9973 -0.6233  0.5255
 1612TIP3   OH229030   2.819   5.260  18.408 -0.1461  0.3992  0.2509
 1612TIP3    H129031   2.844   5.204  18.334 -0.0017 -1.4458  1.6338
 1612TIP3    H229032   2.878   5.234  18.479 -0.3900  2.0146  1.1051
 1613TIP3   OH229033   2.410   5.391  19.472  0.3024 -0.3283  0.5396
 1613TIP3    H129034   2.482   5.448  19.497  0.7048 -0.4417 -0.3294
 1613TIP3    H229035   2.356   5.444  19.414 -1.3466  0.3692  2.5912
 1614TIP3   OH229036   0.566   5.034  17.433 -0.0935 -0.5029  0.3925
 1614TIP3    H129037   0.633   4.976  17.469  1.2060 -0.3147 -1.5590
 1614TIP3    H229038   0.561   5.106  17.495  1.2215 -0.7409  0.8162
 1615TIP3   OH229039   1.313   0.874  19.056 -0.5664 -0.0553  0.1470
 1615TIP3    H129040   1.273   0.806  19.110  0.4067 -0.6388  0.1600
 1615TIP3    H229041   1.374   0.919  19.114 -1.0328  0.6873  0.0729
 1616TIP3   OH229042   1.093   5.087  17.514 -0.0882  0.1121 -0.2533
 1616TIP3    H129043   1.030   5.103  17.444 -0.4893  0.1734  0.1219
 1616TIP3    H229044   1.116   4.994  17.505 -1.3106 -0.2725  0.4989
 1617TIP3   OH229045   4.654   3.221  19.079  0.6373 -0.1748  0.1899
 1617TIP3    H129046   4.563   3.191  19.083  0.1834  1.2111  0.8321
 1617TIP3    H229047   4.690   3.198  19.165  0.3865  0.7532  0.5571
 1618TIP3   OH229048   6.374   6.469  20.367 -0.6235 -0.1847 -0.0596
 1618TIP3    H129049   6.409   6.486  20.454 -0.7682 -1.3508  0.2451
 1618TIP3    H229050   6.430   6.400  20.331  0.6658  1.6110 -1.6987
 1619TIP3   OH229051   1.167   2.241  17.607 -0.1721  0.1112  0.0776
 1619TIP3    H129052   1.200   2.270  17.692  2.5464 -0.1754 -0.7791
 1619TIP3    H229053   1.149   2.147  17.619  0.5983 -0.0219  0.2553
 1620TIP3   OH229054   1.961   2.827  18.042 -0.5245  0.1304 -0.0769
 1620TIP3    H129055   1.877   2.791  18.069  0.4326 -0.7557  1.9305
 1620TIP3    H229056   1.959   2.825  17.947 -2.4663 -0.5765 -0.0594
 1621TIP3   OH229057   0.804   2.925  17.884  0.3060 -0.5282 -0.0323
 1621TIP3    H129058   0.878   2.941  17.826  0.8830 -0.0021  0.8306
 1621TIP3    H229059   0.764   3.011  17.897  0.4125 -0.5754  0.6479
 1622TIP3   OH229060   6.290   6.010  18.799 -0.1033  0.0913 -0.6002
 1622TIP3    H129061   6.257   5.942  18.740  2.4824 -0.7232 -1.2302
 1622TIP3    H229062   6.294   6.089  18.745 -2.6197  0.7134 -0.0074
 1623TIP3   OH229063   5.357   4.780  17.071 -0.1344 -0.0217  0.2187
 1623TIP3    H129064   5.348   4.760  16.978  0.4014  0.8961 -0.0494
 1623TIP3    H229065   5.441   4.827  17.077 -0.5954  0.7286  1.0181
 1624TIP3   OH229066   4.777   2.071  19.144  0.6619  0.5338 -0.1291
 1624TIP3    H129067   4.775   1.984  19.185  1.8168 -0.0644 -1.2900
 1624TIP3    H229068   4.793   2.131  19.217  0.8380 -0.3195  0.5515
 1625TIP3   OH229069   4.939   3.056  18.965  0.2912 -0.5384 -0.1386
 1625TIP3    H129070   4.956   2.992  18.896 -0.9304 -0.3157 -0.6744
 1625TIP3    H229071   4.857   3.026  19.005 -0.1768  0.5321 -0.2459
 1626TIP3   OH229072   2.266   1.128  17.528  0.0307  0.1883  0.4103
 1626TIP3    H129073   2.330   1.198  17.514  1.1946 -0.9456 -0.1709
 1626TIP3    H229074   2.319   1.049  17.537 -1.1830 -0.5055  2.0419
 1627TIP3   OH229075   3.314   5.565  19.829  0.4390 -0.4338 -0.0563
 1627TIP3    H129076   3.317   5.475  19.796  0.7816 -0.0164 -1.1982
 1627TIP3    H229077   3.396   5.604  19.800  0.4217  0.1716  0.6819
 1628TIP3   OH229078   3.379   6.330  17.864 -0.2974  0.0533 -0.4264
 1628TIP3    H129079   3.401   6.240  17.842  1.3274 -0.3473  2.2700
 1628TIP3    H229080   3.453   6.360  17.918 -1.4865  2.4800  0.0097
 1629TIP3   OH229081   5.749   4.440  19.155 -0.4081  0.3969  0.1118
 1629TIP3    H129082   5.703   4.373  19.105 -1.6877  1.5437 -0.3179
 1629TIP3    H229083   5.801   4.487  19.090 -0.9427  0.9564  0.0670
 1630TIP3   OH229084   3.919   3.418  19.886 -0.0042 -0.6580 -0.1497
 1630TIP3    H129085   3.885   3.356  19.821  1.5461 -0.2160 -1.4148
 1630TIP3    H229086   3.884   3.503  19.859 -0.1877 -0.6166  0.2070
 1631TIP3   OH229087   5.911   3.322  18.449  0.0770  0.0303  0.1599
 1631TIP3    H129088   5.973   3.278  18.390  1.0837  1.4016  0.1489
 1631TIP3    H229089   5.911   3.267  18.527 -0.4166 -1.1988 -0.6690
 1632TIP3   OH229090   2.771   2.320  18.918 -0.2097 -0.2264 -0.4757
 1632TIP3    H129091   2.686   2.278  18.936 -0.0798  0.3150  1.6329
 1632TIP3    H229092   2.835   2.250  18.929 -0.2009 -0.0861  0.4139
 1633TIP3   OH229093   3.330   4.969  17.489 -0.0508  0.0991 -0.2774
 1633TIP3    H129094   3.298   4.996  17.403 -1.0433  2.4642  0.7661
 1633TIP3    H229095   3.422   4.996  17.490 -0.0331  0.0540 -0.5937
 1634TIP3   OH229096   5.322   4.774  19.552 -0.1172 -0.2444  0.2427
 1634TIP3    H129097   5.326   4.856  19.601  1.0577 -0.8852  1.2848
 1634TIP3    H229098   5.259   4.720  19.600 -0.9293  0.0407 -0.4726
 1635TIP3   OH229099   2.539   0.592  19.278  0.1421 -0.0412 -0.5193
 1635TIP3    H129100   2.469   0.598  19.344  0.6760 -0.2481  0.0807
 1635TIP3    H229101   2.543   0.679  19.239  0.1015  0.2093  0.0207
 1636TIP3   OH229102   0.871   4.333  16.840 -0.0578 -0.5534  0.3112
 1636TIP3    H129103   0.866   4.405  16.776  0.8710 -0.3336  0.4644
 1636TIP3    H229104   0.808   4.268  16.808  0.9507 -0.7966 -1.2921
 1637TIP3   OH229105   0.420   4.297  20.029  0.1263 -0.2399  0.4165
 1637TIP3    H129106   0.424   4.215  20.080 -1.5025 -1.2785 -1.0365
 1637TIP3    H229107   0.431   4.269  19.938 -0.0570  1.2208 -0.0745
 1638TIP3   OH229108   2.425   4.836  20.081 -0.0766 -0.0546  0.0100
 1638TIP3    H129109   2.466   4.921  20.096  1.0130 -0.5707  0.0540
 1638TIP3    H229110   2.408   4.834  19.987  0.4656 -0.0256 -0.0940
 1639TIP3   OH229111   0.202   1.959  18.322 -0.2053  0.3682 -0.2293
 1639TIP3    H129112   0.243   1.921  18.245 -0.2191 -0.4796  0.1695
 1639TIP3    H229113   0.190   2.051  18.300  1.0161  0.4290 -0.7275
 1640TIP3   OH229114   5.586   1.318  17.130  0.0521  0.2361 -0.2502
 1640TIP3    H129115   5.604   1.398  17.179  1.2278 -0.7890  1.0961
 1640TIP3    H229116   5.491   1.309  17.133 -0.0226  1.0941  0.3986
 1641TIP3   OH229117   0.876   3.216  18.630 -1.0103  0.4228 -0.3015
 1641TIP3    H129118   0.808   3.191  18.692 -0.9333  2.1344  0.5473
 1641TIP3    H229119   0.846   3.300  18.594  0.2219  0.7691 -0.5676
 1642TIP3   OH229120   5.266   2.849  17.447 -0.0916  0.3286  0.2266
 1642TIP3    H129121   5.183   2.883  17.479 -0.1749 -1.1054  1.6057
 1642TIP3    H229122   5.244   2.766  17.405  0.5801  0.2002  0.1196
 1643TIP3   OH229123   0.997   2.183  20.021  0.4425 -0.2350  0.6293
 1643TIP3    H129124   1.088   2.155  20.033  1.1232  2.1937  1.9349
 1643TIP3    H229125   1.004   2.269  19.980 -1.2471  0.0598  0.8816
 1644TIP3   OH229126   1.983   2.192  18.916 -0.0442 -0.2319 -0.0415
 1644TIP3    H129127   1.949   2.109  18.883 -0.1055 -0.6902  1.1316
 1644TIP3    H229128   1.987   2.249  18.838  0.3533 -1.4287 -0.9309
 1645TIP3   OH229129   4.559   6.422  20.049 -0.2226  0.4622  0.1497
 1645TIP3    H129130   4.547   6.484  20.121 -0.3257  0.5757  0.0370
 1645TIP3    H229131   4.653   6.407  20.046 -0.2822 -0.0256  0.7051
 1646TIP3   OH229132   2.772   2.982  18.690  0.1649  0.0244 -0.3300
 1646TIP3    H129133   2.792   3.071  18.663 -0.3616  0.6455  1.2419
 1646TIP3    H229134   2.685   2.987  18.727 -0.1269 -1.2883 -0.7855
 1647TIP3   OH229135   5.621   3.048  17.366 -0.0739 -0.5216 -0.7942
 1647TIP3    H129136   5.626   3.138  17.399  0.9803 -0.5530 -0.8150
 1647TIP3    H229137   5.538   3.044  17.320 -0.6348  0.1251  0.1214
 1648TIP3   OH229138   6.055   3.035  19.816  0.5725  0.0834 -0.2172
 1648TIP3    H129139   6.022   3.010  19.729  0.4279 -0.9404  0.1254
 1648TIP3    H229140   6.072   3.129  19.808 -0.2878  0.1821 -1.0835
 1649TIP3   OH229141   3.585   6.317  19.209  0.1294 -0.2567 -0.6729
 1649TIP3    H129142   3.596   6.325  19.114  1.0067  0.1351 -0.5474
 1649TIP3    H229143   3.543   6.399  19.235 -0.3175 -0.4581 -0.7444
 1650TIP3   OH229144   5.136   4.151  18.362  0.2425  0.2996 -0.4933
 1650TIP3    H129145   5.074   4.112  18.423 -1.3673  1.4362 -1.3021
 1650TIP3    H229146   5.153   4.082  18.297  0.7142 -0.3792  0.3327
 1651TIP3   OH229147   5.060   0.020  18.823  0.6029 -0.7122 -0.0213
 1651TIP3    H129148   5.059   0.103  18.774  1.7677 -1.5262 -1.4948
 1651TIP3    H229149   4.993   0.032  18.890 -0.5928  0.7339 -1.3789
 1652TIP3   OH229150   1.831   3.257  16.945  0.7224  0.2961 -0.3058
 1652TIP3    H129151   1.899   3.273  16.880 -0.1498  0.8942 -1.0935
 1652TIP3    H229152   1.751   3.291  16.905 -0.1340 -0.8301  0.3925
 1653TIP3   OH229153   1.888   4.790  17.344  0.0636  0.1023 -0.0336
 1653TIP3    H129154   1.920   4.879  17.358  0.6649  0.5120 -3.2219
 1653TIP3    H229155   1.802   4.802  17.304  1.3793 -0.4669 -3.4126
 1654TIP3   OH229156   0.923   6.591  16.929  0.2875 -0.5836  0.2323
 1654TIP3    H129157   0.866   6.633  16.993  0.4699 -0.1000  0.0819
 1654TIP3    H229158   0.998   6.650  16.922  1.0429 -1.4608  0.8023
 1655TIP3   OH229159   6.173   3.718  18.502  0.3760  0.1756 -0.7993
 1655TIP3    H129160   6.186   3.673  18.418 -1.0525 -1.1765 -0.3477
 1655TIP3    H229161   6.227   3.796  18.496  2.4979 -1.2732 -1.8872
 1656TIP3   OH229162   1.303   4.748  17.051 -0.5177  0.1159  0.1317
 1656TIP3    H129163   1.267   4.660  17.061  0.1439 -0.1365  0.3242
 1656TIP3    H229164   1.386   4.735  17.004  0.0263  0.5332  0.9620
 1657TIP3   OH229165   0.854   4.671  19.169 -0.2349 -0.1481 -0.7616
 1657TIP3    H129166   0.922   4.728  19.204 -2.1925  1.8756  0.0159
 1657TIP3    H229167   0.896   4.624  19.098  2.4787 -0.4873  0.9196
 1658TIP3   OH229168   5.041   1.030  20.226  0.5523  0.1998  0.3321
 1658TIP3    H129169   5.029   0.937  20.248 -1.9982  0.6528  1.1247
 1658TIP3    H229170   4.984   1.045  20.151  1.1173  1.1006  0.0671
 1659TIP3   OH229171   6.116   0.223  18.606  0.0308  0.1316 -0.4995
 1659TIP3    H129172   6.113   0.251  18.698 -0.4719  0.5354 -0.6362
 1659TIP3    H229173   6.149   0.133  18.609  0.0520  0.1558  0.0712
 1660TIP3   OH229174   3.363   6.181  18.705 -0.1158 -0.1513 -0.3169
 1660TIP3    H129175   3.451   6.148  18.720 -0.6187 -0.7572  1.5480
 1660TIP3    H229176   3.356   6.259  18.761 -1.0646 -0.6675  0.3108
 1661TIP3   OH229177   1.017   2.552  19.029  0.2129 -0.7453 -0.8508
 1661TIP3    H129178   0.943   2.604  18.997 -0.1140 -0.6111  0.1025
 1661TIP3    H229179   1.041   2.498  18.954 -0.2409 -0.1106 -1.4707
 1662TIP3   OH229180   1.188   3.598  18.472  0.0716  0.7700  0.7097
 1662TIP3    H129181   1.221   3.630  18.556  0.6425  0.8204  0.4698
 1662TIP3    H229182   1.243   3.641  18.406  0.7630 -0.5764  0.3754
 1663TIP3   OH229183   3.655   5.493  19.432 -0.2803  0.5448  0.2908
 1663TIP3    H129184   3.607   5.413  19.413  0.3996 -0.0441  0.9875
 1663TIP3    H229185   3.616   5.559  19.374 -0.3660 -0.4545 -0.8319
 1664TIP3   OH229186   4.259   4.179  19.287  0.6907 -0.0122 -0.6691
 1664TIP3    H129187   4.331   4.160  19.226 -1.1366 -1.3507 -2.5507
 1664TIP3    H229188   4.257   4.103  19.345  0.7243 -0.0343 -0.6967
 1665TIP3   OH229189   3.892   5.565  18.682  0.3182 -0.0450 -0.0763
 1665TIP3    H129190   3.940   5.482  18.670  0.0422 -0.2373  0.1415
 1665TIP3    H229191   3.954   5.623  18.725  1.1150  0.4386 -1.7794
 1666TIP3   OH229192   5.054   3.299  18.005  0.2772 -0.7818 -0.1787
 1666TIP3    H129193   5.081   3.227  18.061  0.4659  0.6183  1.6037
 1666TIP3    H229194   5.133   3.353  17.995 -0.4947  0.5755  0.7456
 1667TIP3   OH229195   1.740   6.143  18.559 -0.4258  0.7162  0.2017
 1667TIP3    H129196   1.653   6.180  18.540  0.2812  1.3433 -2.2384
 1667TIP3    H229197   1.798   6.219  18.557  0.4385  0.0549 -0.3244
 1668TIP3   OH229198   4.842   4.741  19.962 -0.1257 -0.2205 -0.7139
 1668TIP3    H129199   4.804   4.746  19.874 -1.6105 -1.2118 -0.1733
 1668TIP3    H229200   4.847   4.647  19.980 -1.2105 -0.0255  0.7961
 1669TIP3   OH229201   0.483   6.480  19.849 -0.0080 -0.6107  0.5308
 1669TIP3    H129202   0.408   6.533  19.874 -0.3778  0.0376 -1.7227
 1669TIP3    H229203   0.537   6.475  19.928  0.0028  3.0719  0.9133
 1670TIP3   OH229204   0.116   4.590  17.810 -0.4423  0.1405  0.5267
 1670TIP3    H129205   0.090   4.588  17.718  0.5497  3.7482  0.0226
 1670TIP3    H229206   0.037   4.614  17.857 -0.2750  1.3830  0.1976
 1671TIP3   OH229207   5.291   4.149  19.158 -0.1616 -0.1454  0.5804
 1671TIP3    H129208   5.213   4.108  19.121  0.5760 -0.6583 -0.4512
 1671TIP3    H229209   5.268   4.242  19.166 -0.2430  0.0535 -1.5477
 1672TIP3   OH229210   4.224   6.496  19.814 -0.3937  0.3808  0.0387
 1672TIP3    H129211   4.173   6.567  19.853  0.4762  0.1167  1.7606
 1672TIP3    H229212   4.313   6.531  19.808 -0.3099  0.0397 -0.7528
 1673TIP3   OH229213   2.140   0.310  18.260 -0.2109  0.0168  0.1479
 1673TIP3    H129214   2.224   0.291  18.302  0.3610  0.2253 -0.8586
 1673TIP3    H229215   2.161   0.379  18.197 -1.1101 -0.0608 -0.2435
 1674TIP3   OH229216   6.453   5.691  17.406  0.1674 -0.0090 -0.1847
 1674TIP3    H129217   6.399   5.750  17.459 -0.4170 -0.8690  0.1981
 1674TIP3    H229218   6.404   5.608  17.405 -0.2584  0.1799 -2.6959
 1675TIP3   OH229219   1.105   0.140  18.908 -0.0849  0.2738  0.0656
 1675TIP3    H129220   1.180   0.086  18.884 -0.4371  0.0674 -0.6091
 1675TIP3    H229221   1.064   0.094  18.981 -1.3766 -1.3525 -1.5793
 1676TIP3   OH229222   4.813   4.110  16.507  0.5177 -0.1589 -0.4617
 1676TIP3    H129223   4.889   4.095  16.450  0.2935  0.6612 -0.9990
 1676TIP3    H229224   4.744   4.056  16.469  1.1463 -1.9190  0.7770
 1677TIP3   OH229225   3.075   3.132  20.114 -0.2325  0.4244 -0.5567
 1677TIP3    H129226   3.079   3.211  20.168  1.3325 -0.6928  1.0845
 1677TIP3    H229227   3.145   3.144  20.049  1.4279 -0.4105  0.9776
 1678TIP3   OH229228   3.380   5.045  19.692  0.1679  0.1656 -0.2410
 1678TIP3    H129229   3.316   4.986  19.731 -1.0292  1.0096 -0.8719
 1678TIP3    H229230   3.379   5.023  19.599  1.9548 -0.8618 -0.0652
 1679TIP3   OH229231   1.041   3.601  18.846  0.0301  0.1277 -0.8203
 1679TIP3    H129232   1.057   3.669  18.911  1.8638 -0.5745 -0.4755
 1679TIP3    H229233   0.996   3.646  18.774 -1.5732  1.0262  0.6646
 1680TIP3   OH229234   1.761   5.295  18.006  0.3494  0.2078  0.3593
 1680TIP3    H129235   1.855   5.304  18.021  0.3336 -0.8883  1.1774
 1680TIP3    H229236   1.751   5.209  17.965 -0.2642  0.4861 -0.0978
 1681TIP3   OH229237   3.809   0.690  19.858  0.3166  0.5132 -0.2724
 1681TIP3    H129238   3.813   0.722  19.768 -1.7540  0.9733 -0.2412
 1681TIP3    H229239   3.806   0.595  19.849  0.7444  0.5345 -0.6590
 1682TIP3   OH229240   6.319   1.385  16.861 -0.1054 -0.0320 -0.6012
 1682TIP3    H129241   6.344   1.320  16.926 -0.4393 -0.8025 -1.2267
 1682TIP3    H229242   6.242   1.348  16.819  0.2075  0.3675 -1.5499
 1683TIP3   OH229243   1.301   1.585  17.092 -0.5988 -0.0426 -0.1788
 1683TIP3    H129244   1.309   1.616  17.182  0.1559 -1.2698  0.1950
 1683TIP3    H229245   1.378   1.621  17.048  0.6181 -1.8110  0.4086
 1684TIP3   OH229246   2.255   1.052  16.614  0.7012  0.2290 -0.2412
 1684TIP3    H129247   2.339   1.051  16.660  1.0138  0.3356 -0.8028
 1684TIP3    H229248   2.229   1.144  16.612  1.2491  0.3868 -1.2584
 1685TIP3   OH229249   2.876   4.839  18.070 -0.6862  0.2003 -0.0258
 1685TIP3    H129250   2.957   4.823  18.119  1.2160  1.3582 -2.5584
 1685TIP3    H229251   2.898   4.818  17.979 -3.5665 -0.3605 -0.7036
 1686TIP3   OH229252   0.509   5.226  17.638  0.0133 -0.2391  0.0853
 1686TIP3    H129253   0.562   5.166  17.690 -0.5542 -1.2983 -0.5278
 1686TIP3    H229254   0.452   5.269  17.702  0.5395 -0.2127  0.5484
 1687TIP3   OH229255   1.778   5.645  18.587  0.0348 -0.0036  0.0157
 1687TIP3    H129256   1.846   5.664  18.522 -1.2547 -0.8238 -1.6878
 1687TIP3    H229257   1.738   5.730  18.606  0.8553  0.3361  0.2540
 1688TIP3   OH229258   2.890   4.184  17.937 -0.0236  0.0022 -0.4088
 1688TIP3    H129259   2.900   4.190  18.032  1.4569 -1.2921 -0.4377
 1688TIP3    H229260   2.800   4.209  17.921 -0.5948 -0.6671  1.4458
 1689TIP3   OH229261   5.546   3.974  19.165  0.1055  0.1602  0.2580
 1689TIP3    H129262   5.576   3.976  19.256  0.1543 -1.3132  0.3034
 1689TIP3    H229263   5.469   4.031  19.163 -0.1500 -0.1282  1.3286
 1690TIP3   OH229264   2.220   5.790  17.298  0.2026 -0.0033  0.0679
 1690TIP3    H129265   2.134   5.750  17.286  0.2567 -0.1488  0.1640
 1690TIP3    H229266   2.216   5.872  17.249 -0.5721  0.8014  1.4036
 1691TIP3   OH229267   3.043   2.265  19.198  0.4429  0.1669 -0.4944
 1691TIP3    H129268   3.136   2.281  19.181  0.1434  0.8508 -1.5907
 1691TIP3    H229269   3.001   2.349  19.180 -0.3985 -0.1633 -0.0971
 1692TIP3   OH229270   4.084   4.398  19.363  0.1069  0.2814  0.1065
 1692TIP3    H129271   4.149   4.330  19.343 -1.1210 -0.9057  0.0279
 1692TIP3    H229272   4.032   4.405  19.283 -1.4502 -0.6375  1.0005
 1693TIP3   OH229273   5.143   1.455  18.969  0.1250 -0.4989  0.1132
 1693TIP3    H129274   5.061   1.417  18.999  0.3680 -0.5528  0.7150
 1693TIP3    H229275   5.211   1.409  19.018  0.4534  0.2912  0.4226
 1694TIP3   OH229276   3.605   0.969  19.145 -0.4601 -0.6097 -0.4155
 1694TIP3    H129277   3.561   0.891  19.112 -1.6422  0.2374 -0.9225
 1694TIP3    H229278   3.534   1.026  19.174  0.4111 -0.0037  0.6279
 1695TIP3   OH229279   4.779   2.077  20.059 -0.3053 -0.2687  0.1079
 1695TIP3    H129280   4.855   2.135  20.067 -0.1335 -0.3598 -0.7259
 1695TIP3    H229281   4.804   1.999  20.107 -0.8748  0.6416  1.9655
 1696TIP3   OH229282   6.029   0.005  17.010 -0.2892 -0.8091 -0.4107
 1696TIP3    H129283   5.998   0.075  16.952  1.1939  0.0106 -0.2665
 1696TIP3    H229284   6.110  -0.026  16.968 -0.0283 -1.2795  0.4267
 1697TIP3   OH229285   4.741   5.012  18.650 -0.0194 -1.0241 -0.2434
 1697TIP3    H129286   4.814   4.958  18.617 -0.1814 -1.0314 -0.5927
 1697TIP3    H229287   4.708   4.964  18.725  0.2428 -1.0961 -0.1713
 1698TIP3   OH229288   0.512   0.074  16.852  0.0287  0.2004 -0.4370
 1698TIP3    H129289   0.594   0.120  16.869 -0.9967  1.8051  0.4585
 1698TIP3    H229290   0.525   0.033  16.766  2.3315 -1.0234  0.4074
 1699TIP3   OH229291   2.598   5.771  16.975 -0.3922  0.0121 -0.4592
 1699TIP3    H129292   2.505   5.749  16.966 -0.9504  2.5232 -1.6630
 1699TIP3    H229293   2.637   5.738  16.894 -0.9217  1.8553 -1.5165
 1700TIP3   OH229294   4.471   6.136  18.418  0.3480  0.1145 -0.1225
 1700TIP3    H129295   4.529   6.186  18.360  0.8903  1.0138  1.1652
 1700TIP3    H229296   4.384   6.172  18.401  0.6510  1.0942  0.3538
 1701TIP3   OH229297   5.295   2.424  19.462  0.2556 -0.1054 -0.0644
 1701TIP3    H129298   5.382   2.459  19.481 -0.6723  2.2030  0.2602
 1701TIP3    H229299   5.245   2.438  19.542 -0.2464 -2.1065  0.0138
 1702TIP3   OH229300   3.750   4.951  19.366 -0.2628  0.0098  0.2318
 1702TIP3    H129301   3.658   4.971  19.349 -0.1373 -1.4555 -2.9083
 1702TIP3    H229302   3.748   4.868  19.413 -0.5720 -0.5639 -0.7684
 1703TIP3   OH229303   6.252   4.321  19.639 -0.5405  0.1045  0.4833
 1703TIP3    H129304   6.157   4.327  19.626 -0.6304  0.3862  1.1979
 1703TIP3    H229305   6.262   4.260  19.712 -0.1041 -0.8681 -0.3766
 1704TIP3   OH229306   3.533   2.424  18.511  0.0037  0.3532 -0.2844
 1704TIP3    H129307   3.463   2.423  18.446 -0.8869 -1.3476  0.6163
 1704TIP3    H229308   3.609   2.389  18.466 -0.5712 -0.6896 -0.4749
 1705TIP3   OH229309   4.068   3.815  17.779 -0.1553  0.5996  0.0596
 1705TIP3    H129310   4.141   3.847  17.831  0.5393 -0.6425 -0.1124
 1705TIP3    H229311   4.071   3.866  17.698  2.0991 -1.0826 -1.0245
 1706TIP3   OH229312   5.779   4.489  17.098  0.1968 -0.0651 -0.2840
 1706TIP3    H129313   5.747   4.511  17.011 -0.5195  0.3566  0.0747
 1706TIP3    H229314   5.786   4.394  17.098  0.2800 -0.0601 -0.8274
 1707TIP3   OH229315   2.575   4.114  17.434 -0.3728 -0.2187 -0.0585
 1707TIP3    H129316   2.545   4.023  17.445  2.4738 -1.3858 -1.1500
 1707TIP3    H229317   2.612   4.116  17.346 -1.9466  2.5571 -0.7605
 1708TIP3   OH229318   6.179   6.396  17.390  0.5149  0.2608 -0.3583
 1708TIP3    H129319   6.166   6.447  17.470  0.8443 -0.0468 -0.1041
 1708TIP3    H229320   6.101   6.414  17.337  1.3845  2.3736 -1.0267
 1709TIP3   OH229321   5.021   4.733  19.169 -0.3573 -0.3813 -0.2613
 1709TIP3    H129322   5.030   4.776  19.084  1.4306 -0.6096 -0.2337
 1709TIP3    H229323   5.111   4.710  19.193 -0.7769  0.0767  1.9070
 1710TIP3   OH229324   1.369   0.701  17.866  0.0300  0.4999  0.1022
 1710TIP3    H129325   1.277   0.676  17.860 -0.1314  0.9171  0.8191
 1710TIP3    H229326   1.370   0.778  17.922  0.6008  1.7114 -1.4808
 1711TIP3   OH229327   5.502   6.617  19.964 -0.4286  0.3383  0.4341
 1711TIP3    H129328   5.582   6.670  19.961  0.4687 -0.9844 -0.5971
 1711TIP3    H229329   5.481   6.600  19.872 -1.6011  0.2175  0.7084
 1712TIP3   OH229330   4.621   3.133  16.620  0.1046 -0.0952  0.3354
 1712TIP3    H129331   4.633   3.040  16.638 -1.3482 -0.1981  0.9956
 1712TIP3    H229332   4.589   3.169  16.703 -3.2594  0.1601 -0.8862
 1713TIP3   OH229333   5.038   4.964  17.821 -0.0132  0.3195  0.0896
 1713TIP3    H129334   4.946   4.953  17.795  0.0585  2.4741 -1.2778
 1713TIP3    H229335   5.037   5.037  17.883  0.7912  0.4118  0.0027
 1714TIP3   OH229336   1.800   5.522  19.867  0.4366 -0.6300  0.1059
 1714TIP3    H129337   1.704   5.520  19.874  0.4769  0.1277  1.1025
 1714TIP3    H229338   1.817   5.508  19.774 -0.7097  0.5243 -0.3196
 1715TIP3   OH229339   0.357   3.436  19.940  0.1083 -0.0072  0.3641
 1715TIP3    H129340   0.400   3.453  20.024 -0.3059 -0.1753  0.6185
 1715TIP3    H229341   0.384   3.347  19.917  2.6336  1.0701 -1.1865
 1716TIP3   OH229342   3.490   2.478  19.064  0.3955  0.4511 -0.6283
 1716TIP3    H129343   3.487   2.573  19.052  0.6190  0.6701  0.9536
 1716TIP3    H229344   3.398   2.453  19.077  0.4438  0.6052  0.0297
 1717TIP3   OH229345   4.137   4.496  19.890  0.3027 -0.4861 -0.3036
 1717TIP3    H129346   4.129   4.499  19.795 -0.0862  0.0878 -0.2558
 1717TIP3    H229347   4.047   4.501  19.922  0.5254  1.1283  0.1313
 1718TIP3   OH229348   3.317   0.402  19.656  0.4202 -0.6496  0.8573
 1718TIP3    H129349   3.363   0.485  19.668 -1.4016  0.3591  1.2829
 1718TIP3    H229350   3.363   0.359  19.585 -0.0190  1.8444 -1.0858
 1719TIP3   OH229351   0.554   3.456  19.434 -0.1677 -0.4740  0.7274
 1719TIP3    H129352   0.649   3.443  19.443  0.2873  1.8151 -0.1203
 1719TIP3    H229353   0.526   3.484  19.521 -0.0620 -1.0575  0.9552
 1720TIP3   OH229354   2.190   1.295  17.212 -0.1973 -0.1099  0.2721
 1720TIP3    H129355   2.231   1.327  17.131 -1.8137  1.2673 -0.0737
 1720TIP3    H229356   2.253   1.316  17.281 -0.0347  1.4676 -0.3000
 1721TIP3   OH229357   4.931   0.662  18.836  0.0657  0.2835  0.2375
 1721TIP3    H129358   4.970   0.731  18.782  0.0593 -0.7317 -1.1315
 1721TIP3    H229359   5.000   0.597  18.846 -0.1070  0.2147  1.0134
 1722TIP3   OH229360   3.743   1.995  18.134  0.0640 -0.2772 -0.3322
 1722TIP3    H129361   3.649   2.011  18.124 -0.2448 -2.0600 -0.4569
 1722TIP3    H229362   3.760   1.915  18.085  1.5472 -0.3497  0.2312
 1723TIP3   OH229363   1.510   5.615  17.644 -0.4629  0.2261 -0.2301
 1723TIP3    H129364   1.445   5.578  17.584 -1.0072  0.9198 -0.0826
 1723TIP3    H229365   1.547   5.539  17.689  0.1184 -0.3261 -1.5910
 1724TIP3   OH229366   3.420   2.791  19.651  0.0342  0.4301  0.2913
 1724TIP3    H129367   3.398   2.875  19.612  2.3937  1.9962  2.0786
 1724TIP3    H229368   3.349   2.776  19.714 -0.4101  1.0729 -0.0389
 1725TIP3   OH229369   2.282   4.057  20.296  0.0559 -0.7820  0.8066
 1725TIP3    H129370   2.297   4.094  20.209 -1.4103  0.5654  1.0865
 1725TIP3    H229371   2.304   3.965  20.286  0.8412 -0.4790 -0.7311
 1726TIP3   OH229372   6.657   0.519  18.927  0.5273  0.1537 -0.3035
 1726TIP3    H129373   6.722   0.581  18.963 -0.6115  1.2175  0.0006
 1726TIP3    H229374   6.573   0.556  18.953 -0.2434 -0.6192 -1.6228
 1727TIP3   OH229375   0.515   4.605  19.847  0.0424  0.0768 -0.4238
 1727TIP3    H129376   0.601   4.640  19.825 -0.4056  0.7690 -1.1552
 1727TIP3    H229377   0.455   4.653  19.790 -0.7390 -1.0017 -0.5375
 1728TIP3   OH229378   4.267   1.651  17.922  0.7343 -0.4033 -0.2686
 1728TIP3    H129379   4.284   1.719  17.857  0.9007  0.7330  0.9253
 1728TIP3    H229380   4.229   1.579  17.872  0.6680  0.5149 -1.5832
 1729TIP3   OH229381   0.606   4.772  18.732 -0.4599 -0.4802 -0.5949
 1729TIP3    H129382   0.518   4.805  18.749 -0.4083  0.5234 -2.1008
 1729TIP3    H229383   0.629   4.806  18.646  2.2666  1.2176  0.6522
 1730TIP3   OH229384   4.261   4.206  19.704 -0.7493  0.3896  0.5089
 1730TIP3    H129385   4.311   4.280  19.671 -2.4993  1.7517  0.7241
 1730TIP3    H229386   4.173   4.218  19.667 -0.9595 -1.9126  0.0838
 1731TIP3   OH229387   6.021   0.677  20.258 -0.4993 -0.1346 -0.5490
 1731TIP3    H129388   5.927   0.693  20.266 -0.7694 -1.0994 -1.4892
 1731TIP3    H229389   6.029   0.619  20.182  0.9167  0.4796 -0.9182
 1732TIP3   OH229390   5.385   0.918  18.013 -0.1069 -0.3385 -0.2894
 1732TIP3    H129391   5.348   0.830  18.004 -0.7693 -0.0082 -0.8223
 1732TIP3    H229392   5.431   0.916  18.098 -1.7885 -0.5948  0.6487
 1733TIP3   OH229393   4.445   5.125  18.801 -0.3508  0.3683 -0.2963
 1733TIP3    H129394   4.490   5.207  18.781  0.8465 -0.2517 -0.2805
 1733TIP3    H229395   4.429   5.085  18.716  0.3250 -0.0065 -0.2583
 1734TIP3   OH229396   6.182   5.495  19.577 -0.3992  0.7227  0.6666
 1734TIP3    H129397   6.134   5.506  19.495  0.8457  0.3033 -0.1439
 1734TIP3    H229398   6.226   5.578  19.591  0.9703  0.1778 -0.1669
 1735TIP3   OH229399   0.875   6.519  17.457  0.2176 -0.2895  0.6591
 1735TIP3    H129400   0.790   6.545  17.420 -0.1131 -0.2866  1.3973
 1735TIP3    H229401   0.865   6.425  17.473 -0.3043  0.0106  2.3757
 1736TIP3   OH229402   4.533   0.195  20.030 -0.1595 -0.0928  0.4747
 1736TIP3    H129403   4.541   0.252  19.953  1.3480 -1.3278 -0.3487
 1736TIP3    H229404   4.450   0.221  20.071 -1.1753  0.4169 -1.7430
 1737TIP3   OH229405   4.789   6.474  19.483  0.3441 -0.5394 -0.0508
 1737TIP3    H129406   4.697   6.502  19.493  0.4005 -0.8828  1.7657
 1737TIP3    H229407   4.839   6.543  19.526  0.5791 -2.5407  3.1917
 1738TIP3   OH229408   0.598   2.413  18.032 -0.5192 -0.5270 -0.0400
 1738TIP3    H129409   0.632   2.494  17.995 -1.4949 -0.0531  0.0520
 1738TIP3    H229410   0.673   2.371  18.075  0.1953 -0.1499 -0.9151
 1739TIP3   OH229411   4.915   6.216  17.331  0.0398 -0.5428 -0.9361
 1739TIP3    H129412   4.924   6.264  17.413 -0.6693 -0.3261 -0.9758
 1739TIP3    H229413   4.893   6.127  17.357  0.2223 -0.5731 -0.8844
 1740TIP3   OH229414   3.651   5.606  18.150 -0.4937 -0.2375 -0.3991
 1740TIP3    H129415   3.713   5.551  18.198  1.5846  1.6711 -0.7092
 1740TIP3    H229416   3.607   5.657  18.218  1.2850  1.2948 -0.2855
 1741TIP3   OH229417   6.563   5.260  17.189  0.0789 -0.0725 -0.4384
 1741TIP3    H129418   6.559   5.189  17.124 -1.9830  0.7309 -1.2574
 1741TIP3    H229419   6.656   5.284  17.191  0.5122 -1.4512 -1.6127
 1742TIP3   OH229420   1.980   2.639  18.645  0.0422 -0.1378  0.1003
 1742TIP3    H129421   1.981   2.735  18.639  0.5300 -0.2223 -2.0081
 1742TIP3    H229422   1.903   2.612  18.596  0.0406 -0.8549  0.4762
 1743TIP3   OH229423   4.327   3.177  17.124  0.3925  0.7567  0.0250
 1743TIP3    H129424   4.322   3.122  17.202 -0.2832  0.7213 -0.0368
 1743TIP3    H229425   4.236   3.202  17.106  0.6623  1.7336 -0.0629
 1744TIP3   OH229426   2.738   1.823  18.153 -0.1304  0.0957 -0.1049
 1744TIP3    H129427   2.653   1.855  18.183  0.2129 -0.3782  1.4808
 1744TIP3    H229428   2.801   1.863  18.213  0.7696  0.2579 -1.1171
 1745TIP3   OH229429   4.264   5.660  18.985  0.0854  0.8210  0.2692
 1745TIP3    H129430   4.258   5.706  19.069  1.0216  0.1639  0.7208
 1745TIP3    H229431   4.200   5.588  18.993  1.0998 -0.0355  0.9728
 1746TIP3   OH229432   6.175   6.120  17.487 -0.0243 -0.6661 -0.5019
 1746TIP3    H129433   6.233   6.091  17.417  1.8847  1.8896 -0.1385
 1746TIP3    H229434   6.144   6.206  17.459  1.7944  1.0273  2.1418
 1747TIP3   OH229435   3.007   1.324  17.852 -0.5629 -0.0378  0.0728
 1747TIP3    H129436   2.952   1.313  17.930 -0.2206 -1.6147  0.1321
 1747TIP3    H229437   3.096   1.324  17.886 -0.4106 -0.7543 -0.3044
 1748TIP3   OH229438   1.316   5.342  18.391 -0.3159 -0.7914  0.2195
 1748TIP3    H129439   1.391   5.330  18.448 -0.2751  1.0784  0.5975
 1748TIP3    H229440   1.278   5.254  18.384  0.9521 -1.4666  1.3121
 1749TIP3   OH229441   6.033   6.376  18.148  0.2749 -0.0926 -0.0361
 1749TIP3    H129442   6.086   6.338  18.078 -0.6436 -2.2469  0.3438
 1749TIP3    H229443   6.083   6.359  18.228 -0.0274 -0.2825  0.1143
 1750TIP3   OH229444   2.295   4.578  17.307  0.0770  0.1538  0.3803
 1750TIP3    H129445   2.331   4.548  17.224  0.5026  0.6427  0.3848
 1750TIP3    H229446   2.357   4.547  17.373 -1.2180 -1.8884  0.7258
 1751TIP3   OH229447   1.905   3.246  17.454 -0.0105  0.2186 -0.2867
 1751TIP3    H129448   1.952   3.315  17.408  3.3256 -0.8023  1.2888
 1751TIP3    H229449   1.919   3.167  17.402  2.3910 -0.6038  1.4251
 1752TIP3   OH229450   5.584   4.939  17.870  0.1858 -0.0756  0.1338
 1752TIP3    H129451   5.580   4.918  17.777  1.0754  0.5231 -0.0526
 1752TIP3    H229452   5.495   4.923  17.902 -0.2426  0.1269 -0.9100
 1753TIP3   OH229453   5.365   4.290  18.481 -0.0797  0.4274 -0.3776
 1753TIP3    H129454   5.336   4.347  18.552 -1.6180 -1.4121  0.5789
 1753TIP3    H229455   5.286   4.272  18.430  1.0562  2.0672 -2.9438
 1754TIP3   OH229456   6.376   2.839  18.111  0.1737  0.3948  0.2595
 1754TIP3    H129457   6.411   2.752  18.089 -1.5692 -0.5636  1.0839
 1754TIP3    H229458   6.328   2.865  18.033 -0.1303  0.1743  0.3737
 1755TIP3   OH229459   2.929   2.840  17.344  0.2347  0.2553 -0.2122
 1755TIP3    H129460   2.952   2.847  17.251  1.2549  1.0528  0.0864
 1755TIP3    H229461   2.886   2.755  17.351  0.7283 -0.1058 -1.3094
 1756TIP3   OH229462   3.878   5.171  17.062  0.1087  0.0444  0.2708
 1756TIP3    H129463   3.823   5.238  17.104 -1.3609  0.1266 -1.6899
 1756TIP3    H229464   3.854   5.089  17.105  0.2595  0.4172  1.0948
 1757TIP3   OH229465   0.441   4.488  17.658  0.1384  0.0120 -0.1554
 1757TIP3    H129466   0.504   4.434  17.704  1.7797 -0.1043 -2.3486
 1757TIP3    H229467   0.355   4.459  17.690  1.1291 -0.5500  2.1337
 1758TIP3   OH229468   4.735   4.612  17.101 -0.0607 -0.0378 -0.1298
 1758TIP3    H129469   4.811   4.652  17.059  0.1515  1.0208  1.2026
 1758TIP3    H229470   4.660   4.654  17.058  0.0446 -1.6370 -1.9820
 1759TIP3   OH229471   0.561   4.689  17.989 -0.3588  0.0856  0.1262
 1759TIP3    H129472   0.622   4.640  17.935  1.1725  1.2956  0.7041
 1759TIP3    H229473   0.567   4.779  17.957 -1.1989  0.3784  0.7549
 1760TIP3   OH229474   5.183   3.608  17.944  0.4175  0.0861  0.5754
 1760TIP3    H129475   5.220   3.596  18.031  0.2454 -0.1433  0.6202
 1760TIP3    H229476   5.185   3.703  17.929 -0.8772  0.2838  1.4265
 1761TIP3   OH229477   3.520   0.535  17.951 -0.1717  0.3764 -0.1519
 1761TIP3    H129478   3.435   0.576  17.966 -0.7947 -0.7667 -0.3661
 1761TIP3    H229479   3.499   0.442  17.939  1.3615 -0.4476  2.6448
 1762TIP3   OH229480   1.823   5.037  17.014  0.4020 -0.5349  0.0479
 1762TIP3    H129481   1.755   4.978  17.046  1.1854 -1.6211 -0.2050
 1762TIP3    H229482   1.842   5.005  16.926 -0.4858  1.3040 -0.8669
 1763TIP3   OH229483   4.892   0.648  16.328 -0.5028  0.7376  0.0562
 1763TIP3    H129484   4.937   0.587  16.269 -1.6085  0.4876 -0.5525
 1763TIP3    H229485   4.800   0.637  16.308 -0.9798  0.1970  2.2469
 1764TIP3   OH229486   2.453   5.896  17.909 -0.4576 -0.5252 -0.7951
 1764TIP3    H129487   2.502   5.892  17.827  1.1379  0.2373  0.0677
 1764TIP3    H229488   2.422   5.986  17.914 -0.3170 -0.4922 -0.4523
 1765TIP3   OH229489   4.610   2.183  18.117 -0.1115 -0.2201 -0.1380
 1765TIP3    H129490   4.641   2.096  18.092  0.8410  0.3516 -1.0305
 1765TIP3    H229491   4.533   2.197  18.062 -0.6427 -0.7376  0.4576
 1766TIP3   OH229492   6.455   3.361  18.832 -0.4163 -0.5206 -0.0678
 1766TIP3    H129493   6.479   3.307  18.757  0.2894 -0.6900  0.2725
 1766TIP3    H229494   6.360   3.369  18.827 -0.3336 -0.0942 -1.2725
 1767TIP3   OH229495   5.081   5.850  19.796  0.5665  0.8311  0.2763
 1767TIP3    H129496   5.003   5.893  19.832 -0.3487  0.8222 -1.5699
 1767TIP3    H229497   5.114   5.796  19.868 -1.7768 -0.0132  0.8080
 1768TIP3   OH229498   4.853   1.683  17.599 -0.3192 -0.2456 -0.1693
 1768TIP3    H129499   4.882   1.684  17.690  0.6961 -0.6004 -0.4769
 1768TIP3    H229500   4.869   1.593  17.570 -1.1273 -0.2777 -0.5555
 1769TIP3   OH229501   0.759   3.783  19.942  0.0009 -0.4922  0.0699
 1769TIP3    H129502   0.721   3.731  20.013  1.0643 -0.7948  0.4293
 1769TIP3    H229503   0.788   3.718  19.878 -1.1102 -0.2147 -0.7369
 1770TIP3   OH229504   6.469   4.710  18.815  0.5018 -0.1381  0.6694
 1770TIP3    H129505   6.473   4.802  18.838 -0.8560 -0.5915  3.0439
 1770TIP3    H229506   6.412   4.671  18.881  0.9484 -2.6700 -0.3197
 1771TIP3   OH229507   1.576   2.293  17.814 -0.0094 -0.5081 -0.3807
 1771TIP3    H129508   1.655   2.327  17.854 -1.0791  1.4311  0.1946
 1771TIP3    H229509   1.608   2.230  17.748  2.0138  0.6891 -0.6268
 1772TIP3   OH229510   0.217   1.029  17.184  0.0409 -0.2430  0.0376
 1772TIP3    H129511   0.275   1.076  17.124  0.7399 -1.7440 -0.5356
 1772TIP3    H229512   0.277   0.978  17.239 -0.6355 -3.6317 -2.0418
 1773TIP3   OH229513   3.490   5.766  18.726 -0.2606 -0.5794  0.4127
 1773TIP3    H129514   3.569   5.772  18.781 -0.2134 -0.6737  0.3551
 1773TIP3    H229515   3.490   5.676  18.694  0.6175 -0.0712 -1.0965
 1774TIP3   OH229516   0.316   0.301  19.181  0.5444  0.2205 -0.5243
 1774TIP3    H129517   0.307   0.390  19.213  0.6661 -0.0716  0.3529
 1774TIP3    H229518   0.390   0.265  19.229  0.0720 -0.5637 -0.3550
 1775TIP3   OH229519   4.916   2.698  20.173  0.2548 -0.1561  0.1383
 1775TIP3    H129520   4.896   2.608  20.200 -0.0826  0.0717  0.6473
 1775TIP3    H229521   4.929   2.692  20.078  0.8972 -0.8640  0.2596
 1776TIP3   OH229522   0.146   1.268  19.387 -0.0931 -0.0816  0.2875
 1776TIP3    H129523   0.216   1.248  19.450  0.2645  3.6181  1.2941
 1776TIP3    H229524   0.078   1.310  19.439 -1.2433  0.1253 -1.3181
 1777TIP3   OH229525   4.674   1.756  20.578 -0.3376 -0.0940  0.1459
 1777TIP3    H129526   4.745   1.816  20.602  0.1610  0.9031 -3.2265
 1777TIP3    H229527   4.717   1.671  20.572 -0.2071 -0.1291  1.3213
 1778TIP3   OH229528   1.432   3.094  18.085  0.3579 -0.4608 -0.3613
 1778TIP3    H129529   1.458   3.002  18.089  1.4606 -0.2875 -2.4298
 1778TIP3    H229530   1.401   3.114  18.173  1.5407 -2.3958  0.5518
 1779TIP3   OH229531   2.566   3.851  18.405  0.0830 -0.1856 -0.1267
 1779TIP3    H129532   2.590   3.820  18.318 -2.6503 -0.4053 -0.8756
 1779TIP3    H229533   2.473   3.872  18.399  0.7454  4.4279  1.4038
 1780TIP3   OH229534   4.444   0.747  18.054 -0.7313 -0.3106  0.1430
 1780TIP3    H129535   4.462   0.748  17.960 -2.0261 -0.9344 -0.1290
 1780TIP3    H229536   4.507   0.684  18.089  1.2230  1.4920  0.0532
 1781TIP3   OH229537   6.272   1.821  18.662  0.0559  0.1034  0.2577
 1781TIP3    H129538   6.304   1.853  18.746 -1.9073  1.4812  0.5694
 1781TIP3    H229539   6.328   1.747  18.641 -0.2702 -1.2330  3.5028
 1782TIP3   OH229540   0.859   4.180  20.012 -0.0784 -0.0265  0.6155
 1782TIP3    H129541   0.833   4.270  19.994 -0.4775 -0.1457  0.5695
 1782TIP3    H229542   0.932   4.163  19.952  0.7655  0.6323  1.4277
 1783TIP3   OH229543   4.853   5.115  17.493 -0.0854 -0.6033 -0.5392
 1783TIP3    H129544   4.802   5.139  17.571 -1.0877  0.2253 -1.4074
 1783TIP3    H229545   4.944   5.120  17.521 -0.4360 -2.7700  1.2552
 1784TIP3   OH229546   6.096   0.496  18.477 -0.1227 -0.1558  0.2554
 1784TIP3    H129547   6.189   0.480  18.464 -0.3618 -0.6425 -0.9382
 1784TIP3    H229548   6.061   0.413  18.509 -0.3461 -0.3379 -0.4403
 1785TIP3   OH229549   4.218   0.367  18.566 -0.2604  0.2332  0.0915
 1785TIP3    H129550   4.204   0.437  18.502 -1.6440  0.8578  1.0238
 1785TIP3    H229551   4.149   0.303  18.548 -0.0378 -0.0709  0.3116
 1786TIP3   OH229552   2.808   5.061  17.625 -0.4712  0.1914  0.4198
 1786TIP3    H129553   2.737   5.117  17.593 -0.0008 -0.3178 -1.6232
 1786TIP3    H229554   2.839   5.013  17.548  0.9217 -0.9227  1.5968
 1787TIP3   OH229555   3.585   1.781  17.612  0.2419 -0.2523 -0.2448
 1787TIP3    H129556   3.571   1.821  17.526 -0.0957 -0.9045 -0.5052
 1787TIP3    H229557   3.563   1.849  17.675 -1.2343 -0.3061 -0.6679
 1788TIP3   OH229558   1.982   4.085  19.812  0.2723 -0.7336  0.1713
 1788TIP3    H129559   1.970   3.994  19.841  1.2779 -0.6359  0.9373
 1788TIP3    H229560   2.013   4.131  19.890  0.9019  0.0184 -0.5086
 1789TIP3   OH229561   0.207   6.408  18.842  0.1582  0.3895  0.2636
 1789TIP3    H129562   0.294   6.445  18.855 -0.6276  1.7683  2.0192
 1789TIP3    H229563   0.220   6.313  18.852  1.7802  0.3066 -1.8359
 1790TIP3   OH229564   6.609   2.687  17.447 -0.6914  0.1202 -0.1762
 1790TIP3    H129565   6.659   2.667  17.368  0.3361 -1.0511  0.7449
 1790TIP3    H229566   6.648   2.769  17.479  1.9404 -1.6267  1.4701
 1791TIP3   OH229567   5.434   3.140  19.674  0.0639  0.0133 -0.0332
 1791TIP3    H129568   5.380   3.212  19.708 -1.5393 -1.9866  2.0290
 1791TIP3    H229569   5.521   3.155  19.711 -0.7189 -0.0377  1.9679
 1792TIP3   OH229570   5.331   1.463  17.965  0.1801 -0.8235  0.1607
 1792TIP3    H129571   5.290   1.377  17.969  0.6344 -1.0268  0.4816
 1792TIP3    H229572   5.307   1.497  17.878 -1.5462 -0.4887  0.7359
 1793TIP3   OH229573   1.147   5.404  17.907  0.6300  0.4840 -0.1142
 1793TIP3    H129574   1.228   5.403  17.855  0.3935 -1.2449 -0.4942
 1793TIP3    H229575   1.137   5.496  17.932  2.7819  0.7438  0.0535
 1794TIP3   OH229576   0.450   0.593  19.465  0.1107 -0.0821  0.0976
 1794TIP3    H129577   0.508   0.666  19.486  1.4594 -0.3315 -2.3789
 1794TIP3    H229578   0.498   0.515  19.492  1.4005 -0.3376 -2.6283
 1795TIP3   OH229579   4.639   1.399  20.116  0.3923  0.1769 -0.1743
 1795TIP3    H129580   4.587   1.431  20.043  0.1990 -1.1509 -0.6587
 1795TIP3    H229581   4.585   1.414  20.194  0.5824  1.5626 -0.2997
 1796TIP3   OH229582   2.652   0.736  18.891  0.1894  0.2394  0.2278
 1796TIP3    H129583   2.705   0.816  18.892  1.5134 -0.4493 -2.8109
 1796TIP3    H229584   2.716   0.665  18.886 -0.9619 -0.7592 -1.1612
 1797TIP3   OH229585   3.907   5.626  20.315 -0.2459  0.2194  0.7915
 1797TIP3    H129586   3.996   5.594  20.299 -1.1150 -0.7278 -3.0710
 1797TIP3    H229587   3.906   5.715  20.280 -1.2645 -0.5058 -1.1555
 1798TIP3   OH229588   4.468   6.614  19.771  0.8316 -0.0981  0.1651
 1798TIP3    H129589   4.462   6.691  19.714 -1.9408 -0.8737 -0.7578
 1798TIP3    H229590   4.546   6.630  19.825 -0.3072  4.0339  0.9869
 1799TIP3   OH229591   4.088   2.302  20.028  0.5115  0.0471 -0.3889
 1799TIP3    H129592   4.072   2.389  19.993  2.3899  1.0608  1.0878
 1799TIP3    H229593   4.184   2.295  20.032  0.3980 -1.9341 -0.1194
 1800TIP3   OH229594   5.870   0.853  18.338  1.0239 -0.3503  0.4291
 1800TIP3    H129595   5.831   0.928  18.293  0.5017 -0.3293  0.8985
 1800TIP3    H229596   5.862   0.781  18.275  0.8771 -0.1761  0.2467
 1801TIP3   OH229597   6.498   5.160  18.559 -0.2446 -0.2397  0.1129
 1801TIP3    H129598   6.437   5.109  18.506 -0.4454  0.9235 -0.8075
 1801TIP3    H229599   6.444   5.225  18.603 -0.0957 -1.2623  1.8924
 1802TIP3   OH229600   3.277   2.212  17.589  0.2915  0.6354  0.1336
 1802TIP3    H129601   3.201   2.208  17.530  0.5255 -3.6754 -0.2267
 1802TIP3    H229602   3.239   2.210  17.677  0.0076  1.7825  0.0527
 1803TIP3   OH229603   2.047   3.782  17.887  0.2433 -0.0240 -0.0117
 1803TIP3    H129604   2.084   3.859  17.843 -0.9436  0.5934  0.0445
 1803TIP3    H229605   1.996   3.738  17.820 -1.1316  0.6244  0.5801
 1804TIP3   OH229606   0.845   3.707  17.894 -0.3093  0.2613 -0.2639
 1804TIP3    H129607   0.812   3.742  17.811 -0.6203  1.5984  0.3867
 1804TIP3    H229608   0.803   3.761  17.961  2.3548  1.3784  0.6593
 1805TIP3   OH229609   5.896   6.213  17.266  0.4588  0.2953  0.0821
 1805TIP3    H129610   5.953   6.146  17.229  0.2159  0.6737 -1.0241
 1805TIP3    H229611   5.927   6.295  17.229  0.3515  0.7323  0.9223
 1806TIP3   OH229612   0.970   5.460  20.055  0.5080  0.3067 -0.1874
 1806TIP3    H129613   1.060   5.490  20.064  1.1727 -1.4221 -0.6190
 1806TIP3    H229614   0.948   5.421  20.139  0.8593 -0.9681 -0.6622
 1807TIP3   OH229615   2.122   3.191  16.503 -0.4650 -0.4647  0.1840
 1807TIP3    H129616   2.102   3.099  16.486  1.7997 -1.1911  1.0707
 1807TIP3    H229617   2.188   3.214  16.438 -0.1103  0.1441  0.7393
 1808TIP3   OH229618   2.862   6.613  17.191  0.5182 -0.0727 -0.4397
 1808TIP3    H129619   2.778   6.655  17.212  1.6596  1.7936  0.5675
 1808TIP3    H229620   2.875   6.632  17.098 -0.1253 -0.3343 -0.5956
 1809TIP3   OH229621   1.354   1.966  17.131 -0.1232 -0.2497 -0.0792
 1809TIP3    H129622   1.400   1.891  17.094 -0.6584 -0.9325  0.6141
 1809TIP3    H229623   1.423   2.021  17.169  0.5064  0.6929 -2.3806
 1810TIP3   OH229624   6.154   5.089  16.256 -0.3559  0.3398  0.2348
 1810TIP3    H129625   6.072   5.041  16.246 -0.3478  0.2685  0.5088
 1810TIP3    H229626   6.128   5.181  16.261 -0.4379  0.3019  0.5325
 1811TIP3   OH229627   1.858   0.229  17.621 -0.1932  0.3221 -0.3670
 1811TIP3    H129628   1.817   0.157  17.669 -0.2843  0.5899 -0.0358
 1811TIP3    H229629   1.800   0.244  17.546 -1.7574  1.9080  1.0620
 1812TIP3   OH229630   1.079   5.941  19.380  0.2331  0.1713 -0.0406
 1812TIP3    H129631   1.074   6.025  19.427  0.9209 -1.2277  2.7567
 1812TIP3    H229632   0.998   5.895  19.404 -0.6430  0.3776 -2.4053
 1813TIP3   OH229633   4.154   1.693  19.054 -0.0854 -0.7920 -0.0708
 1813TIP3    H129634   4.111   1.608  19.063 -1.1765 -0.3327 -0.8114
 1813TIP3    H229635   4.099   1.754  19.103 -0.0593 -0.2693 -0.6759
 1814TIP3   OH229636   4.863   6.537  20.397  0.4633 -0.4879  0.6572
 1814TIP3    H129637   4.916   6.475  20.348 -2.1961 -1.7416 -0.8164
 1814TIP3    H229638   4.917   6.616  20.403  2.9000 -2.0410  0.3081
 1815TIP3   OH229639   1.933   4.973  18.456 -0.3223 -0.3138  0.4212
 1815TIP3    H129640   2.020   5.009  18.440  0.2086 -1.5958  0.3552
 1815TIP3    H229641   1.887   4.986  18.373 -0.2042  0.3543  0.4527
 1816TIP3   OH229642   4.374   2.242  17.966  0.2013  0.2709  0.3223
 1816TIP3    H129643   4.323   2.299  18.023 -0.7928  1.2848 -1.5032
 1816TIP3    H229644   4.405   2.299  17.896  0.9847 -1.0092 -0.4146
 1817TIP3   OH229645   2.414   1.484  18.612  0.0306  0.0276 -0.1666
 1817TIP3    H129646   2.451   1.430  18.682  1.0352  0.9360  0.0315
 1817TIP3    H229647   2.324   1.500  18.640  0.6121  0.9614  1.3118
 1818TIP3   OH229648   5.931   1.853  19.993  0.0785 -0.3965 -0.8556
 1818TIP3    H129649   5.852   1.891  20.032  0.1047 -0.1229 -1.0635
 1818TIP3    H229650   5.954   1.915  19.923  1.9164  0.8649  0.7653
 1819TIP3   OH229651   5.038   0.252  17.504 -0.1814  0.3922 -1.2500
 1819TIP3    H129652   5.129   0.275  17.486 -0.1898 -0.5026 -2.6063
 1819TIP3    H229653   5.034   0.242  17.599  0.9055  1.3198 -1.0830
 1820TIP3   OH229654   1.971   2.265  17.682 -0.1581 -0.2589  0.1588
 1820TIP3    H129655   2.059   2.245  17.653 -0.2941  1.6595 -1.8797
 1820TIP3    H229656   1.921   2.279  17.601 -1.8814  0.4257  1.2668
 1821TIP3   OH229657   2.209   0.979  19.339  0.0705 -0.1875  0.3427
 1821TIP3    H129658   2.178   0.891  19.362  0.0537 -0.0527  0.8396
 1821TIP3    H229659   2.137   1.037  19.364 -0.0228 -0.0552 -0.2262
 1822TIP3   OH229660   1.092   3.561  18.082  0.0702  0.5477 -0.6448
 1822TIP3    H129661   1.020   3.574  18.143 -0.3281  0.3619 -1.0655
 1822TIP3    H229662   1.120   3.649  18.058  0.8917  0.6339  0.5574
 1823TIP3   OH229663   0.030   3.242  18.739  0.1641  0.1136 -0.6056
 1823TIP3    H129664   0.000   3.155  18.763  1.6400 -0.8671 -2.1572
 1823TIP3    H229665   0.119   3.247  18.774  1.4961 -0.4762 -3.5919
 1824TIP3   OH229666   1.381   2.147  19.489 -0.1039  0.6337  0.2491
 1824TIP3    H129667   1.427   2.124  19.408  1.8578 -1.1460  1.7465
 1824TIP3    H229668   1.452   2.164  19.552 -1.5605  0.5667  1.9672
 1825TIP3   OH229669   3.509   3.512  17.892  0.1196 -0.3413  0.1845
 1825TIP3    H129670   3.501   3.492  17.985  0.8496  1.6033  0.7193
 1825TIP3    H229671   3.419   3.524  17.862 -0.1112 -0.7609  0.6941
 1826TIP3   OH229672   5.219   0.818  19.577  0.1296  0.4084  0.0949
 1826TIP3    H129673   5.276   0.894  19.587 -0.5149  1.0006 -0.5239
 1826TIP3    H229674   5.242   0.782  19.491  0.6847 -0.3317  0.5366
 1827TIP3   OH229675   2.207   1.438  18.056  0.3390  0.2045 -0.4037
 1827TIP3    H129676   2.214   1.505  18.124  0.9362 -0.8084  0.5721
 1827TIP3    H229677   2.219   1.485  17.974 -2.0575  1.7434  0.0179
 1828TIP3   OH229678   0.705   3.171  17.654 -0.5965 -0.1719  0.3781
 1828TIP3    H129679   0.765   3.185  17.727  0.2083 -0.2314 -0.2542
 1828TIP3    H229680   0.618   3.177  17.693 -0.1823 -1.0767  1.5072
 1829TIP3   OH229681   5.895   2.158  19.253  0.4070  0.1189 -0.3194
 1829TIP3    H129682   5.914   2.077  19.300 -1.3521  0.4880  1.1155
 1829TIP3    H229683   5.926   2.141  19.164  2.2253 -1.2504  0.5052
 1830TIP3   OH229684   5.285   5.796  18.184  0.1959  0.1468 -0.4102
 1830TIP3    H129685   5.336   5.733  18.234 -1.7708 -0.5774  0.7774
 1830TIP3    H229686   5.258   5.862  18.248 -0.2703  0.5774 -1.0311
 1831TIP3   OH229687   5.101   5.547  18.144 -0.2510 -0.0896  0.4159
 1831TIP3    H129688   5.171   5.481  18.146 -0.5469 -0.4728  3.4949
 1831TIP3    H229689   5.147   5.629  18.124  0.9705 -0.4883  1.4040
 1832TIP3   OH229690   6.349   5.719  19.662  0.5320  0.6867 -0.1140
 1832TIP3    H129691   6.299   5.789  19.705 -0.3264  0.3825 -0.5961
 1832TIP3    H229692   6.361   5.654  19.731 -0.6241  0.3123 -0.2373
 1833TIP3   OH229693   5.485   3.882  18.567  0.3581 -0.0503  0.7986
 1833TIP3    H129694   5.548   3.900  18.637 -0.6987 -0.7265  1.9740
 1833TIP3    H229695   5.435   3.807  18.599 -0.3906 -0.1613 -0.5503
 1834TIP3   OH229696   1.148   1.182  18.447  0.4587 -0.3630  0.3548
 1834TIP3    H129697   1.084   1.118  18.479  0.5756 -0.6749 -0.0250
 1834TIP3    H229698   1.226   1.167  18.499 -0.0834  0.6897  1.5131
 1835TIP3   OH229699   5.641   2.267  18.789 -0.7043 -0.5644 -0.2004
 1835TIP3    H129700   5.550   2.270  18.820 -0.4421 -1.1119  0.6735
 1835TIP3    H229701   5.665   2.175  18.795 -0.0449 -0.3990 -0.2843
 1836TIP3   OH229702   0.695   3.482  16.910  0.5279 -0.2186  0.4497
 1836TIP3    H129703   0.613   3.435  16.924  0.7434  0.1330  3.4256
 1836TIP3    H229704   0.760   3.435  16.962  1.4415  1.5008  0.9624
 1837TIP3   OH229705   6.021   2.983  19.527  0.8059  0.2646 -0.6025
 1837TIP3    H129706   6.094   3.027  19.484 -0.0329  1.6039 -0.7270
 1837TIP3    H229707   5.950   3.047  19.526 -0.3653 -0.9742 -0.4312
 1838TIP3   OH229708   5.974   0.574  17.208 -0.0754  0.3588  0.0646
 1838TIP3    H129709   5.940   0.664  17.211  0.8271  0.9241 -3.1126
 1838TIP3    H229710   5.914   0.527  17.151  0.8147 -0.3651 -0.2992
 1839TIP3   OH229711   6.302   3.736  17.958 -0.1068 -0.4491  0.2993
 1839TIP3    H129712   6.232   3.689  17.914  0.3006 -0.3555 -0.4683
 1839TIP3    H229713   6.383   3.701  17.920  0.1946  1.6637 -1.1917
 1840TIP3   OH229714   6.422   1.931  19.824 -0.0019 -0.6223 -0.3432
 1840TIP3    H129715   6.471   1.866  19.874 -0.8900 -0.3940  0.8906
 1840TIP3    H229716   6.460   2.015  19.850  0.8839 -0.6077 -1.6358
 1841TIP3   OH229717   4.211   2.794  16.426  0.0318 -0.2020 -0.4476
 1841TIP3    H129718   4.164   2.855  16.370  0.5803  1.0221  0.3857
 1841TIP3    H229719   4.263   2.849  16.484 -0.0964 -1.4264  0.9094
 1842TIP3   OH229720   1.523   6.647  17.873 -0.7249 -0.0258 -0.0696
 1842TIP3    H129721   1.545   6.730  17.831  1.5537 -0.1582  0.7045
 1842TIP3    H229722   1.446   6.666  17.926 -0.9496  1.2679 -0.8208
 1843TIP3   OH229723   0.170   5.305  18.226 -0.1748  0.0026  0.1605
 1843TIP3    H129724   0.105   5.324  18.158 -0.9938  0.0954  0.9468
 1843TIP3    H229725   0.141   5.222  18.264 -0.0597  0.2369  0.7753
 1844TIP3   OH229726   0.242   0.419  19.429 -0.0471 -0.7817 -0.3005
 1844TIP3    H129727   0.304   0.361  19.473 -1.0886 -0.8441  1.1578
 1844TIP3    H229728   0.287   0.504  19.425  0.2547 -0.8912  0.5026
 1845TIP3   OH229729   6.644   3.633  17.364 -0.2271 -0.3595  0.4972
 1845TIP3    H129730   6.608   3.675  17.286  0.6697  0.8042  0.6795
 1845TIP3    H229731   6.667   3.706  17.422  0.4330 -1.1490  1.2545
 1846TIP3   OH229732   3.469   1.348  19.677 -0.4465  0.0605  0.5207
 1846TIP3    H129733   3.514   1.268  19.653  0.3111  0.4224  0.7215
 1846TIP3    H229734   3.394   1.352  19.618 -1.0401 -1.2789  1.1414
 1847TIP3   OH229735   2.418   2.411  17.534 -0.3902 -0.1100  0.1415
 1847TIP3    H129736   2.470   2.417  17.614 -1.5483  1.2281  0.8470
 1847TIP3    H229737   2.355   2.341  17.551 -1.1326  0.6796  0.7409
 1848TIP3   OH229738   3.975   5.121  19.383  0.2743  0.1339 -0.2230
 1848TIP3    H129739   3.906   5.054  19.389  1.0033 -0.6001  0.1318
 1848TIP3    H229740   3.967   5.154  19.293  1.4655 -2.1883 -1.2831
 1849TIP3   OH229741   1.403   6.203  19.841  0.0616  0.3338 -0.5534
 1849TIP3    H129742   1.398   6.271  19.774  0.9752  1.0299  0.0592
 1849TIP3    H229743   1.381   6.122  19.795 -0.0329  0.8920 -1.5228
 1850TIP3   OH229744   3.248   3.802  17.616 -0.2953  0.1705 -0.3494
 1850TIP3    H129745   3.212   3.723  17.576  0.9146  0.3887 -2.0071
 1850TIP3    H229746   3.197   3.815  17.695 -1.1191 -1.7557 -0.5156
 1851TIP3   OH229747   2.713   6.566  18.928 -0.1129 -0.3704 -0.4947
 1851TIP3    H129748   2.655   6.490  18.924  1.0015 -1.3717  1.1384
 1851TIP3    H229749   2.801   6.529  18.924  0.4660  0.7443  0.9320
 1852TIP3   OH229750   6.560   5.294  16.751  0.3874 -0.1251 -0.1368
 1852TIP3    H129751   6.649   5.326  16.736  1.0476 -1.6515  0.3154
 1852TIP3    H229752   6.569   5.234  16.824 -0.8191 -1.1773 -0.8190
 1853TIP3   OH229753   5.987   1.274  19.694 -0.0243 -0.0813 -0.1898
 1853TIP3    H129754   5.909   1.248  19.742  0.4243 -1.0795  0.0235
 1853TIP3    H229755   5.954   1.307  19.610 -0.6979 -0.0022  0.1044
 1854TIP3   OH229756   4.897   5.618  19.104  0.0047  0.0897  0.1744
 1854TIP3    H129757   4.939   5.644  19.186 -1.4753 -2.7382  1.9628
 1854TIP3    H229758   4.804   5.611  19.126 -0.5303 -0.1608 -1.9439
 1855TIP3   OH229759   4.716   1.770  19.575  0.3433  0.4571 -0.1429
 1855TIP3    H129760   4.773   1.840  19.543  0.8086  1.3399  2.3686
 1855TIP3    H229761   4.770   1.722  19.638 -0.4251 -1.3126 -0.7661
 1856TIP3   OH229762   1.215   4.041  18.376  0.1901 -0.0298 -1.1754
 1856TIP3    H129763   1.143   4.005  18.325  0.2792  1.2676 -2.2663
 1856TIP3    H229764   1.174   4.073  18.456 -0.6004  1.4059 -2.1232
 1857TIP3   OH229765   1.233   3.388  19.764 -0.1558  0.7809  0.4593
 1857TIP3    H129766   1.309   3.333  19.783 -0.5690  0.7383  2.2198
 1857TIP3    H229767   1.182   3.336  19.702  1.3183  0.9025 -0.8979
 1858TIP3   OH229768   6.028   4.322  19.084  0.5374  0.0748  0.4745
 1858TIP3    H129769   5.981   4.257  19.137 -0.3354 -1.4148 -1.9314
 1858TIP3    H229770   5.960   4.366  19.033  1.4719 -0.5951 -1.4867
 1859TIP3   OH229771   3.301   5.920  20.055 -0.0665  0.0994 -0.4134
 1859TIP3    H129772   3.364   5.849  20.067 -0.3561 -0.2856 -1.0665
 1859TIP3    H229773   3.219   5.886  20.090 -0.3335 -0.1057 -1.2073
 1860TIP3   OH229774   3.496   0.738  19.052  0.1968  0.0604 -0.4612
 1860TIP3    H129775   3.546   0.677  19.106 -0.5068 -0.6904 -0.6548
 1860TIP3    H229776   3.439   0.683  18.999 -0.2071  0.8654 -0.8803
 1861TIP3   OH229777   5.402   3.171  17.787  0.2155  0.2743 -0.3394
 1861TIP3    H129778   5.492   3.163  17.819 -0.0343 -0.0183  0.2915
 1861TIP3    H229779   5.363   3.237  17.844  0.0325  0.4223 -0.6348
 1862TIP3   OH229780   3.804   4.217  17.902  0.2632  0.3338  0.2955
 1862TIP3    H129781   3.885   4.166  17.901 -0.9564 -1.7302  1.6769
 1862TIP3    H229782   3.801   4.255  17.990 -0.8356 -0.6100  0.6835
 1863TIP3   OH229783   3.236   3.010  19.319  0.6335  0.3724  0.2027
 1863TIP3    H129784   3.205   2.928  19.281  0.4386  0.3150  0.4813
 1863TIP3    H229785   3.227   3.074  19.248  2.5756 -0.2146 -0.6332
 1864TIP3   OH229786   6.453   4.103  17.569  0.2103  0.3602  0.3575
 1864TIP3    H129787   6.419   4.016  17.546  1.1668 -0.0950  0.6033
 1864TIP3    H229788   6.400   4.130  17.643  0.5768 -0.4971  0.9617
 1865TIP3   OH229789   6.076   5.278  17.563 -0.6790 -0.8596  0.0015
 1865TIP3    H129790   6.044   5.367  17.577  1.1147 -0.0846 -0.6739
 1865TIP3    H229791   5.997   5.224  17.568 -1.9381  0.8480 -0.4918
 1866TIP3   OH229792   5.193   2.783  20.063 -0.0399 -0.3281  0.8502
 1866TIP3    H129793   5.150   2.734  19.993  0.8290 -1.3847  1.0256
 1866TIP3    H229794   5.122   2.822  20.113 -0.6819  2.4767 -1.9664
 1867TIP3   OH229795   1.017   6.592  18.719  0.3351  0.4020  0.5237
 1867TIP3    H129796   1.022   6.681  18.753 -0.7505  0.7710 -0.2058
 1867TIP3    H229797   0.944   6.594  18.658 -0.3999 -1.2566  1.2716
 1868TIP3   OH229798   2.363   1.386  19.797  0.2226 -0.8176  0.2783
 1868TIP3    H129799   2.441   1.348  19.837  0.2609 -0.6396  0.3712
 1868TIP3    H229800   2.290   1.349  19.846  0.3034  0.2117  1.2092
 1869TIP3   OH229801   2.965   4.959  19.116 -0.4104 -0.0829  0.2103
 1869TIP3    H129802   3.033   4.944  19.051 -0.9706  0.1846 -0.4463
 1869TIP3    H229803   3.004   4.929  19.198  0.9077  1.1038  0.0515
 1870TIP3   OH229804   2.947   1.272  19.100  0.4371  0.4789 -0.0086
 1870TIP3    H129805   3.032   1.229  19.112 -0.0694 -0.3702  0.7054
 1870TIP3    H229806   2.892   1.236  19.170 -1.3397 -1.1441 -2.0947
 1871TIP3   OH229807   1.377   4.811  18.592 -0.5540 -0.3701 -0.5046
 1871TIP3    H129808   1.292   4.787  18.556 -0.5660  0.4543 -1.0502
 1871TIP3    H229809   1.439   4.785  18.523 -0.3953 -0.6013 -0.2771
 1872TIP3   OH229810   0.841   4.010  17.260  0.9316  0.2527  0.5909
 1872TIP3    H129811   0.766   3.953  17.276  1.6717 -0.8542  0.2540
 1872TIP3    H229812   0.866   3.993  17.169  1.3739  0.8650  0.5919
 1873TIP3   OH229813   1.238   4.488  17.105 -0.0937 -0.1531  0.1354
 1873TIP3    H129814   1.286   4.451  17.030 -2.1560 -1.1125 -0.8019
 1873TIP3    H229815   1.290   4.463  17.181  0.9718 -1.0079 -0.8297
 1874TIP3   OH229816   1.917   1.544  17.675  0.3084  0.3742  0.4183
 1874TIP3    H129817   1.868   1.556  17.594 -0.0676 -0.6504  0.4751
 1874TIP3    H229818   1.951   1.454  17.669  0.2413  0.2753  1.4151
 1875TIP3   OH229819   4.195   6.620  17.847  0.3058 -0.0007 -0.1700
 1875TIP3    H129820   4.140   6.568  17.790  0.3396  0.8323 -0.9848
 1875TIP3    H229821   4.219   6.561  17.919 -2.6575 -0.0583  0.9144
 1876TIP3   OH229822   5.403   5.795  16.430  0.5187  0.1377 -0.0830
 1876TIP3    H129823   5.355   5.852  16.490  0.4492  1.6914 -1.5344
 1876TIP3    H229824   5.336   5.758  16.373  0.8064  0.9365 -0.9879
 1877TIP3   OH229825   4.714   5.478  17.665 -0.2085 -0.6612  0.3273
 1877TIP3    H129826   4.749   5.541  17.729 -1.3654 -0.1138  0.4494
 1877TIP3    H229827   4.717   5.526  17.582  0.7455 -1.1622  0.0643
 1878TIP3   OH229828   1.054   4.098  19.532  0.6711 -0.1230  0.0249
 1878TIP3    H129829   0.971   4.146  19.542  0.9425  0.4606 -0.4304
 1878TIP3    H229830   1.109   4.157  19.481  1.0839 -0.8558 -0.3926
 1879TIP3   OH229831   4.099   4.887  17.551 -0.4582  0.9752 -0.2334
 1879TIP3    H129832   4.180   4.909  17.597 -0.7533 -1.4424  1.5940
 1879TIP3    H229833   4.097   4.948  17.476  2.3089  2.0165  0.4241
 1880TIP3   OH229834   2.977   2.040  18.615 -0.2448  0.0124  0.5235
 1880TIP3    H129835   2.895   2.044  18.566 -0.5817 -0.2954  1.0468
 1880TIP3    H229836   2.961   1.973  18.682  0.5766 -0.3570  0.3608
 1881TIP3   OH229837   5.429   1.489  18.346 -0.5577  0.4804 -0.2052
 1881TIP3    H129838   5.458   1.398  18.337 -1.3474  0.3100 -1.1774
 1881TIP3    H229839   5.454   1.530  18.263 -2.0208  0.6093 -0.6165
 1882TIP3   OH229840   6.542   2.415  18.703 -0.6754  0.4389  0.2992
 1882TIP3    H129841   6.488   2.337  18.692  0.0500  0.0258 -0.3905
 1882TIP3    H229842   6.631   2.381  18.709 -0.2274  1.2852 -1.2060
 1883TIP3   OH229843   5.766   0.239  17.510  0.3107 -0.0753 -0.2740
 1883TIP3    H129844   5.850   0.269  17.545 -0.3561  1.1046  0.3963
 1883TIP3    H229845   5.772   0.256  17.415  1.3877 -1.4488 -0.4746
 1884TIP3   OH229846   6.173   0.349  18.839 -0.1590 -0.4186 -0.0048
 1884TIP3    H129847   6.232   0.417  18.808 -0.6263  0.2031  0.4418
 1884TIP3    H229848   6.095   0.396  18.870  0.0776 -1.0220  1.6202
 1885TIP3   OH229849   0.008   5.602  16.232  0.1230 -0.0180  0.3439
 1885TIP3    H129850  -0.037   5.575  16.152 -1.3491 -0.6109  1.3099
 1885TIP3    H229851   0.056   5.681  16.208 -2.3942  1.3581 -0.5318
 1886TIP3   OH229852   3.179   1.127  19.130 -0.0022  1.0701  0.3706
 1886TIP3    H129853   3.241   1.155  19.063 -0.3396 -0.1054 -0.4682
 1886TIP3    H229854   3.204   1.036  19.149  0.9404  1.7489  2.8336
 1887TIP3   OH229855   4.914   6.312  18.799  0.1208  0.2873  0.2197
 1887TIP3    H129856   4.889   6.388  18.852  0.8298  0.0641  0.8900
 1887TIP3    H229857   4.833   6.261  18.790 -0.1300  0.6111  0.6202
 1888TIP3   OH229858   2.045   0.942  17.814  0.5300  0.0641  0.5029
 1888TIP3    H129859   1.965   0.900  17.847 -0.3438  0.1859 -1.3282
 1888TIP3    H229860   2.117   0.892  17.854 -0.4497 -0.3147  1.8621
 1889TIP3   OH229861   6.616   6.217  19.000  0.2095  0.0808 -0.0186
 1889TIP3    H129862   6.659   6.160  18.936 -0.2453 -0.1833 -0.0950
 1889TIP3    H229863   6.561   6.157  19.051  1.3070  0.1224  1.2707
 1890TIP3   OH229864   1.712   5.768  17.176 -0.4751 -0.0132 -0.0856
 1890TIP3    H129865   1.745   5.836  17.117 -2.4007  1.1677  0.0912
 1890TIP3    H229866   1.717   5.808  17.263  1.7910 -1.5230  0.5606
 1891TIP3   OH229867   4.559   0.164  19.643 -0.4888 -0.6810 -0.2371
 1891TIP3    H129868   4.578   0.117  19.562  0.0600  3.1667 -2.5733
 1891TIP3    H229869   4.500   0.235  19.617 -0.0935  0.9072  2.6739
 1892TIP3   OH229870   4.463   1.429  18.462  0.7264  0.7495  0.3643
 1892TIP3    H129871   4.525   1.492  18.498  1.8870  1.0016 -1.8826
 1892TIP3    H229872   4.378   1.473  18.467  1.0793  1.3528  1.3249
 1893TIP3   OH229873   0.975   1.976  19.581 -0.0534 -0.5846 -0.1945
 1893TIP3    H129874   0.904   1.982  19.645 -0.0799  1.7341 -0.3609
 1893TIP3    H229875   1.026   2.057  19.593  2.1540 -1.8235 -0.5888
 1894TIP3   OH229876   0.095   1.645  20.385  0.0786 -0.3832  0.0711
 1894TIP3    H129877   0.177   1.691  20.401 -0.1013 -0.2756  0.7084
 1894TIP3    H229878   0.106   1.606  20.298  0.1524  1.0167 -0.5664
 1895TIP3   OH229879   1.677   0.723  17.634  0.7675 -0.3510  0.2228
 1895TIP3    H129880   1.608   0.657  17.639 -0.4958  0.8517 -0.5907
 1895TIP3    H229881   1.757   0.673  17.620 -0.3022 -1.6697 -1.6113
 1896TIP3   OH229882   2.331   4.286  17.713  0.0242  0.0883 -0.5512
 1896TIP3    H129883   2.262   4.252  17.658 -1.3579 -1.2760  1.8596
 1896TIP3    H229884   2.290   4.356  17.765  1.1228  0.9597 -0.7882
 1897TIP3   OH229885   4.172   3.332  17.412  0.1922  0.1130  0.3407
 1897TIP3    H129886   4.130   3.384  17.344  0.9090 -0.6268 -0.6951
 1897TIP3    H229887   4.237   3.391  17.450  0.9952  0.0182 -0.8213
 1898TIP3   OH229888   4.055   2.038  17.078 -0.4674  0.4635 -0.1831
 1898TIP3    H129889   4.059   1.948  17.045  0.4715 -0.6119  2.5670
 1898TIP3    H229890   4.118   2.086  17.024 -0.4152 -0.7024 -1.1917
 1899TIP3   OH229891   4.964   1.707  17.825 -0.0210 -0.6738 -0.1017
 1899TIP3    H129892   4.985   1.638  17.888  2.4402 -0.3527 -0.4824
 1899TIP3    H229893   4.965   1.787  17.877 -3.3081 -0.8308  0.4312
 1900TIP3   OH229894   1.118   5.291  18.878 -0.4222  0.4127 -0.6104
 1900TIP3    H129895   1.113   5.382  18.907 -0.6121  0.5534 -1.0727
 1900TIP3    H229896   1.161   5.245  18.950 -0.6470  0.8017 -0.2218
 1901TIP3   OH229897   1.875   3.726  18.429 -0.3992 -0.1810 -0.7201
 1901TIP3    H129898   1.918   3.734  18.344  2.8369 -0.8091  0.6738
 1901TIP3    H229899   1.901   3.804  18.477  0.9459 -1.4927  0.8354
 1902TIP3   OH229900   0.946   5.313  19.611  0.4631  0.0423  0.1267
 1902TIP3    H129901   0.906   5.307  19.525 -1.0992  1.4971  0.6865
 1902TIP3    H229902   1.031   5.270  19.602 -0.2090 -0.9797 -1.7684
 1903TIP3   OH229903   4.494   0.534  19.224  0.2519  0.3434  0.4713
 1903TIP3    H129904   4.577   0.569  19.191  0.6707 -0.4812  0.6328
 1903TIP3    H229905   4.459   0.483  19.151  0.5612 -0.4406  0.8627
 1904TIP3   OH229906   0.508   3.168  19.367 -0.5087  0.4301 -0.2026
 1904TIP3    H129907   0.541   3.256  19.386 -1.2622  0.7394 -0.3063
 1904TIP3    H229908   0.458   3.144  19.446  0.1528 -0.1311  0.0539
 1905TIP3   OH229909   3.511   5.145  17.203  0.7292  0.2753  0.4429
 1905TIP3    H129910   3.527   5.068  17.148 -0.2237  0.0954  0.3904
 1905TIP3    H229911   3.515   5.112  17.293 -2.7145 -0.5780  0.4280
 1906TIP3   OH229912   2.943   0.724  18.159  0.0855  0.1670 -0.5493
 1906TIP3    H129913   2.872   0.685  18.107  2.2197 -2.0693 -2.0155
 1906TIP3    H229914   2.996   0.771  18.094  1.3254 -0.3883  0.0348
 1907TIP3   OH229915   5.563   3.915  19.604 -0.8231  0.2251  0.2735
 1907TIP3    H129916   5.626   3.866  19.657 -0.8333 -0.4264 -0.3044
 1907TIP3    H229917   5.537   3.988  19.660 -0.1538  0.0585  0.8216
 1908TIP3   OH229918   0.080   1.969  19.034  0.4518  0.2246 -0.2364
 1908TIP3    H129919   0.004   1.981  19.090  0.1233  3.9577 -1.2218
 1908TIP3    H229920   0.140   1.915  19.086 -2.0164 -1.1861  1.3295
 1909TIP3   OH229921   4.163   4.863  17.212  0.3836  0.4293 -0.1643
 1909TIP3    H129922   4.138   4.849  17.121 -0.0910 -0.0628  0.0312
 1909TIP3    H229923   4.093   4.820  17.262 -0.3578  2.2322  0.4591
 1910TIP3   OH229924   3.965   5.824  20.075  0.4121 -0.2732 -0.0030
 1910TIP3    H129925   3.979   5.910  20.114 -0.1586  0.9984 -2.4005
 1910TIP3    H229926   3.881   5.833  20.029  0.3960 -2.1001 -0.3889
 1911TIP3   OH229927   2.379   1.250  18.168  0.9334  0.4363 -0.3731
 1911TIP3    H129928   2.350   1.314  18.103  0.4729 -0.2613 -0.8786
 1911TIP3    H229929   2.340   1.279  18.250  1.3616  1.2231 -0.4410
 1912TIP3   OH229930   2.830   3.419  19.468 -0.0803 -0.0833 -0.5937
 1912TIP3    H129931   2.900   3.357  19.488 -0.5437 -0.2472  0.6439
 1912TIP3    H229932   2.750   3.374  19.496 -0.5571  0.5417 -0.9313
 1913TIP3   OH229933   4.955   3.788  17.608  0.0201  0.3537 -0.0922
 1913TIP3    H129934   4.927   3.696  17.613  2.6584 -0.7111 -2.1374
 1913TIP3    H229935   4.927   3.817  17.522  2.6852  0.0396 -1.1584
 1914TIP3   OH229936   4.602   0.559  19.634 -0.2852  0.0521  0.3601
 1914TIP3    H129937   4.539   0.556  19.562  0.3524  0.2917 -0.2225
 1914TIP3    H229938   4.605   0.651  19.659  0.8340  0.2882 -0.5424
 1915TIP3   OH229939   1.314   6.517  17.350 -0.2070  0.0692  0.3768
 1915TIP3    H129940   1.229   6.476  17.366 -0.4733  0.3479 -0.3083
 1915TIP3    H229941   1.372   6.443  17.331 -0.2582 -0.1333  0.9859
 1916TIP3   OH229942   6.291   5.273  19.989 -0.3198  0.1866 -0.2921
 1916TIP3    H129943   6.224   5.287  20.055 -0.4309 -0.9314 -0.1388
 1916TIP3    H229944   6.263   5.194  19.943  0.2291  0.4348 -1.0713
 1917TIP3   OH229945   0.194   3.895  18.686  0.5655  0.1544 -0.1096
 1917TIP3    H129946   0.183   3.800  18.682  0.7252  0.1697 -2.3483
 1917TIP3    H229947   0.161   3.920  18.772 -0.4865 -1.7949  0.0995
 1918TIP3   OH229948   6.221   5.557  17.013  0.0037  0.4678 -0.2676
 1918TIP3    H129949   6.285   5.486  17.001 -1.5743 -1.1173  0.2386
 1918TIP3    H229950   6.157   5.521  17.074 -2.5996  1.0901 -2.4166
 1919TIP3   OH229951   2.532   2.555  18.812  0.4218  0.0930 -0.0901
 1919TIP3    H129952   2.496   2.488  18.870  1.9316 -0.7934 -0.1357
 1919TIP3    H229953   2.457   2.610  18.790 -0.7848 -1.3560  0.2546
 1920TIP3   OH229954   0.860   4.083  18.577  0.3179 -0.4147 -0.4971
 1920TIP3    H129955   0.799   4.056  18.646  0.1584  0.3300 -0.3365
 1920TIP3    H229956   0.805   4.124  18.511  0.7498  1.7016  0.3621
 1921TIP3   OH229957   4.597   1.066  17.843 -0.2018  0.3775  0.0730
 1921TIP3    H129958   4.532   1.118  17.891 -0.1881 -0.1783  0.7073
 1921TIP3    H229959   4.664   1.046  17.909  2.0288  3.1608 -1.1023
 1922TIP3   OH229960   3.447   0.187  18.032  0.5303  0.2762  0.6571
 1922TIP3    H129961   3.520   0.127  18.020 -0.8149 -1.1525 -1.1634
 1922TIP3    H229962   3.430   0.220  17.944 -0.8803  0.6966  1.0645
 1923TIP3   OH229963   5.598   2.619  19.776  0.3882  0.3855  0.0645
 1923TIP3    H129964   5.625   2.703  19.811 -0.4931  0.4226  0.6801
 1923TIP3    H229965   5.672   2.590  19.723  1.6002  0.5058  1.6482
 1924TIP3   OH229966   1.843   5.576  17.600  0.0889 -0.1546 -0.1701
 1924TIP3    H129967   1.825   5.483  17.613  3.6253 -0.9917 -0.2300
 1924TIP3    H229968   1.802   5.619  17.675 -1.8816 -1.6700 -0.3126
 1925TIP3   OH229969   5.462   0.572  17.018 -0.2992  0.1716 -0.7370
 1925TIP3    H129970   5.530   0.621  16.973 -0.4216  0.8930 -0.1423
 1925TIP3    H229971   5.381   0.599  16.974 -0.3965  0.7219 -0.2251
 1926TIP3   OH229972   5.127   2.081  17.081  0.2998 -0.0839  0.1455
 1926TIP3    H129973   5.095   2.073  16.991  2.7362 -0.0190 -0.7970
 1926TIP3    H229974   5.217   2.050  17.078  0.1988 -0.8872  2.7793
 1927TIP3   OH229975   0.115   5.752  18.591  0.0991 -0.0641 -0.2080
 1927TIP3    H129976   0.025   5.762  18.559 -0.3163  1.1952  1.2502
 1927TIP3    H229977   0.120   5.661  18.619 -1.5644  0.4325  1.9924
 1928TIP3   OH229978   1.099   0.588  17.942  0.0481  0.2319 -0.2779
 1928TIP3    H129979   1.044   0.666  17.955 -0.0602  0.2060 -0.5671
 1928TIP3    H229980   1.058   0.542  17.869 -0.7862 -0.8914  0.8473
 1929TIP3   OH229981   5.597   0.546  17.656  0.2774  0.5066 -0.1551
 1929TIP3    H129982   5.672   0.605  17.668  1.3010 -0.7260 -0.2847
 1929TIP3    H229983   5.622   0.491  17.582  0.3198 -1.5472  1.3086
 1930TIP3   OH229984   0.824   3.455  18.020  0.6650 -0.6571 -0.4680
 1930TIP3    H129985   0.861   3.456  18.108  3.2102 -1.4078 -1.4093
 1930TIP3    H229986   0.847   3.541  17.984  1.1793 -0.9811 -0.9339
 1931TIP3   OH229987   4.861   4.834  18.210 -0.4675 -0.1593  0.0151
 1931TIP3    H129988   4.897   4.892  18.277 -1.3035  0.0817  0.2682
 1931TIP3    H229989   4.818   4.764  18.260 -0.2289 -0.5156 -0.2783
 1932TIP3   OH229990   6.206   0.873  17.233  0.7345 -0.1414  0.1137
 1932TIP3    H129991   6.264   0.948  17.247  0.5782  0.0165 -0.0775
 1932TIP3    H229992   6.265   0.802  17.206  0.9016 -0.1333  0.4541
 1933TIP3   OH229993   1.878   4.955  18.144  0.0401  0.6194  0.5267
 1933TIP3    H129994   1.902   5.023  18.081 -1.9884 -0.0154 -1.0414
 1933TIP3    H229995   1.897   4.873  18.098 -2.6892  0.1220  0.0779
 1934TIP3   OH229996   3.864   1.166  20.078 -0.3563  0.0119  0.0590
 1934TIP3    H129997   3.944   1.184  20.029  0.1538 -2.2442 -0.0265
 1934TIP3    H229998   3.860   1.236  20.143  1.0133  0.8446 -0.6931
 1935TIP3   OH229999   5.619   5.043  16.410  0.6397 -0.3524  0.1258
 1935TIP3    H130000   5.671   4.964  16.428  0.6709 -0.6241 -1.0227
 1935TIP3    H230001   5.528   5.014  16.416  0.6270 -0.9354 -1.8695
 1936TIP3   OH230002   6.233   0.850  18.707 -0.2360 -0.2572 -0.2608
 1936TIP3    H130003   6.282   0.856  18.625 -0.6798  2.4792 -0.4110
 1936TIP3    H230004   6.154   0.902  18.691 -1.0987 -0.9929  1.3985
 1937TIP3   OH230005   1.205   4.826  18.951  0.3172 -0.2242 -0.3620
 1937TIP3    H130006   1.151   4.816  19.029 -0.3249 -0.3041 -0.8053
 1937TIP3    H230007   1.203   4.920  18.933 -1.5228 -0.4422 -1.6277
 1938TIP3   OH230008   5.342   0.286  17.814  0.4893 -0.7418  0.0562
 1938TIP3    H130009   5.291   0.206  17.832 -0.1134  0.1477  2.6946
 1938TIP3    H230010   5.433   0.258  17.818  0.2755 -1.6571 -1.0544
 1939TIP3   OH230011   2.440   5.384  17.376  0.5740 -0.5064  0.1730
 1939TIP3    H130012   2.401   5.438  17.306 -0.2874 -0.3444  0.7624
 1939TIP3    H230013   2.365   5.347  17.423  1.1437 -0.8081  0.8680
 1940TIP3   OH230014   5.826   2.096  18.621  0.6115  0.0206 -0.2676
 1940TIP3    H130015   5.920   2.081  18.613  0.5945 -0.7544  0.7549
 1940TIP3    H230016   5.804   2.064  18.709 -0.6258  0.0864 -0.5321
 1941TIP3   OH230017   1.781   1.943  18.276 -0.2695  0.4886  0.1845
 1941TIP3    H130018   1.794   2.020  18.222  1.0910  0.5115  0.5123
 1941TIP3    H230019   1.710   1.895  18.233 -2.4731  2.7942  0.9897
 1942TIP3   OH230020   6.164   6.653  19.397 -0.8268  0.0539 -0.1086
 1942TIP3    H130021   6.243   6.627  19.349 -0.4841 -0.3009  0.6355
 1942TIP3    H230022   6.186   6.740  19.432 -0.4860 -0.3567  0.7097
 1943TIP3   OH230023   1.998   2.354  18.686  0.0581  0.3886 -0.0151
 1943TIP3    H130024   2.086   2.354  18.648  0.5750 -0.5074  1.0917
 1943TIP3    H230025   1.977   2.446  18.699  1.7506  0.5965  1.6618
 1944TIP3   OH230026   4.769   5.838  19.743  0.1426  0.0470  0.2886
 1944TIP3    H130027   4.739   5.871  19.828  1.4187 -1.2168  1.2940
 1944TIP3    H230028   4.819   5.759  19.765  1.7761  0.5089 -1.5028
 1945TIP3   OH230029   6.088   4.023  16.782  0.3805 -0.0113 -0.7274
 1945TIP3    H130030   6.170   4.065  16.753  0.1074  0.4893 -0.7903
 1945TIP3    H230031   6.019   4.082  16.751  0.1033  1.4185  2.2063
 1946TIP3   OH230032   3.980   1.676  18.387  0.1499  0.2750 -0.8917
 1946TIP3    H130033   3.975   1.704  18.295 -1.2911  1.0441 -0.6207
 1946TIP3    H230034   3.950   1.752  18.436  0.9201 -0.1233  0.2364
 1947TIP3   OH230035   3.468   3.604  18.740 -0.2017  0.0590  0.0598
 1947TIP3    H130036   3.531   3.650  18.795  0.2309 -0.9408  0.4318
 1947TIP3    H230037   3.507   3.518  18.725 -0.6282  0.0702 -1.2642
 1948TIP3   OH230038   0.842   6.512  19.156 -0.7360  0.2565  0.0046
 1948TIP3    H130039   0.893   6.510  19.237 -1.3327  0.2465  0.3929
 1948TIP3    H230040   0.822   6.605  19.143  0.8562  0.4619 -1.1108
 1949TIP3   OH230041   0.329   3.112  19.591  0.3701  0.1178 -0.0353
 1949TIP3    H130042   0.258   3.055  19.562 -0.8240  1.7391 -0.4175
 1949TIP3    H230043   0.362   3.071  19.671 -0.3108 -1.2045 -0.4134
 1950TIP3   OH230044   1.738   4.422  17.672 -0.0416  0.1980 -0.6201
 1950TIP3    H130045   1.674   4.351  17.667 -1.5659  1.6035 -3.3241
 1950TIP3    H230046   1.685   4.501  17.683  1.4685  1.1774 -0.0354
 1951TIP3   OH230047   4.772   0.435  19.432  0.6985 -0.3839 -0.2354
 1951TIP3    H130048   4.716   0.452  19.508  0.5654  0.2724 -0.4696
 1951TIP3    H230049   4.859   0.463  19.460  1.1355 -2.3109  0.4640
 1952TIP3   OH230050   5.077   4.290  19.583  0.0708  0.3892  0.0348
 1952TIP3    H130051   5.015   4.276  19.654 -0.6411  2.1259 -0.1721
 1952TIP3    H230052   5.023   4.322  19.510  1.0035  0.3801 -0.6882
 1953TIP3   OH230053   4.198   6.253  18.247  0.2746  0.4093  0.4210
 1953TIP3    H130054   4.141   6.187  18.286 -1.4746  0.5288 -1.7283
 1953TIP3    H230055   4.160   6.336  18.275  1.1072  0.5027  1.2788
 1954TIP3   OH230056   0.686   0.917  19.877  0.3315  0.3649  0.1938
 1954TIP3    H130057   0.605   0.915  19.928  1.1469 -0.1104  1.5129
 1954TIP3    H230058   0.695   0.828  19.844  0.2234  0.4735 -0.1408
 1955TIP3   OH230059   1.433   5.756  17.885  0.8999  0.8420 -0.3012
 1955TIP3    H130060   1.483   5.740  17.965  0.8613  1.1061 -0.2232
 1955TIP3    H230061   1.460   5.686  17.825 -0.7261 -0.7600  0.7048
 1956TIP3   OH230062   5.514   3.325  19.342  0.3893  0.0350  0.2560
 1956TIP3    H130063   5.434   3.306  19.391  0.9463 -3.6670  0.0174
 1956TIP3    H230064   5.495   3.296  19.253  1.9354 -0.8365  0.1819
 1957TIP3   OH230065   0.166   6.325  19.159  0.5384  0.1212 -0.3776
 1957TIP3    H130066   0.221   6.392  19.119  1.8506 -0.9016 -0.3605
 1957TIP3    H230067   0.093   6.314  19.099 -0.3491  2.3773  0.1976
 1958TIP3   OH230068   2.029   1.533  17.157 -0.3738 -0.1263 -0.4517
 1958TIP3    H130069   2.043   1.559  17.066  1.9282 -0.7915 -0.3583
 1958TIP3    H230070   2.082   1.454  17.167 -2.5559 -1.5131  0.8294
 1959TIP3   OH230071   0.919   6.319  20.123 -0.5839  0.4120 -0.0409
 1959TIP3    H130072   0.878   6.280  20.046 -0.8760  1.5896 -0.4874
 1959TIP3    H230073   0.962   6.245  20.167  2.2643  0.1120 -2.9511
 1960TIP3   OH230074   2.115   3.282  18.366 -0.0731  0.2881  0.3436
 1960TIP3    H130075   2.195   3.232  18.378 -0.6681 -0.8596 -0.3312
 1960TIP3    H230076   2.106   3.333  18.446  1.6936  0.9748  0.1429
 1961TIP3   OH230077   2.532   5.797  18.851 -0.4342 -0.0241 -0.0427
 1961TIP3    H130078   2.585   5.778  18.929 -2.8457  0.4018  1.8215
 1961TIP3    H230079   2.595   5.797  18.779  2.1694  0.9963  2.0650
 1962TIP3   OH230080   0.628   5.649  17.996 -0.5030  0.8143 -0.0434
 1962TIP3    H130081   0.709   5.622  18.039 -0.7377 -1.2063 -0.7641
 1962TIP3    H230082   0.648   5.734  17.958  1.1149  0.5811  0.2324
 1963TIP3   OH230083   1.552   5.751  19.448  0.2238  0.0456  0.6049
 1963TIP3    H130084   1.536   5.845  19.447 -1.1139 -0.1625 -0.8700
 1963TIP3    H230085   1.618   5.739  19.517  0.3604  2.0297  0.8842
 1964TIP3   OH230086   6.562   4.996  17.949 -0.0550 -0.0695  0.3315
 1964TIP3    H130087   6.604   4.975  17.866 -1.6860  0.5972 -0.7208
 1964TIP3    H230088   6.493   5.058  17.926 -0.1147  0.6701  2.2921
 1965TIP3   OH230089   3.016   0.108  20.009  0.4151  0.3744  0.1628
 1965TIP3    H130090   2.952   0.063  19.954  1.2278  0.4615 -0.8891
 1965TIP3    H230091   3.007   0.067  20.095 -0.0318 -0.6339 -0.3431
 1966TIP3   OH230092   4.100   6.544  17.604 -0.2702 -0.2872  0.1946
 1966TIP3    H130093   4.058   6.613  17.554  2.3107  0.7953 -0.6590
 1966TIP3    H230094   4.179   6.522  17.554  2.0344  0.2680  3.2810
 1967TIP3   OH230095   4.377   1.803  18.193 -0.9005  0.1195  0.4550
 1967TIP3    H130096   4.446   1.747  18.158 -2.3022 -1.5428  0.2308
 1967TIP3    H230097   4.339   1.846  18.116 -1.7398 -0.9152  0.2665
 1968TIP3   OH230098   0.907   3.478  18.488  0.0059  0.4725 -0.2049
 1968TIP3    H130099   0.858   3.530  18.552  1.2121 -1.7889  2.7982
 1968TIP3    H230100   0.995   3.515  18.490 -0.1782  1.0003 -1.3490
 1969TIP3   OH230101   4.805   6.413  16.268  0.0897 -0.3271  0.1121
 1969TIP3    H130102   4.730   6.453  16.223 -0.3843 -1.4366 -0.1155
 1969TIP3    H230103   4.870   6.402  16.199 -0.3064 -1.2097 -0.1412
 1970TIP3   OH230104   2.577   5.884  19.404  0.1371  0.1073 -0.0249
 1970TIP3    H130105   2.488   5.919  19.403  0.1409  0.1262  0.2143
 1970TIP3    H230106   2.628   5.949  19.357 -0.6583 -1.8442 -3.9811
 1971TIP3   OH230107   6.348   5.375  18.648 -0.1562  0.1762  0.0781
 1971TIP3    H130108   6.349   5.416  18.734  0.6095  1.6673 -0.6185
 1971TIP3    H230109   6.255   5.364  18.628 -0.3402 -0.7009  1.3085
 1972TIP3   OH230110   4.081   1.438  17.848  0.0851 -0.2577 -0.6418
 1972TIP3    H130111   4.091   1.419  17.941 -1.7539 -0.3200 -0.4221
 1972TIP3    H230112   4.144   1.381  17.804 -0.1708 -1.4312  0.4674
 1973TIP3   OH230113   0.715   2.091  18.567  0.7212  0.0156  0.8099
 1973TIP3    H130114   0.649   2.115  18.632  0.1477 -0.5155  0.4398
 1973TIP3    H230115   0.715   1.995  18.568  0.2437 -0.0168 -0.4167
 1974TIP3   OH230116   1.274   6.525  18.541 -0.5935 -0.3774 -0.1886
 1974TIP3    H130117   1.212   6.538  18.613 -0.8650 -2.4074  0.0037
 1974TIP3    H230118   1.335   6.599  18.549 -0.5512 -0.5700  2.1997
 1975TIP3   OH230119   4.616   4.792  18.805  0.1218  0.5769  0.2770
 1975TIP3    H130120   4.616   4.754  18.893  0.8362  0.5534  0.2753
 1975TIP3    H230121   4.524   4.797  18.781 -0.1086  0.9913  1.2010
 1976TIP3   OH230122   3.203   0.011  18.168  0.3233 -0.0931  0.0575
 1976TIP3    H130123   3.193   0.071  18.094  0.0542 -1.0897 -0.7422
 1976TIP3    H230124   3.128   0.028  18.224  0.1298  0.1669 -0.2817
 1977TIP3   OH230125   1.217   5.133  19.098  0.1512 -0.0536  0.2508
 1977TIP3    H130126   1.297   5.164  19.142 -0.3031  1.5812 -0.0323
 1977TIP3    H230127   1.150   5.133  19.167  0.7297 -3.3056  1.0038
 1978TIP3   OH230128   0.653   1.857  16.938 -0.0173  0.3094 -0.2933
 1978TIP3    H130129   0.693   1.881  17.022 -0.8742  0.6895  0.0171
 1978TIP3    H230130   0.564   1.830  16.961 -0.0989 -0.0562 -1.0281
 1979TIP3   OH230131   6.550   5.863  19.553 -0.2355  0.0689 -0.2885
 1979TIP3    H130132   6.479   5.927  19.545  0.2161  0.5814 -0.3077
 1979TIP3    H230133   6.523   5.806  19.625 -0.7285  0.1735 -0.3858
 1980TIP3   OH230134   4.468   0.381  16.856  0.0461  0.5915  0.3084
 1980TIP3    H130135   4.384   0.365  16.813  0.8225  0.5939 -1.2560
 1980TIP3    H230136   4.490   0.471  16.833  0.8062  0.3654  0.1456
 1981TIP3   OH230137   5.776   1.987  18.863 -0.1437 -0.2235 -0.3636
 1981TIP3    H130138   5.834   1.950  18.929  0.7074  1.2207 -0.2631
 1981TIP3    H230139   5.729   1.912  18.828  0.5137 -1.2076  0.7902
 1982TIP3   OH230140   4.864   5.574  19.801  0.1451 -0.0606  0.1572
 1982TIP3    H130141   4.823   5.555  19.885  0.5552 -0.1727  0.3334
 1982TIP3    H230142   4.932   5.507  19.791 -0.0139 -0.1558 -0.3445
 1983TIP3   OH230143   3.862   4.937  19.093 -0.3999 -1.4930 -0.1652
 1983TIP3    H130144   3.818   4.962  19.175  1.3829  0.6270  0.2379
 1983TIP3    H230145   3.910   4.857  19.115 -1.2606 -1.8742  0.3701
 1984TIP3   OH230146   6.577   6.152  19.728  0.2458 -0.1520 -0.4588
 1984TIP3    H130147   6.517   6.112  19.665 -0.5478 -0.2519  0.3476
 1984TIP3    H230148   6.542   6.241  19.740 -0.1841 -0.4512  0.5707
 1985TIP3   OH230149   6.172   2.644  19.658 -0.0352  0.3295  0.2947
 1985TIP3    H130150   6.221   2.700  19.719 -3.4434  3.3630  0.5629
 1985TIP3    H230151   6.088   2.629  19.701 -0.4594 -2.3683 -1.2745
 1986TIP3   OH230152   4.836   4.559  19.342 -0.6163 -0.0702  0.7310
 1986TIP3    H130153   4.923   4.596  19.328 -0.5797  0.3142  1.8367
 1986TIP3    H230154   4.821   4.503  19.266  0.0262  0.9133 -0.1559
 1987TIP3   OH230155   1.983   6.665  17.550 -0.3325 -0.2482 -0.1561
 1987TIP3    H130156   2.043   6.662  17.476 -0.0050  0.5252  0.0683
 1987TIP3    H230157   1.924   6.738  17.531 -1.4854 -1.2536 -0.5720
 1988TIP3   OH230158   1.800   3.421  18.231 -0.1004  0.1849  0.2380
 1988TIP3    H130159   1.766   3.455  18.314 -0.9143  0.9766 -0.3900
 1988TIP3    H230160   1.895   3.426  18.240 -0.1743  0.3157  1.0959
 1989TIP3   OH230161   0.101   3.989  18.948 -0.4733  0.2114 -0.1840
 1989TIP3    H130162   0.116   4.075  18.987  0.6017 -1.0940  2.5267
 1989TIP3    H230163   0.008   3.972  18.962 -0.0364 -0.4434  2.5577
 1990TIP3   OH230164   0.329   4.165  18.767  0.5411 -0.0662 -0.0802
 1990TIP3    H130165   0.317   4.070  18.764 -1.4022  0.1443 -0.1138
 1990TIP3    H230166   0.353   4.183  18.858 -0.7922 -0.4287  0.3606
 1991TIP3   OH230167   4.493   2.908  18.343 -0.0932  0.0396  0.3204
 1991TIP3    H130168   4.437   2.925  18.267  0.4300  0.2150 -0.0347
 1991TIP3    H230169   4.578   2.945  18.318  0.3063 -0.6411  0.6671
 1992TIP3   OH230170   0.100   1.447  18.421  0.3874  0.0506  0.1031
 1992TIP3    H130171   0.077   1.538  18.441 -2.3351 -0.7173  1.0090
 1992TIP3    H230172   0.107   1.444  18.326 -2.7501  0.7007 -0.2829
 1993TIP3   OH230173   5.328   2.124  17.441  0.2240  0.3339  0.5793
 1993TIP3    H130174   5.383   2.084  17.374  0.9798 -0.2271  1.5265
 1993TIP3    H230175   5.246   2.144  17.395 -0.0792 -1.9945 -0.0269
 1994TIP3   OH230176   2.038   5.441  16.646 -0.3324 -0.0404  0.7087
 1994TIP3    H130177   1.954   5.452  16.601 -0.5533  1.1286  1.3432
 1994TIP3    H230178   2.041   5.349  16.670  0.0180 -0.8291 -2.0611
 1995TIP3   OH230179   6.317   1.957  19.377 -0.3867  0.1770 -0.0259
 1995TIP3    H130180   6.370   1.927  19.451  0.0754 -1.9359 -1.1128
 1995TIP3    H230181   6.336   1.894  19.308 -2.4434  0.8279 -1.2721
 1996TIP3   OH230182   2.932   6.055  19.784 -0.0470 -0.4256 -0.3181
 1996TIP3    H130183   2.913   6.048  19.877 -0.7127 -0.6852 -0.4704
 1996TIP3    H230184   2.912   6.146  19.762  2.9426  0.5160  0.4012
 1997TIP3   OH230185   0.962   4.476  17.062 -0.0702 -0.1307 -0.4601
 1997TIP3    H130186   1.056   4.483  17.080 -0.3982 -0.4486  1.6340
 1997TIP3    H230187   0.957   4.419  16.985  1.4431 -0.4677 -0.3518
 1998TIP3   OH230188   3.050   5.950  19.004 -0.2766 -0.7984  0.2349
 1998TIP3    H130189   3.106   5.925  18.931  0.0917 -1.5962  0.7762
 1998TIP3    H230190   2.961   5.939  18.971 -0.1750  1.3826 -0.9457
 1999TIP3   OH230191   5.180   6.573  17.833  0.3764  0.7692  0.5399
 1999TIP3    H130192   5.098   6.523  17.837  1.0032 -0.7826 -2.7861
 1999TIP3    H230193   5.234   6.537  17.904 -0.5293 -0.7039  0.5246
 2000TIP3   OH230194   6.449   0.843  19.257 -0.1394  0.0969  0.0805
 2000TIP3    H130195   6.353   0.844  19.253 -0.1185  0.2629 -0.3829
 2000TIP3    H230196   6.477   0.873  19.171  0.3395 -1.8253 -0.4919
 2001TIP3   OH230197   4.222   3.537  17.751  0.2070 -0.9336 -0.2263
 2001TIP3    H130198   4.154   3.469  17.756 -0.5702 -0.0853  1.5593
 2001TIP3    H230199   4.176   3.618  17.773  1.7419 -0.3014  0.7529
 2002TIP3   OH230200   2.692   5.288  17.503  0.0748  0.0059 -0.6991
 2002TIP3    H130201   2.596   5.285  17.507  0.0977  0.3258  1.8404
 2002TIP3    H230202   2.713   5.381  17.503  0.4095 -0.0703 -0.1880
 2003TIP3   OH230203   5.654   1.736  17.847  0.5541 -0.3125 -0.0368
 2003TIP3    H130204   5.734   1.690  17.872 -1.8466 -4.1087  1.6456
 2003TIP3    H230205   5.626   1.692  17.766 -0.7712 -0.4941  0.4825
 2004TIP3   OH230206   4.654   5.454  19.675 -0.1545  0.5387 -0.1063
 2004TIP3    H130207   4.676   5.367  19.708  0.9120  0.6351 -0.5205
 2004TIP3    H230208   4.725   5.510  19.706 -1.3006  1.4732  0.9466
 2005TIP3   OH230209   1.610   4.808  20.245 -0.0480  0.3208  0.5981
 2005TIP3    H130210   1.702   4.825  20.266  0.6019 -0.7481 -1.1729
 2005TIP3    H230211   1.584   4.884  20.193 -0.6540  1.3256  2.2705
 2006TIP3   OH230212   5.415   0.191  19.584 -0.2315  0.2288 -0.0416
 2006TIP3    H130213   5.502   0.175  19.547  0.5338 -0.1081  1.7928
 2006TIP3    H230214   5.429   0.261  19.648 -1.3336  0.2181  0.2317
 2007TIP3   OH230215   3.288   1.276  17.898 -0.3323  0.4986  0.3121
 2007TIP3    H130216   3.287   1.243  17.988 -0.1422  0.9205  0.4698
 2007TIP3    H230217   3.348   1.217  17.852 -2.1402 -1.1364 -0.0934
 2008TIP3   OH230218   1.058   3.479  20.019 -0.0075  0.2609 -0.9758
 2008TIP3    H130219   1.134   3.473  19.961 -0.0148 -0.1299 -0.9471
 2008TIP3    H230220   1.025   3.568  20.006  1.1830  0.8616 -0.0546
 2009TIP3   OH230221   0.166   1.841  19.275 -0.0388  0.9745 -0.0294
 2009TIP3    H130222   0.121   1.758  19.260  0.8112  0.7973 -1.9443
 2009TIP3    H230223   0.230   1.822  19.343 -0.5871  0.3474  0.3152
 2010TIP3   OH230224   0.693   6.161  19.213 -0.1521 -0.0549  0.7791
 2010TIP3    H130225   0.750   6.201  19.148  0.6406 -2.1354  0.1407
 2010TIP3    H230226   0.605   6.187  19.186  0.2518  0.2251 -0.3329
 2011TIP3   OH230227   3.319   5.337  18.576  0.4884 -0.2622  0.5996
 2011TIP3    H130228   3.244   5.313  18.630  0.0458 -0.3746 -0.0587
 2011TIP3    H230229   3.361   5.253  18.556 -0.1866 -0.3676 -0.4349
 2012TIP3   OH230230   4.277   1.987  18.015 -0.9543  0.1397  0.0277
 2012TIP3    H130231   4.184   1.994  17.991 -0.7322  2.4389 -0.3500
 2012TIP3    H230232   4.317   2.066  17.979  1.2748 -1.0416 -0.2474
 2013TIP3   OH230233   6.160   1.178  18.142 -0.1764  0.5641  0.3113
 2013TIP3    H130234   6.154   1.272  18.126 -2.8360  0.4065 -0.1066
 2013TIP3    H230235   6.098   1.139  18.080 -0.1296 -1.3353  1.3865
 2014TIP3   OH230236   4.801   5.191  19.545 -0.7107 -0.0587 -0.3442
 2014TIP3    H130237   4.885   5.146  19.556 -0.8809 -0.0787  1.1301
 2014TIP3    H230238   4.738   5.136  19.593 -1.2695  0.7492 -0.1364
 2015TIP3   OH230239   5.174   2.461  20.341  0.0280 -0.4818 -0.0635
 2015TIP3    H130240   5.226   2.516  20.399  0.8824 -0.0523 -1.2008
 2015TIP3    H230241   5.205   2.372  20.357  0.5686 -0.3149 -0.1861
 2016TIP3   OH230242   5.562   1.534  18.093  0.0142 -0.0620 -0.2592
 2016TIP3    H130243   5.477   1.511  18.055  0.4419 -1.0681 -0.6428
 2016TIP3    H230244   5.620   1.545  18.018  0.1452  1.0449 -0.0197
 2017TIP3   OH230245   6.071   6.577  17.576  0.6082  0.5872  0.4853
 2017TIP3    H130246   6.021   6.608  17.501  1.1218  1.5605  0.5361
 2017TIP3    H230247   6.005   6.554  17.641  0.1342 -0.6804 -0.3989
 2018TIP3   OH230248   4.624   4.700  19.143 -0.3744  0.3580  0.4562
 2018TIP3    H130249   4.575   4.782  19.134 -0.6635  0.2257  0.7896
 2018TIP3    H230250   4.708   4.726  19.181  0.0323  0.6513 -0.6075
 2019TIP3   OH230251   5.572   2.482  19.437  0.2316  0.3527 -0.1907
 2019TIP3    H130252   5.566   2.402  19.385  1.7119  0.4618 -0.5637
 2019TIP3    H230253   5.611   2.547  19.379 -1.9047  1.7072 -0.2418
 2020TIP3   OH230254   2.174   5.287  16.370  0.3760 -0.4198  0.2297
 2020TIP3    H130255   2.208   5.350  16.434  0.9527  0.7280 -1.1384
 2020TIP3    H230256   2.252   5.253  16.326 -0.0568  0.1779 -1.0744
 2021TIP3   OH230257   3.787   0.754  18.598 -0.2186 -0.8279  0.5346
 2021TIP3    H130258   3.855   0.816  18.571  1.0622 -2.8214 -1.0555
 2021TIP3    H230259   3.771   0.775  18.690  0.4412  1.5622  0.1834
 2022TIP3   OH230260   1.897   5.929  19.403  0.7054 -0.2364  0.0878
 2022TIP3    H130261   1.820   5.949  19.350 -0.3385 -2.1716  0.7871
 2022TIP3    H230262   1.961   5.994  19.377  0.1181 -0.8453 -3.2610
 2023TIP3   OH230263   1.264   5.616  20.152 -0.2387  0.6191 -0.0108
 2023TIP3    H130264   1.287   5.552  20.084  0.0796 -0.3060  0.9431
 2023TIP3    H230265   1.325   5.689  20.137  0.4732  0.0130 -0.1414
 2024TIP3   OH230266   4.644   0.574  18.132 -0.3242 -0.6101  0.2813
 2024TIP3    H130267   4.723   0.607  18.174 -1.1942  1.5754  0.3430
 2024TIP3    H230268   4.601   0.522  18.200  0.6656 -1.2132  0.4716
 2025TIP3   OH230269   3.625   4.937  18.900 -0.6681  0.0283  0.0341
 2025TIP3    H130270   3.619   4.910  18.992  0.1072 -0.4894 -0.0557
 2025TIP3    H230271   3.675   5.018  18.902  1.3347 -1.1360 -0.0897
 2026TIP3   OH230272   0.037   5.622  19.722  0.5747 -0.2209 -0.1285
 2026TIP3    H130273  -0.007   5.656  19.799  2.2408 -0.2442  0.8852
 2026TIP3    H230274  -0.018   5.650  19.648 -0.6271  0.4801  0.9917
 2027TIP3   OH230275   2.173   3.116  18.656 -0.1847  0.4974 -0.0889
 2027TIP3    H130276   2.127   3.032  18.657 -0.3663  0.5906 -0.6684
 2027TIP3    H230277   2.262   3.094  18.627 -0.5220  0.6464 -1.2720
 2028TIP3   OH230278   0.108   0.199  20.459 -0.0108 -0.0061 -0.2673
 2028TIP3    H130279   0.190   0.185  20.412  0.8092  0.2234  1.0245
 2028TIP3    H230280   0.040   0.195  20.392  0.9190 -1.6341 -1.1678
 2029TIP3   OH230281   1.565   4.159  18.756 -0.0359 -0.3982 -0.0532
 2029TIP3    H130282   1.634   4.195  18.812  0.4954  1.8138 -1.9670
 2029TIP3    H230283   1.607   4.089  18.707  0.0014 -1.0845  0.9379
 2030TIP3   OH230284   1.525   2.531  17.666 -0.2977  0.0196 -0.4823
 2030TIP3    H130285   1.515   2.463  17.733 -0.9510  0.2375 -0.3458
 2030TIP3    H230286   1.473   2.498  17.592  1.1035 -0.6212 -1.2051
 2031TIP3   OH230287   6.574   3.287  16.821  0.2983 -0.2389 -0.2219
 2031TIP3    H130288   6.499   3.254  16.772 -1.9118 -0.4420  3.0188
 2031TIP3    H230289   6.614   3.209  16.859  2.1790 -0.1138 -1.7449
 2032TIP3   OH230290   5.079   5.147  19.885  0.1270  0.0813 -0.1778
 2032TIP3    H130291   4.999   5.108  19.920  0.5512  0.1305  0.8961
 2032TIP3    H230292   5.127   5.074  19.847 -0.4080  0.0487 -0.8136
 2033TIP3   OH230293   0.997   5.103  19.286  0.2007  0.3809 -0.4918
 2033TIP3    H130294   1.059   5.127  19.355 -1.1451 -0.6754  1.1763
 2033TIP3    H230295   0.966   5.187  19.251  1.2668  0.9326 -0.1562
 2034TIP3   OH230296   4.389   6.044  19.773  0.0317  0.2818 -0.1330
 2034TIP3    H130297   4.435   6.111  19.823 -0.3701  0.0423  0.5684
 2034TIP3    H230298   4.419   6.057  19.683 -1.4367  2.6364 -0.3829
 2035TIP3   OH230299   2.419   4.649  18.191  0.1698  0.7561  0.4970
 2035TIP3    H130300   2.324   4.643  18.204  0.0054  1.6379 -0.2211
 2035TIP3    H230301   2.440   4.741  18.205  0.7280  0.8095 -0.5446
 2036TIP3   OH230302   0.112   5.506  17.382  0.5391 -0.4318  0.3398
 2036TIP3    H130303   0.206   5.495  17.372  0.2217 -2.2487 -1.1297
 2036TIP3    H230304   0.080   5.524  17.293 -0.5377  0.0221  0.7930
 2037TIP3   OH230305   2.716   5.931  18.111 -0.6724 -0.2009  0.0759
 2037TIP3    H130306   2.761   5.849  18.093 -0.4984 -0.4888  1.6614
 2037TIP3    H230307   2.623   5.911  18.101 -0.5630 -0.0107 -1.6336
 2038TIP3   OH230308   0.861   2.031  19.821 -0.3571 -0.0647 -0.1239
 2038TIP3    H130309   0.817   1.958  19.863  0.6305  0.0864  1.2278
 2038TIP3    H230310   0.909   2.074  19.891 -0.3527  1.4710 -1.0263
 2039TIP3   OH230311   6.615   3.365  18.109  0.3225  0.3054 -0.2056
 2039TIP3    H130312   6.579   3.277  18.117 -0.3513  0.4065 -1.8152
 2039TIP3    H230313   6.616   3.399  18.199  1.0353 -1.4886  0.5034
 2040TIP3   OH230314   0.990   5.643  17.161  0.0865 -0.3756  0.1330
 2040TIP3    H130315   1.060   5.596  17.205  0.0375 -1.3788 -0.7976
 2040TIP3    H230316   0.953   5.701  17.228  0.6292 -1.1405  1.1173
 2041TIP3   OH230317   3.929   4.722  17.699  0.2981 -0.3082  0.3444
 2041TIP3    H130318   4.004   4.778  17.683 -0.9453  1.4681  0.4004
 2041TIP3    H230319   3.907   4.685  17.614  0.6442 -0.0587  0.1479
 2042TIP3   OH230320   1.929   6.228  17.702  0.9236  0.3514  0.5326
 2042TIP3    H130321   1.922   6.191  17.790  1.4856  0.0210  0.4420
 2042TIP3    H230322   1.997   6.295  17.709  0.7987  0.4928  0.4032
 2043TIP3   OH230323   1.481   2.324  18.216 -0.0223 -0.4159 -0.0410
 2043TIP3    H130324   1.398   2.365  18.194 -0.1329 -0.1530  0.8197
 2043TIP3    H230325   1.463   2.230  18.217 -0.7608 -0.3045  1.7837
 2044TIP3   OH230326   1.209   4.655  20.079  0.0791  0.1737  0.8637
 2044TIP3    H130327   1.268   4.634  20.151  0.9198 -0.3614  0.0395
 2044TIP3    H230328   1.147   4.582  20.077 -0.5159  0.6389  1.6045
 2045TIP3   OH230329   4.620   0.699  20.079 -0.4023 -0.2566 -0.0138
 2045TIP3    H130330   4.699   0.725  20.033 -0.5768 -0.7706 -0.6152
 2045TIP3    H230331   4.632   0.606  20.097 -0.4135 -0.1063  0.8395
 2046TIP3   OH230332   3.842   3.047  17.249  0.5224 -0.0530 -0.5601
 2046TIP3    H130333   3.868   3.132  17.213 -0.6611  0.6910  0.2831
 2046TIP3    H230334   3.925   2.999  17.258  1.4821  1.6771  0.6345
 2047TIP3   OH230335   1.672   6.029  19.261 -0.3342  0.1158 -0.5090
 2047TIP3    H130336   1.606   6.010  19.195 -3.8294  1.5880  2.2102
 2047TIP3    H230337   1.698   6.119  19.244 -1.0840  0.4288 -0.0332
 2048TIP3   OH230338   5.536   1.226  18.164 -0.2619 -0.3742 -0.5325
 2048TIP3    H130339   5.479   1.247  18.091  0.3597  0.1679 -0.8713
 2048TIP3    H230340   5.625   1.244  18.132 -0.0208  0.4208  0.5389
 2049TIP3   OH230341   0.899   0.996  20.013 -0.6100  0.3266  0.8333
 2049TIP3    H130342   0.869   1.082  20.044 -1.4473  0.6814 -0.8582
 2049TIP3    H230343   0.833   0.969  19.950  0.2750 -1.0282  0.4464
 2050TIP3   OH230344   1.627   4.466  20.123 -0.0247 -0.1096 -0.0486
 2050TIP3    H130345   1.567   4.405  20.081  0.2422  0.2854 -1.0329
 2050TIP3    H230346   1.713   4.443  20.088  0.2863 -0.0845  0.6638
 2051TIP3   OH230347   0.440   6.224  19.125 -0.2460 -0.3537  0.0450
 2051TIP3    H130348   0.465   6.190  19.039  0.2367  1.6401 -0.6544
 2051TIP3    H230349   0.350   6.194  19.138 -0.2224 -0.9265 -1.0156
 2052TIP3   OH230350   2.093   2.850  18.941 -0.2283  0.0113 -0.9014
 2052TIP3    H130351   2.169   2.898  18.975 -1.5063  0.8294  0.9055
 2052TIP3    H230352   2.022   2.914  18.940 -1.2257 -1.0679 -1.3610
 2053TIP3   OH230353   4.736   4.208  20.208 -0.7520 -0.4741 -0.2013
 2053TIP3    H130354   4.709   4.116  20.209 -1.9211 -0.1464  0.2618
 2053TIP3    H230355   4.677   4.250  20.146 -0.5444  0.0496 -0.0496
 2054TIP3   OH230356   6.473   4.525  19.229 -0.0445 -0.0090 -0.4173
 2054TIP3    H130357   6.552   4.566  19.267 -0.1329 -0.1913 -0.0333
 2054TIP3    H230358   6.478   4.434  19.257 -1.3590  0.3716  1.2418
 2055TIP3   OH230359   4.998   3.194  18.695  0.2005  0.2522 -0.3198
 2055TIP3    H130360   4.939   3.267  18.712 -0.4275 -0.7025  1.9127
 2055TIP3    H230361   4.985   3.134  18.768  2.6410 -0.8591 -0.6746
 2056TIP3   OH230362   1.749   2.397  18.185  0.0379  1.1677  0.6889
 2056TIP3    H130363   1.746   2.460  18.112  1.6255  0.7798  0.2579
 2056TIP3    H230364   1.658   2.388  18.212 -0.2603  3.7144  0.8219
 2057TIP3   OH230365   0.717   1.227  18.967  0.1122 -0.2352  0.3262
 2057TIP3    H130366   0.741   1.179  18.887  2.8946 -0.6477  1.3058
 2057TIP3    H230367   0.677   1.160  19.023 -1.0864 -0.1219 -0.3455
 2058TIP3   OH230368   1.874   0.651  19.215  0.1434  0.1008  0.1646
 2058TIP3    H130369   1.956   0.638  19.264 -0.0048 -1.5557  0.0461
 2058TIP3    H230370   1.901   0.694  19.134  0.6788  0.9132  0.7507
 2059TIP3   OH230371   2.498   0.567  18.623 -0.2527 -0.0153 -0.7713
 2059TIP3    H130372   2.532   0.540  18.709 -1.4575 -0.5942 -0.4661
 2059TIP3    H230373   2.541   0.651  18.606  2.0047 -1.0915 -0.8114
 2060TIP3   OH230374   0.278   2.176  18.927  0.4417 -0.5012 -0.0678
 2060TIP3    H130375   0.209   2.113  18.945  0.7619 -0.8384 -0.0104
 2060TIP3    H230376   0.347   2.156  18.990  0.5606 -0.1190 -0.0718
 2061TIP3   OH230377   5.073   3.678  17.267  0.7377  0.3212 -0.1000
 2061TIP3    H130378   5.085   3.619  17.193  0.0804  0.5000 -0.3587
 2061TIP3    H230379   5.107   3.629  17.342  0.5112 -0.2579 -0.3661
 2062TIP3   OH230380   0.818   1.057  17.494 -0.5524  0.2910 -0.1812
 2062TIP3    H130381   0.777   1.143  17.508  0.2981  1.1766 -2.5036
 2062TIP3    H230382   0.892   1.076  17.436 -0.1663 -1.9893 -0.4969
 2063TIP3   OH230383   2.614   5.462  18.578  0.2804 -0.0780 -0.5182
 2063TIP3    H130384   2.638   5.536  18.522 -0.3660 -0.0156 -0.7153
 2063TIP3    H230385   2.639   5.384  18.527  0.3824 -0.0065 -0.5765
 2064TIP3   OH230386   3.359   6.231  16.638 -0.3166 -0.6805  0.0070
 2064TIP3    H130387   3.280   6.240  16.691 -0.2934 -2.3311  0.3752
 2064TIP3    H230388   3.341   6.283  16.560 -1.0144  0.4509  0.8776
 2065TIP3   OH230389   1.843   0.773  17.950 -0.8514 -0.6122  0.0196
 2065TIP3    H130390   1.769   0.807  17.999 -0.4984  0.1179  0.0562
 2065TIP3    H230391   1.912   0.762  18.015 -0.1673  0.9873 -0.3892
 2066TIP3   OH230392   1.196   6.159  18.177 -0.6075  0.2048 -0.2995
 2066TIP3    H130393   1.149   6.233  18.215 -1.0072 -0.8950  1.4951
 2066TIP3    H230394   1.282   6.162  18.219  0.4525  1.3059 -2.4179
 2067TIP3   OH230395   2.313   0.897  17.245 -0.0994  0.0336  0.2102
 2067TIP3    H130396   2.329   0.868  17.335 -0.0025  0.5964  0.3788
 2067TIP3    H230397   2.353   0.829  17.190  0.9562  0.3185  0.6059
 2068TIP3   OH230398   0.523   0.480  17.724 -0.6089  0.2963 -0.2163
 2068TIP3    H130399   0.483   0.397  17.698 -1.2217  0.1803  1.0011
 2068TIP3    H230400   0.504   0.486  17.818  2.6109  0.0223  0.5496
 2069TIP3   OH230401   4.502   2.527  19.058 -0.0469  0.6142  0.1671
 2069TIP3    H130402   4.508   2.432  19.052  1.9997  0.7845 -3.2783
 2069TIP3    H230403   4.410   2.547  19.043 -0.3293 -0.7975 -0.1005
 2070TIP3   OH230404   4.876   6.081  19.216 -0.7336  0.1215  0.0073
 2070TIP3    H130405   4.941   6.042  19.158  1.6301 -1.0812  3.1480
 2070TIP3    H230406   4.900   6.174  19.220  1.0814 -0.3380  1.2809
 2071TIP3   OH230407   3.340   1.443  18.702  0.3561  0.1392 -0.5633
 2071TIP3    H130408   3.401   1.432  18.774  0.4729  0.8149 -0.5520
 2071TIP3    H230409   3.393   1.479  18.631  0.3612 -1.0052 -1.1800
 2072TIP3   OH230410   4.854   6.245  19.644  0.2509 -0.0931 -0.1849
 2072TIP3    H130411   4.898   6.169  19.605 -0.2449 -0.7746  0.5449
 2072TIP3    H230412   4.840   6.305  19.571 -1.1495 -1.5585 -1.1995
 2073TIP3   OH230413   0.693   3.876  17.648  0.2433 -0.3114 -0.1691
 2073TIP3    H130414   0.642   3.796  17.636 -0.0802 -0.1843  0.3463
 2073TIP3    H230415   0.776   3.858  17.603 -0.1509 -0.6133 -0.8044
 2074TIP3   OH230416   4.461   3.839  16.719 -0.4636 -0.5974 -0.6435
 2074TIP3    H130417   4.526   3.909  16.725 -1.9415  0.7601  0.3437
 2074TIP3    H230418   4.378   3.881  16.743 -1.3858 -2.7208  0.1074
 2075TIP3   OH230419   6.408   1.592  19.766  0.4069  0.0593  0.0123
 2075TIP3    H130420   6.460   1.512  19.759  0.9717  0.5088 -1.2677
 2075TIP3    H230421   6.317   1.563  19.760  0.5007 -0.6605  1.5281
 2076TIP3   OH230422   4.952   5.461  20.237  0.1391  0.0781 -0.2367
 2076TIP3    H130423   4.992   5.375  20.247  0.0108  0.0979  0.5722
 2076TIP3    H230424   5.026   5.522  20.240  0.0866  0.1171  1.2889
 2077TIP3   OH230425   0.172   1.332  18.158 -0.2324 -0.1791 -0.0750
 2077TIP3    H130426   0.107   1.269  18.127 -0.6225  0.0999  0.1624
 2077TIP3    H230427   0.218   1.360  18.079  0.8491 -1.7445 -0.0358
 2078TIP3   OH230428   0.016   1.809  18.583 -0.1574 -0.0413 -0.4125
 2078TIP3    H130429   0.066   1.783  18.661 -0.5165 -1.3533 -0.5987
 2078TIP3    H230430  -0.010   1.900  18.600  0.4079 -0.0638  0.6529
 2079TIP3   OH230431   0.240   5.523  18.934  0.4970  0.4875  0.1965
 2079TIP3    H130432   0.159   5.509  18.884  0.1097 -0.9551  1.1801
 2079TIP3    H230433   0.218   5.498  19.023  1.2945  2.6686  1.0766
 2080TIP3   OH230434   0.537   6.129  17.513  0.4519  0.6896  0.1603
 2080TIP3    H130435   0.605   6.132  17.580  0.6992  0.7760 -0.0873
 2080TIP3    H230436   0.488   6.049  17.530  0.8457  0.4379  0.1240
 2081TIP3   OH230437   3.766   0.409  19.866  0.0722 -0.2661 -0.0482
 2081TIP3    H130438   3.723   0.395  19.950 -0.4828  0.1371 -0.2566
 2081TIP3    H230439   3.709   0.366  19.802 -1.4123  2.3047 -0.6332
 2082TIP3   OH230440   4.311   2.540  17.760  0.3517  0.2069  0.6811
 2082TIP3    H130441   4.261   2.469  17.722 -0.7865  1.3088  0.0451
 2082TIP3    H230442   4.398   2.503  17.776  0.3434 -0.8155 -1.3405
 2083TIP3   OH230443   0.930   4.683  19.547 -0.0679 -0.2273 -0.0648
 2083TIP3    H130444   0.887   4.768  19.534 -0.1063 -0.2409 -0.0277
 2083TIP3    H230445   1.018   4.706  19.576 -1.0055 -0.1546  3.1373
 2084TIP3   OH230446   3.605   0.492  17.117 -0.0411 -0.2573  0.0412
 2084TIP3    H130447   3.550   0.459  17.046 -0.7882  0.7731  0.1317
 2084TIP3    H230448   3.668   0.550  17.074 -0.4944  0.3682  0.2059
 2085TIP3   OH230449   2.060   2.845  19.228 -0.0969  0.0761  0.8633
 2085TIP3    H130450   2.118   2.771  19.247  0.1902 -1.0607 -3.3396
 2085TIP3    H230451   2.119   2.915  19.200 -0.5202  0.9389  2.0717
 2086TIP3   OH230452   1.939   6.262  19.920  0.4254  0.2961 -0.9859
 2086TIP3    H130453   1.936   6.357  19.922  1.9220  0.4933 -3.4799
 2086TIP3    H230454   1.848   6.235  19.930 -0.0764  1.9987 -0.6502
 2087TIP3   OH230455   5.862   1.454  17.603  0.0031 -0.0646 -0.4239
 2087TIP3    H130456   5.945   1.406  17.602 -0.2398 -0.4829 -0.4106
 2087TIP3    H230457   5.889   1.546  17.599  0.4382 -0.2200 -1.1914
 2088TIP3   OH230458   3.717   0.226  16.303  0.4826  0.2150 -0.3210
 2088TIP3    H130459   3.789   0.289  16.310  0.0984  0.8905 -2.0679
 2088TIP3    H230460   3.759   0.145  16.275  0.7493  0.1974  0.1233
 2089TIP3   OH230461   1.193   4.294  19.373  0.6444 -0.4399 -0.1622
 2089TIP3    H130462   1.169   4.376  19.416 -1.6826 -1.2137  0.1966
 2089TIP3    H230463   1.288   4.296  19.368  0.7450  1.5222  1.3348
 2090TIP3   OH230464   1.357   0.457  18.227  0.7287  0.1560 -0.2593
 2090TIP3    H130465   1.346   0.552  18.236  2.0491  0.4163 -1.0004
 2090TIP3    H230466   1.274   0.420  18.256  0.7251  1.4470  1.5619
 2091TIP3   OH230467   3.367   3.033  18.692  0.0952 -0.0984  0.2756
 2091TIP3    H130468   3.388   3.065  18.780 -0.9292  3.0732 -0.5042
 2091TIP3    H230469   3.275   3.007  18.698  0.2432 -0.6215  0.3148
 2092TIP3   OH230470   5.244   2.469  17.676 -0.7616  0.2036  0.2494
 2092TIP3    H130471   5.176   2.413  17.639 -1.0180  0.1491  0.7812
 2092TIP3    H230472   5.313   2.408  17.703  0.8623  0.4624 -2.9511
 2093TIP3   OH230473   3.532   3.385  19.764 -0.5878  0.1413  0.4540
 2093TIP3    H130474   3.526   3.323  19.836 -1.5737  0.5222  0.7143
 2093TIP3    H230475   3.626   3.401  19.754 -0.4017 -0.4271  1.2095
 2094TIP3   OH230476   6.613   1.862  17.115  1.2389 -0.2583  0.4650
 2094TIP3    H130477   6.592   1.883  17.024  0.6133 -1.5259  0.2997
 2094TIP3    H230478   6.675   1.930  17.141  1.9750 -0.2817 -1.1243
 2095TIP3   OH230479   2.244   4.604  17.910 -0.3977 -0.3652  0.1024
 2095TIP3    H130480   2.178   4.672  17.897  1.1179  1.0959 -0.2502
 2095TIP3    H230481   2.305   4.642  17.973  0.6665 -1.2565 -0.3608
 2096TIP3   OH230482   3.804   4.428  19.660 -0.1308  0.1533  0.2553
 2096TIP3    H130483   3.727   4.383  19.694  0.2767  0.6322  1.8704
 2096TIP3    H230484   3.865   4.357  19.637 -0.4340 -0.1845  0.4831
 2097TIP3   OH230485   2.101   0.294  16.468 -0.3001  0.2732 -0.4194
 2097TIP3    H130486   2.085   0.240  16.546 -1.3530  0.1307 -0.7125
 2097TIP3    H230487   2.188   0.331  16.482 -0.7027  0.7221  1.1223
 2098TIP3   OH230488   6.086   5.805  20.308 -0.1763  0.0843 -0.4975
 2098TIP3    H130489   6.112   5.897  20.305  1.9141 -0.4199  0.1762
 2098TIP3    H230490   6.167   5.758  20.326 -1.4824 -1.7395  1.1216
 2099TIP3   OH230491   0.446   0.216  18.070 -0.8277  0.2943  0.6340
 2099TIP3    H130492   0.448   0.206  18.165  0.4758  1.9550  0.8391
 2099TIP3    H230493   0.507   0.150  18.038  2.1415  2.4759  1.3672
 2100TIP3   OH230494   0.763   5.311  18.695  0.3846 -0.1997  0.2971
 2100TIP3    H130495   0.805   5.305  18.781 -0.2272 -0.9077  0.5619
 2100TIP3    H230496   0.681   5.262  18.705 -0.9287  1.8338  0.0364
 2101TIP3   OH230497   3.608   1.763  18.866  0.0643  0.5907 -0.0042
 2101TIP3    H130498   3.696   1.771  18.829  0.3767 -0.5301  0.4557
 2101TIP3    H230499   3.573   1.853  18.865  0.7064  0.8443 -1.4028
 2102TIP3   OH230500   2.497   5.960  17.333  0.4944  0.3194 -0.4951
 2102TIP3    H130501   2.440   6.012  17.276  0.2527  0.7607  0.1455
 2102TIP3    H230502   2.446   5.882  17.353  0.0850  0.7457  0.1315
 2103TIP3   OH230503   3.833   5.319  18.540 -0.2841  0.5395  0.0892
 2103TIP3    H130504   3.919   5.329  18.582  0.1647 -1.2045 -0.3030
 2103TIP3    H230505   3.840   5.367  18.458  0.7423 -0.4887 -0.4570
 2104TIP3   OH230506   6.276   4.660  19.362 -0.6392  0.7845 -0.1054
 2104TIP3    H130507   6.340   4.608  19.314  0.4608  0.0166  2.0690
 2104TIP3    H230508   6.201   4.602  19.372 -1.0003  1.0539 -1.0817
 2105TIP3   OH230509   0.144   0.446  20.550  0.0998 -0.2612 -0.8021
 2105TIP3    H130510   0.125   0.355  20.525 -0.4734 -0.6365  0.9079
 2105TIP3    H230511   0.141   0.446  20.645  3.2723  0.8773 -0.5741
 2106TIP3   OH230512   0.225   1.254  17.481 -0.5754  0.2547  0.6840
 2106TIP3    H130513   0.287   1.313  17.439 -2.2326  1.9007  0.4482
 2106TIP3    H230514   0.259   1.166  17.461  0.8299  1.0630 -0.7040
 2107TIP3   OH230515   5.755   2.492  16.783  0.3225 -0.1004  0.2582
 2107TIP3    H130516   5.696   2.425  16.818  0.1379 -1.0657 -1.7284
 2107TIP3    H230517   5.751   2.480  16.688  1.8920  1.3929 -0.0546
 2108TIP3   OH230518   2.081   1.777  18.764  0.6217 -0.5443  0.1490
 2108TIP3    H130519   2.107   1.861  18.726 -1.4573  0.0085 -0.1883
 2108TIP3    H230520   2.041   1.801  18.848  1.0827 -1.3208  0.5964
 2109TIP3   OH230521   2.761   5.345  19.593  0.1840  0.2667  0.0884
 2109TIP3    H130522   2.845   5.307  19.619  0.8684 -0.7126 -3.1228
 2109TIP3    H230523   2.714   5.273  19.551 -1.6433  1.2097  0.4155
 2110TIP3   OH230524   5.267   2.305  18.076  0.1509 -0.8368  0.5790
 2110TIP3    H130525   5.311   2.220  18.072 -0.3401 -1.0682 -0.0737
 2110TIP3    H230526   5.179   2.285  18.105  0.0639 -0.5311  0.5303
 2111TIP3   OH230527   2.444   0.277  18.592  0.4276  0.3785  0.0674
 2111TIP3    H130528   2.403   0.216  18.654  0.2717  0.6977  0.2850
 2111TIP3    H230529   2.457   0.357  18.643 -0.8119  1.0554 -0.6130
 2112TIP3   OH230530   4.942   2.072  19.580  0.4857  0.2430  0.5281
 2112TIP3    H130531   4.874   2.094  19.644 -0.7392 -0.8758 -0.3441
 2112TIP3    H230532   4.930   2.136  19.510 -1.7056 -1.6923 -1.0231
 2113TIP3   OH230533   0.166   1.361  16.082  0.1050  0.6680  0.0382
 2113TIP3    H130534   0.144   1.343  16.174  2.8209 -0.7870  0.5149
 2113TIP3    H230535   0.111   1.301  16.032 -1.1078  1.1817  0.7238
 2114TIP3   OH230536   5.503   6.295  19.301  0.4993  0.6444 -0.0388
 2114TIP3    H130537   5.581   6.303  19.246 -0.7197 -0.4347 -2.0729
 2114TIP3    H230538   5.436   6.344  19.253 -0.1888  1.2057  1.4546
 2115TIP3   OH230539   4.045   2.886  17.687  0.0132  0.0120  0.4860
 2115TIP3    H130540   3.976   2.937  17.643  0.9948 -0.5027 -1.8031
 2115TIP3    H230541   4.073   2.822  17.621  1.8678 -0.5799  1.7671
 2116TIP3   OH230542   1.532   2.116  19.270  0.5246  0.0767  0.2836
 2116TIP3    H130543   1.481   2.104  19.189  0.2940 -0.1013  0.4541
 2116TIP3    H230544   1.616   2.149  19.240  0.0206  1.1881  0.0534
 2117TIP3   OH230545   3.419   4.967  19.337 -0.5502 -0.1505  0.5323
 2117TIP3    H130546   3.366   4.979  19.258  0.8010  1.3275 -0.2293
 2117TIP3    H230547   3.439   5.056  19.366  1.2841 -0.6410  0.9195
 2118TIP3   OH230548   4.627   4.528  19.538 -0.3425  0.5080  0.1871
 2118TIP3    H130549   4.671   4.518  19.454 -0.2262  1.0968  0.1781
 2118TIP3    H230550   4.593   4.617  19.538 -0.8347  0.3277  0.5335
 2119TIP3   OH230551   5.428   5.344  18.694 -0.2028  0.3970  0.0855
 2119TIP3    H130552   5.430   5.253  18.666 -1.3263  0.3892 -0.0021
 2119TIP3    H230553   5.342   5.355  18.735  0.3197  1.1489  1.0255
 2120TIP3   OH230554   0.766   1.687  19.404  0.0369 -0.2991  0.5122
 2120TIP3    H130555   0.795   1.698  19.313  2.1669  0.4355  1.2149
 2120TIP3    H230556   0.741   1.774  19.433  1.0004 -0.1997  1.1069
 2121TIP3   OH230557   4.557   3.608  16.633 -0.2163  0.1399  0.0890
 2121TIP3    H130558   4.520   3.691  16.663 -1.9326 -0.6419  0.2376
 2121TIP3    H230559   4.607   3.631  16.555  0.9482  1.5860  1.1985
 2122TIP3   OH230560   4.196   6.605  18.996  0.8184 -0.4004  0.1905
 2122TIP3    H130561   4.239   6.598  18.911 -0.1645  0.4457 -0.4167
 2122TIP3    H230562   4.140   6.528  19.001  0.2345 -0.0353 -0.3490
 2123TIP3   OH230563   4.167   0.989  18.618  0.2522 -0.3306 -0.5566
 2123TIP3    H130564   4.141   0.898  18.635 -0.9937  0.0780 -0.1416
 2123TIP3    H230565   4.193   0.989  18.526 -0.7947 -0.9020 -0.8842
 2124TIP3   OH230566   0.393   1.002  17.496 -0.0230 -0.5492  0.0987
 2124TIP3    H130567   0.451   0.954  17.436  1.2781  0.0685  0.8089
 2124TIP3    H230568   0.357   0.935  17.554  1.0751 -0.8118  0.5111
 2125TIP3   OH230569   4.052   3.798  19.982  0.6964 -0.0676 -0.6556
 2125TIP3    H130570   4.033   3.784  19.889  0.4724 -0.5949 -0.5327
 2125TIP3    H230571   4.054   3.710  20.019 -1.6755  0.1973  0.3113
 2126TIP3   OH230572   5.706   2.432  16.494 -0.1393 -0.5195 -0.0159
 2126TIP3    H130573   5.791   2.468  16.467  0.2684  0.8666  2.7595
 2126TIP3    H230574   5.726   2.342  16.520  1.2018  0.5874  3.2605
 2127TIP3   OH230575   5.018   0.513  17.304  0.3125 -0.4924  0.2866
 2127TIP3    H130576   4.992   0.547  17.219  0.1950 -0.0369  0.5061
 2127TIP3    H230577   5.114   0.507  17.300  0.2904 -0.7228  0.0350
 2128TIP3   OH230578   0.953   4.537  18.946  0.0236 -0.3066  0.2841
 2128TIP3    H130579   1.036   4.527  18.992  0.3936 -0.5187 -0.4156
 2128TIP3    H230580   0.907   4.454  18.960  0.3543 -0.5649 -0.1588
 2129TIP3   OH230581   2.500   4.437  18.690 -0.3011  0.3153 -0.2068
 2129TIP3    H130582   2.527   4.454  18.780 -1.1321  0.4576  0.0295
 2129TIP3    H230583   2.582   4.433  18.640  0.5740 -3.6259  1.1476
 2130TIP3   OH230584   2.095   2.502  18.342 -0.1716 -0.6836  0.7491
 2130TIP3    H130585   2.126   2.592  18.338  2.2973 -1.3918  2.1685
 2130TIP3    H230586   2.016   2.506  18.395 -0.3782  0.6941  0.3668
 2131TIP3   OH230587   0.387   3.917  19.038  1.0394 -0.2089 -0.0435
 2131TIP3    H130588   0.408   3.902  19.130 -0.8223  0.6383  0.5460
 2131TIP3    H230589   0.298   3.951  19.038  0.1960 -2.0958 -2.2944
 2132TIP3   OH230590   3.207   5.984  17.016  0.3155  0.2931 -0.1466
 2132TIP3    H130591   3.121   5.979  17.059 -0.0045  1.7202 -0.5866
 2132TIP3    H230592   3.253   6.054  17.063  0.6661  0.5761 -0.8961
 2133TIP3   OH230593   4.063   1.689  18.783 -0.5208 -0.0286  0.4298
 2133TIP3    H130594   4.118   1.716  18.857 -1.7062 -0.3328  1.4798
 2133TIP3    H230595   4.016   1.768  18.758 -1.4998 -0.3213  1.2695
 2134TIP3   OH230596   4.040   0.404  19.188 -0.4178 -0.1017 -0.1275
 2134TIP3    H130597   4.076   0.339  19.128  1.2604 -0.6979  1.4439
 2134TIP3    H230598   4.092   0.483  19.173  0.5886 -0.5026  1.0619
 2135TIP3   OH230599   2.945   5.392  19.964 -0.2825 -0.0960 -0.4069
 2135TIP3    H130600   2.853   5.372  19.981 -0.0201 -0.7159  0.3591
 2135TIP3    H230601   2.974   5.436  20.043  0.3674 -0.9248 -0.1682
 2136TIP3   OH230602   5.471   3.583  17.128 -0.4882  0.3478 -0.6574
 2136TIP3    H130603   5.432   3.671  17.128 -0.5981  0.3151  0.7006
 2136TIP3    H230604   5.417   3.533  17.188 -0.5140 -0.7090 -1.5418
 2137TIP3   OH230605   1.295   5.633  19.703 -0.0703 -0.3355  0.3520
 2137TIP3    H130606   1.255   5.595  19.625  0.0103  0.3982 -0.0615
 2137TIP3    H230607   1.238   5.606  19.775 -0.0017 -1.2382  0.0820
 2138TIP3   OH230608   6.021   2.463  17.638 -0.1047  0.0324  0.1283
 2138TIP3    H130609   6.095   2.512  17.603 -2.5172  3.7085 -0.4136
 2138TIP3    H230610   6.039   2.455  17.731  1.0734  0.6748 -0.0234
 2139TIP3   OH230611   5.516   0.659  19.860 -0.7825  0.1495  0.1056
 2139TIP3    H130612   5.426   0.653  19.826 -0.0754  1.3269 -2.2293
 2139TIP3    H230613   5.529   0.753  19.874  0.2311  0.0459 -0.0938
 2140TIP3   OH230614   3.886   2.707  17.165  0.2473  0.2377  0.5520
 2140TIP3    H130615   3.898   2.612  17.178  2.8620  0.3744 -0.3034
 2140TIP3    H230616   3.867   2.716  17.071  0.0154  0.5784  0.6295
 2141TIP3   OH230617   6.380   0.850  18.961  0.4591  0.0327  0.3165
 2141TIP3    H130618   6.338   0.835  18.877  1.7231  0.3163 -0.3983
 2141TIP3    H230619   6.354   0.939  18.985 -0.3519 -0.2519  0.4988
 2142TIP3   OH230620   1.749   4.906  19.996 -0.0407 -0.0425 -0.3552
 2142TIP3    H130621   1.813   4.835  20.003  0.7824  0.6583 -0.5879
 2142TIP3    H230622   1.780   4.972  20.058  0.8056  1.3041 -2.1360
 2143TIP3   OH230623   2.130   3.772  16.680  0.6868  0.3490  0.0605
 2143TIP3    H130624   2.053   3.732  16.640  0.1520 -1.6144  2.7871
 2143TIP3    H230625   2.168   3.702  16.733  2.9194  1.9993  0.7616
 2144TIP3   OH230626   4.292   5.112  18.453  0.0883  0.0879 -0.3787
 2144TIP3    H130627   4.254   5.040  18.402 -2.9574  0.5967  0.9695
 2144TIP3    H230628   4.241   5.188  18.427 -1.1868  0.4763  2.8683
 2145TIP3   OH230629   5.509   4.735  18.254  0.0434 -0.7009  0.1350
 2145TIP3    H130630   5.556   4.656  18.281 -0.2116 -1.4096 -1.3604
 2145TIP3    H230631   5.431   4.736  18.309 -0.4406 -2.0513 -0.4881
 2146TIP3   OH230632   1.104   5.775  18.303 -0.4923 -0.0234  0.2160
 2146TIP3    H130633   1.095   5.756  18.396 -0.1364 -2.4997 -0.1802
 2146TIP3    H230634   1.110   5.689  18.261 -0.3600  1.0143 -2.0761
 2147TIP3   OH230635   2.399   3.574  17.332 -0.2657 -0.1702  0.1041
 2147TIP3    H130636   2.401   3.661  17.371 -1.7823 -0.0748  0.0136
 2147TIP3    H230637   2.462   3.523  17.384  0.2439  0.8262  0.4865
 2148TIP3   OH230638   2.947   2.438  19.692  0.0487  0.6715 -0.5214
 2148TIP3    H130639   3.019   2.420  19.753 -0.0188 -1.6862 -1.0312
 2148TIP3    H230640   2.939   2.358  19.640 -2.3589  1.1952 -1.0901
 2149TIP3   OH230641   3.103   5.456  17.813  0.1603 -0.5355 -0.4589
 2149TIP3    H130642   3.176   5.401  17.841  0.4820 -0.5021 -1.2202
 2149TIP3    H230643   3.053   5.401  17.753 -0.8234 -0.7877  0.5516
 2150TIP3   OH230644   6.186   0.922  20.288  0.4332 -0.3523 -0.1209
 2150TIP3    H130645   6.124   0.849  20.291  0.5164 -0.4053  0.5610
 2150TIP3    H230646   6.221   0.920  20.199 -0.5893 -0.2804 -0.5451
 2151TIP3   OH230647   0.154   6.436  17.464  0.1377 -0.1296 -0.1679
 2151TIP3    H130648   0.139   6.348  17.428 -1.1820  0.2049 -0.4966
 2151TIP3    H230649   0.138   6.495  17.390 -1.1913  0.4932  0.5821
 2152TIP3   OH230650   3.824   4.326  18.477  0.0185 -0.2980  0.0612
 2152TIP3    H130651   3.848   4.303  18.387 -3.5110 -1.6403 -0.7250
 2152TIP3    H230652   3.804   4.420  18.473 -0.6418 -0.4593 -0.7473
 2153TIP3   OH230653   3.837   4.517  19.916  0.2225 -0.1136  0.3033
 2153TIP3    H130654   3.836   4.515  19.820  1.1320 -0.8741  0.2967
 2153TIP3    H230655   3.802   4.432  19.941 -1.6859  0.7355  0.6916
 2154TIP3   OH230656   2.461   1.019  19.416  0.3726  0.0392  0.1863
 2154TIP3    H130657   2.452   1.105  19.458  0.2245  1.7081 -2.9981
 2154TIP3    H230658   2.378   1.005  19.371  1.0177 -0.9768 -0.7369
 2155TIP3   OH230659   5.703   3.554  17.000 -0.0172  0.2401 -0.4159
 2155TIP3    H130660   5.623   3.570  17.049 -0.2885  0.1669 -0.8299
 2155TIP3    H230661   5.772   3.550  17.067 -0.4125 -0.0844 -0.0252
 2156TIP3   OH230662   4.942   4.563  18.857  0.0717  0.3931 -0.0641
 2156TIP3    H130663   4.976   4.498  18.796  0.7549 -0.6192  1.3316
 2156TIP3    H230664   4.848   4.548  18.859  0.4413 -2.7083  2.4341
 2157TIP3   OH230665   5.169   6.090  17.257 -0.2098  0.3016 -0.2799
 2157TIP3    H130666   5.181   6.035  17.335  0.9952  1.8162  0.6520
 2157TIP3    H230667   5.082   6.128  17.268 -0.1821  0.2509  0.1573
 2158TIP3   OH230668   4.949   4.170  19.008  0.4130  0.5225 -0.7311
 2158TIP3    H130669   4.965   4.098  18.948  1.1959  0.7622 -0.8265
 2158TIP3    H230670   4.929   4.128  19.092  1.6624  0.1876 -0.5870
 2159TIP3   OH230671   6.556   3.786  18.622  0.7081  0.6202  0.2212
 2159TIP3    H130672   6.587   3.762  18.709  2.4311  2.4050  0.1541
 2159TIP3    H230673   6.612   3.737  18.562 -0.5269 -0.6707  0.0526
 2160TIP3   OH230674   2.417   6.360  18.330  0.5640  0.0195  0.1671
 2160TIP3    H130675   2.381   6.283  18.287  2.2071 -0.9195  0.3832
 2160TIP3    H230676   2.459   6.409  18.259 -0.7834  0.9242 -0.0294
 2161TIP3   OH230677   0.977   0.716  18.898  0.2334  0.2653  0.6368
 2161TIP3    H130678   0.965   0.743  18.989 -0.5089 -0.9611  0.9233
 2161TIP3    H230679   0.901   0.751  18.852  0.6954  1.0305  0.4491
 2162TIP3   OH230680   0.182   4.429  19.577 -0.1269  0.3156  0.0586
 2162TIP3    H130681   0.122   4.487  19.625 -1.0043 -1.0211  0.6210
 2162TIP3    H230682   0.124   4.366  19.533  0.8492 -0.7715  0.2965
 2163TIP3   OH230683   3.959   0.993  18.801  0.5379  0.9943  0.2421
 2163TIP3    H130684   4.020   0.922  18.777 -1.0683 -0.3245 -0.1347
 2163TIP3    H230685   3.939   1.035  18.717  0.9542  1.4699  0.3757
 2164TIP3   OH230686   2.870   4.493  17.169 -0.2240  0.6106 -0.0661
 2164TIP3    H130687   2.950   4.545  17.181  1.4183 -1.7938 -0.0307
 2164TIP3    H230688   2.837   4.479  17.258  1.4833 -1.5298  0.2936
 2165TIP3   OH230689   0.348   0.789  17.299 -0.7424 -0.2594 -0.2646
 2165TIP3    H130690   0.395   0.713  17.334 -0.0424  0.2289 -0.1258
 2165TIP3    H230691   0.256   0.774  17.323 -0.4015 -0.3698  1.0050
 2166TIP3   OH230692   5.229   3.317  19.479  0.2543  0.4603  0.0456
 2166TIP3    H130693   5.240   3.237  19.427 -0.3725  0.3304  0.0972
 2166TIP3    H230694   5.209   3.285  19.567 -2.3151  0.5999 -0.4007
 2167TIP3   OH230695   2.482   5.176  18.878 -0.1028  0.0070  0.1072
 2167TIP3    H130696   2.523   5.095  18.907  0.7701  0.8339  1.3187
 2167TIP3    H230697   2.496   5.179  18.784 -1.3013 -1.8433 -0.1817
 2168TIP3   OH230698   3.328   0.879  17.973 -0.1366 -0.0110  0.4709
 2168TIP3    H130699   3.323   0.973  17.990  0.9910  0.3880 -1.1456
 2168TIP3    H230700   3.379   0.872  17.892 -1.1666 -1.9505 -0.0784
 2169TIP3   OH230701   5.605   4.792  17.644 -0.1536 -0.2180  0.2289
 2169TIP3    H130702   5.664   4.725  17.679 -1.3451 -0.9594  0.8718
 2169TIP3    H230703   5.595   4.770  17.552 -1.6818 -1.8274  0.7411
 2170TIP3   OH230704   6.437   2.257  19.549  0.5969  0.3251 -0.2543
 2170TIP3    H130705   6.345   2.281  19.555  0.4433 -0.3542  0.0959
 2170TIP3    H230706   6.457   2.262  19.456  0.0183 -0.2412 -0.4075
 2171TIP3   OH230707   2.696   4.642  18.072  0.2187  0.0642  0.8711
 2171TIP3    H130708   2.740   4.725  18.059  0.8240 -0.3627  0.1673
 2171TIP3    H230709   2.606   4.666  18.096  0.3152  0.9115  0.4047
 2172TIP3   OH230710   2.330   6.510  18.664  0.0495  0.0446  0.0660
 2172TIP3    H130711   2.267   6.446  18.698  0.0091 -0.0370 -0.1600
 2172TIP3    H230712   2.278   6.590  18.653  0.2137  0.2674  0.8347
 2173TIP3   OH230713   3.360   3.653  19.140  0.1060 -0.2175  0.0867
 2173TIP3    H130714   3.293   3.690  19.083  0.7049 -1.3990 -1.4739
 2173TIP3    H230715   3.433   3.715  19.134  1.1294 -1.5520 -2.5610
 2174TIP3   OH230716   6.656   0.915  18.210  0.1198  0.2493  0.0107
 2174TIP3    H130717   6.691   0.991  18.164 -1.4426  1.0126  0.0225
 2174TIP3    H230718   6.563   0.934  18.220 -0.5862 -2.2236 -1.1187
 2175TIP3   OH230719   4.130   5.072  19.624 -0.4346 -0.1553 -0.4928
 2175TIP3    H130720   4.063   5.073  19.556  0.8938 -3.3922 -2.0901
 2175TIP3    H230721   4.093   5.017  19.694 -0.1415 -0.5024 -0.6046
 2176TIP3   OH230722   6.267   0.601  17.778  0.4065 -0.3261 -0.4773
 2176TIP3    H130723   6.344   0.576  17.829 -0.2613 -1.5777 -0.0204
 2176TIP3    H230724   6.200   0.621  17.843  0.2860  0.6072 -0.8685
 2177TIP3   OH230725   1.197   1.606  18.495  0.0093  0.1092  0.2819
 2177TIP3    H130726   1.160   1.619  18.582  0.1913 -2.4602  0.7977
 2177TIP3    H230727   1.290   1.587  18.511 -0.1809 -1.4761 -0.3414
 2178TIP3   OH230728   4.362   5.765  18.551 -0.2920 -0.4504 -0.7858
 2178TIP3    H130729   4.438   5.821  18.566 -1.3080  1.2618 -1.7139
 2178TIP3    H230730   4.363   5.703  18.624 -0.1088  1.9201  1.3816
 2179TIP3   OH230731   0.357   4.589  18.761 -0.3778 -0.1477 -0.0911
 2179TIP3    H130732   0.358   4.672  18.713  0.4097 -0.3129 -0.3736
 2179TIP3    H230733   0.273   4.589  18.806  0.9107  2.3394  2.6170
 2180TIP3   OH230734   5.531   2.414  19.074  0.0233  0.2704  0.1019
 2180TIP3    H130735   5.546   2.322  19.098 -1.8285 -0.1718 -0.3045
 2180TIP3    H230736   5.439   2.430  19.095 -0.3912  1.2679 -2.1733
 2181TIP3   OH230737   0.094   2.416  17.916 -0.3975  0.3367 -0.4667
 2181TIP3    H130738   0.023   2.440  17.857 -2.1344 -1.6653  0.6620
 2181TIP3    H230739   0.101   2.321  17.907  0.6427  0.2330  1.0630
 2182TIP3   OH230740   4.982   2.046  18.385  0.4423  0.0054 -0.3380
 2182TIP3    H130741   4.889   2.062  18.374  0.5467  0.8143 -0.0910
 2182TIP3    H230742   4.994   2.032  18.479  0.4355 -1.0572 -0.4817
 2183TIP3   OH230743   2.237   5.856  18.627  0.3559 -0.1043  0.2283
 2183TIP3    H130744   2.245   5.840  18.532  0.7544 -0.8040  0.3703
 2183TIP3    H230745   2.280   5.781  18.667  0.1477  0.1679  0.9726
 2184TIP3   OH230746   4.362   4.964  19.015  0.2307  0.1613 -0.1210
 2184TIP3    H130747   4.448   4.982  19.052  0.3504 -1.0045  0.2068
 2184TIP3    H230748   4.365   5.001  18.927  0.9963  0.2877 -0.0447
 2185TIP3   OH230749   3.246   1.352  19.835 -0.2687 -0.3745  0.8686
 2185TIP3    H130750   3.329   1.347  19.788 -1.0425 -2.2573 -0.4585
 2185TIP3    H230751   3.267   1.324  19.924  0.4423 -1.5286  0.3685
 2186TIP3   OH230752   2.693   4.532  19.234 -0.4308  0.5665  0.6110
 2186TIP3    H130753   2.760   4.601  19.242  0.5484 -0.4362  1.3929
 2186TIP3    H230754   2.615   4.569  19.275 -0.6565  2.0966 -1.0834
 2187TIP3   OH230755   4.445   6.062  19.321 -0.6239 -0.4923 -0.7392
 2187TIP3    H130756   4.387   5.987  19.314  0.4613 -1.3117 -1.1172
 2187TIP3    H230757   4.502   6.057  19.245  0.1058  0.1635 -0.2577
 2188TIP3   OH230758   4.741   4.188  18.722  0.1306  0.3807  0.5546
 2188TIP3    H130759   4.707   4.272  18.754  0.0253  0.7422 -0.4870
 2188TIP3    H230760   4.730   4.192  18.627 -1.5345 -1.5224  0.6029
 2189TIP3   OH230761   1.792   2.347  19.698 -0.0531  0.5820 -0.3443
 2189TIP3    H130762   1.861   2.319  19.758 -1.1642 -0.5128  0.4855
 2189TIP3    H230763   1.838   2.368  19.616  1.0632 -2.6286 -0.6947
 2190TIP3   OH230764   5.927   1.623  19.531 -0.0898  0.4166 -0.1221
 2190TIP3    H130765   6.005   1.673  19.507 -0.9932  0.9491 -2.2073
 2190TIP3    H230766   5.858   1.689  19.538 -0.8741 -0.2958 -0.8841
 2191TIP3   OH230767   2.188   3.429  20.657  0.4615 -0.3390 -0.1153
 2191TIP3    H130768   2.229   3.510  20.627  0.3985 -0.2975 -0.0906
 2191TIP3    H230769   2.229   3.411  20.742 -0.5341  0.4290  0.5476
 2192TIP3   OH230770   5.018   0.539  19.443  0.0703  0.1728 -0.2698
 2192TIP3    H130771   5.036   0.572  19.355 -0.1796 -1.3636 -0.9255
 2192TIP3    H230772   5.061   0.454  19.446 -1.4415 -0.6038  0.4567
 2193TIP3   OH230773   0.693   2.908  17.174 -0.1992  0.1499 -0.3061
 2193TIP3    H130774   0.774   2.894  17.224 -0.7687 -1.1127  0.2837
 2193TIP3    H230775   0.710   2.988  17.124  1.1037  0.3685  0.4423
 2194TIP3   OH230776   1.031   6.474  19.342  0.5349  0.0093  0.3391
 2194TIP3    H130777   1.035   6.383  19.314  0.8488  0.3811 -0.8983
 2194TIP3    H230778   1.062   6.473  19.432  1.6036 -0.9601 -0.0195
 2195TIP3   OH230779   2.754   3.031  19.670 -0.1473 -0.0967  0.2816
 2195TIP3    H130780   2.715   3.103  19.621  0.9754 -0.1274 -0.6893
 2195TIP3    H230781   2.686   2.964  19.672 -1.0298  0.7836  0.7823
 2196TIP3   OH230782   3.814   3.262  19.663  0.0227 -0.5311  0.2574
 2196TIP3    H130783   3.749   3.204  19.624  0.7207 -1.5270  0.5609
 2196TIP3    H230784   3.883   3.204  19.694  0.8918  0.4838  0.2705
 2197TIP3   OH230785   1.087   6.381  16.910  0.3187  0.4094  0.5289
 2197TIP3    H130786   1.004   6.427  16.897  0.0256 -0.2518  0.0438
 2197TIP3    H230787   1.116   6.357  16.822  1.2311  0.9757  0.6536
 2198TIP3   OH230788   0.247   1.475  16.974 -0.2187 -0.1738  0.4567
 2198TIP3    H130789   0.310   1.539  17.009  1.2280 -0.8836 -0.7544
 2198TIP3    H230790   0.251   1.487  16.879 -1.6101 -0.5466  0.3269
 2199TIP3   OH230791   3.630   1.037  17.811  0.3700  0.4190  0.5182
 2199TIP3    H130792   3.542   1.043  17.776 -0.2517 -0.1588  1.9235
 2199TIP3    H230793   3.683   1.093  17.754 -0.7776  0.2956 -0.6890
 2200TIP3   OH230794   6.617   1.620  19.315  0.0812 -0.2637 -0.2417
 2200TIP3    H130795   6.658   1.570  19.386 -0.1542  0.8206  0.6886
 2200TIP3    H230796   6.524   1.624  19.340 -0.2959 -1.1434 -1.3991
 2201TIP3   OH230797   4.984   1.951  17.954  0.1158 -0.1693 -0.3670
 2201TIP3    H130798   4.951   2.033  17.918 -2.3880 -0.2106  1.6047
 2201TIP3    H230799   5.044   1.979  18.024 -0.2738  0.0008 -0.0936
 2202TIP3   OH230800   5.938   2.574  16.415  0.0390  0.3266  0.2467
 2202TIP3    H130801   6.031   2.573  16.435 -0.0399 -0.2822  0.6126
 2202TIP3    H230802   5.914   2.667  16.416  0.6406  0.4884  0.1217
 2203TIP3   OH230803   1.133   1.369  17.922  0.1715  0.1900 -0.1691
 2203TIP3    H130804   1.081   1.335  17.849  0.7261 -1.3505  0.1320
 2203TIP3    H230805   1.204   1.417  17.880  0.0391 -0.0092 -0.6295
 2204TIP3   OH230806   0.981   4.588  18.419  0.0674  0.2481  0.3048
 2204TIP3    H130807   1.056   4.642  18.393  0.7680 -1.2222 -0.8804
 2204TIP3    H230808   1.001   4.561  18.509 -0.5886  2.3685  1.1612
 2205TIP3   OH230809   4.365   2.714  18.503 -0.0136  0.2781 -0.6567
 2205TIP3    H130810   4.372   2.809  18.491 -1.7125  0.4541 -0.4921
 2205TIP3    H230811   4.454   2.682  18.492  0.8924  2.0600  0.7959
 2206TIP3   OH230812   2.445   2.479  19.367 -0.2905  0.4506 -0.1401
 2206TIP3    H130813   2.497   2.461  19.288  0.6777  0.2154  0.5375
 2206TIP3    H230814   2.451   2.399  19.419  0.4847  1.1907  0.9428
 2207TIP3   OH230815   3.127   3.264  18.143  0.3244 -0.9601  0.1976
 2207TIP3    H130816   3.063   3.193  18.145  0.0438 -0.8953 -2.5893
 2207TIP3    H230817   3.084   3.337  18.186 -0.9871 -1.3198 -0.4412
 2208TIP3   OH230818   2.710   2.826  18.268  0.1963  0.2363 -0.3096
 2208TIP3    H130819   2.645   2.845  18.336  0.5238  1.2315 -0.2563
 2208TIP3    H230820   2.679   2.746  18.226  1.0049 -1.5737  2.2769
 2209TIP3   OH230821   5.974   4.146  19.960  0.0497  0.0143  0.2349
 2209TIP3    H130822   6.042   4.204  19.994  0.3383  0.6747 -1.3872
 2209TIP3    H230823   5.910   4.140  20.031 -0.3789  2.9515  0.2208
 2210TIP3   OH230824   2.927   1.981  19.247 -0.2031 -0.2336  0.1822
 2210TIP3    H130825   2.873   1.969  19.169 -0.7206 -0.3070  0.5428
 2210TIP3    H230826   3.013   2.005  19.214 -0.1664 -1.1840 -0.4376
 2211TIP3   OH230827   5.196   5.240  18.755  0.0223  0.0571 -0.0066
 2211TIP3    H130828   5.197   5.265  18.847 -1.4495 -0.9656  0.3133
 2211TIP3    H230829   5.169   5.148  18.755  0.1159  0.0058 -1.4565
 2212TIP3   OH230830   0.226   0.073  19.420  0.3712  0.4303  0.2085
 2212TIP3    H130831   0.135   0.060  19.395  0.4561  0.3383 -0.0619
 2212TIP3    H230832   0.259  -0.016  19.437  0.8913  0.2815 -1.4192
 2213TIP3   OH230833   0.116   1.803  19.637 -0.3075  0.0023  0.7739
 2213TIP3    H130834   0.200   1.758  19.633 -0.1648  0.2894  0.4343
 2213TIP3    H230835   0.137   1.894  19.617 -0.8315 -0.0995 -0.3337
 2214TIP3   OH230836   2.602   1.927  19.602 -0.1886  0.2470 -0.3445
 2214TIP3    H130837   2.590   2.009  19.555 -1.4127  1.6738  2.2621
 2214TIP3    H230838   2.656   1.950  19.677  0.9211 -1.7473 -0.4663
 2215TIP3   OH230839   1.030   4.663  19.847  0.3449 -0.0548 -0.8266
 2215TIP3    H130840   1.005   4.576  19.815 -0.5118 -0.2979  0.4654
 2215TIP3    H230841   1.126   4.660  19.849  0.3384 -0.8862 -1.0375
 2216TIP3   OH230842   3.420   5.981  18.156 -0.7342 -0.5023  0.0812
 2216TIP3    H130843   3.458   6.066  18.179  0.1182 -1.0222  0.6546
 2216TIP3    H230844   3.328   5.990  18.179 -0.5279  0.0675  0.7287
 2217TIP3   OH230845   0.814   3.211  19.568  0.2164  0.1638  0.7392
 2217TIP3    H130846   0.788   3.254  19.649 -2.4302  0.1848 -0.0278
 2217TIP3    H230847   0.771   3.125  19.570  0.4946 -0.0302 -0.4162
 2218TIP3   OH230848   5.690   2.897  19.772 -0.0717  0.1139  0.0348
 2218TIP3    H130849   5.763   2.941  19.729  0.1490  0.6420  0.9364
 2218TIP3    H230850   5.655   2.961  19.833 -1.6314  0.0416 -0.7390
 2219TIP3   OH230851   1.540   4.711  16.903  0.0632  0.1458  0.3133
 2219TIP3    H130852   1.629   4.680  16.886  0.5299  1.1377  0.8485
 2219TIP3    H230853   1.508   4.741  16.818  0.7094  0.9241  0.3351
 2220TIP3   OH230854   2.101   2.328  18.146 -0.2613 -0.0508  0.2482
 2220TIP3    H130855   2.159   2.346  18.072  0.9302 -0.4913  1.0510
 2220TIP3    H230856   2.117   2.401  18.207 -1.6729  0.6372 -0.1473
 2221TIP3   OH230857   6.165   5.860  19.053 -0.2457  0.2510  0.4836
 2221TIP3    H130858   6.109   5.903  18.988 -0.3672 -2.9794 -1.7429
 2221TIP3    H230859   6.109   5.849  19.130 -1.2402  0.9935 -0.1116
 2222TIP3   OH230860   3.616   2.071  19.253  0.3886 -0.2635  0.2005
 2222TIP3    H130861   3.661   1.994  19.217  1.6216  0.5064  0.0611
 2222TIP3    H230862   3.529   2.069  19.211 -0.0020 -2.1475  0.9886
 2223TIP3   OH230863   2.440   0.849  19.671  0.7378  0.3824  0.3787
 2223TIP3    H130864   2.451   0.917  19.605 -1.0423 -0.2415 -0.6425
 2223TIP3    H230865   2.369   0.881  19.727  1.0309  0.1201  0.9094
 2224TIP3   OH230866   5.927   5.967  17.132 -0.1740 -0.1914 -0.3827
 2224TIP3    H130867   6.001   5.929  17.084  0.3852  1.2165 -0.6869
 2224TIP3    H230868   5.871   6.004  17.064  0.6339  1.8428  0.0031
 2225TIP3   OH230869   6.067   1.760  18.458  0.2526 -0.2845  0.1529
 2225TIP3    H130870   6.146   1.784  18.506  2.0884 -0.7100 -2.4792
 2225TIP3    H230871   6.036   1.681  18.503  1.6210 -0.4269  0.9115
 2226TIP3   OH230872   3.609   3.784  19.201 -1.0849 -0.7219  0.7013
 2226TIP3    H130873   3.632   3.785  19.108 -2.6071 -1.2382  0.2845
 2226TIP3    H230874   3.658   3.856  19.239 -0.5581 -0.4056 -0.5370
 2227TIP3   OH230875   3.475   5.396  18.369  0.3198  0.2017  0.1296
 2227TIP3    H130876   3.423   5.394  18.449  0.4375  1.6296  0.2789
 2227TIP3    H230877   3.418   5.437  18.304  1.0253  1.2797  0.1486
 2228TIP3   OH230878   6.437   0.901  16.968 -0.0704  0.5172 -0.1180
 2228TIP3    H130879   6.476   0.843  17.033 -1.1940  0.2204  0.3108
 2228TIP3    H230880   6.359   0.855  16.937  0.0568  0.9691 -1.1599
 2229TIP3   OH230881   0.276   2.552  18.046 -0.2208 -0.5419 -0.3742
 2229TIP3    H130882   0.331   2.476  18.065 -0.1798 -0.4609 -0.1653
 2229TIP3    H230883   0.205   2.517  17.992 -0.1371 -0.7052 -0.3806
 2230TIP3   OH230884   1.018   1.787  17.401 -0.0751 -0.2532  0.7295
 2230TIP3    H130885   1.112   1.795  17.416  0.3238 -0.3644 -1.3707
 2230TIP3    H230886   1.005   1.694  17.381 -0.0635  0.2198 -1.8856
 2231TIP3   OH230887   6.531   1.990  17.726  0.0711 -0.1643 -0.2253
 2231TIP3    H130888   6.552   1.898  17.745  1.4286  0.6284  2.4956
 2231TIP3    H230889   6.437   1.997  17.744 -0.0496 -1.0004 -0.4732
 2232TIP3   OH230890   3.633   5.069  19.914  0.5179  0.2529 -0.5214
 2232TIP3    H130891   3.569   4.998  19.924 -1.4513  1.9070 -0.5564
 2232TIP3    H230892   3.641   5.082  19.819 -1.1784  1.7071 -0.5312
 2233TIP3   OH230893   2.211   0.913  19.811  0.3825  0.1784 -0.0506
 2233TIP3    H130894   2.247   0.999  19.835 -0.0262 -0.3529  2.8479
 2233TIP3    H230895   2.139   0.900  19.872 -0.1893 -1.8187 -1.0967
 2234TIP3   OH230896   0.591   4.137  17.351 -0.3143  0.2818 -0.0207
 2234TIP3    H130897   0.607   4.043  17.346  1.0772  0.4952 -0.0389
 2234TIP3    H230898   0.668   4.177  17.310 -0.2067  1.4611  1.2519
 2235TIP3   OH230899   0.938   5.848  19.126  0.1368  0.2242  0.0604
 2235TIP3    H130900   0.975   5.780  19.069  0.8632  1.8208 -1.4808
 2235TIP3    H230901   0.978   5.832  19.211 -1.2214 -2.4459  0.2990
 2236TIP3   OH230902   1.527   6.337  17.486  0.3369  0.0408  0.0475
 2236TIP3    H130903   1.489   6.362  17.571 -0.9175  3.0623 -1.2462
 2236TIP3    H230904   1.618   6.367  17.490  0.2924  0.1370  0.3475
 2237TIP3   OH230905   2.199   1.452  17.564  0.3877 -0.1594  0.3355
 2237TIP3    H130906   2.273   1.414  17.515  0.6804  0.4864  0.2679
 2237TIP3    H230907   2.140   1.378  17.579  0.6103 -0.5030 -0.4185
 2238TIP3   OH230908   3.193   4.486  18.501 -0.0938 -0.3739 -0.2011
 2238TIP3    H130909   3.156   4.410  18.545  1.4536 -2.3722 -2.1254
 2238TIP3    H230910   3.240   4.450  18.426 -1.1869  2.6497 -2.5788
 2239TIP3   OH230911   5.904   5.989  19.803  0.1139  0.6458 -0.3030
 2239TIP3    H130912   5.819   6.025  19.829  0.3740  0.4310  0.9043
 2239TIP3    H230913   5.900   5.897  19.830 -0.5966 -0.3862 -3.4591
 2240TIP3   OH230914   4.339   3.189  19.315  0.0344 -0.2753 -0.0904
 2240TIP3    H130915   4.366   3.251  19.246  1.0210 -2.3320 -1.6579
 2240TIP3    H230916   4.340   3.241  19.395  3.3078  1.1951 -0.9103
 2241TIP3   OH230917   3.214   6.042  19.372 -0.4594  0.1663 -0.2595
 2241TIP3    H130918   3.187   6.099  19.445  1.1828 -0.8450  1.2083
 2241TIP3    H230919   3.134   5.993  19.350 -1.0870  0.7611  0.6069
 2242TIP3   OH230920   6.523   1.077  19.973  0.3856  0.2631  0.1036
 2242TIP3    H130921   6.556   1.086  20.062 -1.5044 -1.5676  1.0894
 2242TIP3    H230922   6.582   1.015  19.932  0.2926 -0.2026  0.6587
 2243TIP3   OH230923   0.995   4.730  18.034  0.0097  0.1401  0.4782
 2243TIP3    H130924   0.984   4.824  18.030 -0.1681  0.0900 -0.3872
 2243TIP3    H230925   1.057   4.710  17.963 -2.2336 -0.7078 -1.3943
 2244TIP3   OH230926   3.132   0.557  18.628 -0.0397 -0.0142 -0.0831
 2244TIP3    H130927   3.121   0.570  18.534  0.5438 -1.9791 -0.4714
 2244TIP3    H230928   3.099   0.638  18.667 -0.9458  0.5787 -1.9280
 2245TIP3   OH230929   4.375   0.547  20.037 -0.3111 -0.1039  0.4123
 2245TIP3    H130930   4.409   0.477  19.981 -1.9807 -0.9112  0.3570
 2245TIP3    H230931   4.367   0.622  19.978 -0.9831 -0.6253 -0.1873
 2246TIP3   OH230932   6.052   2.735  19.428  0.0491  0.4592 -0.2379
 2246TIP3    H130933   6.083   2.671  19.492 -0.7826 -1.7238 -1.8835
 2246TIP3    H230934   6.028   2.812  19.481 -1.8470 -1.6617  2.2773
 2247TIP3   OH230935   1.593   6.658  17.563 -0.2529  0.6045 -0.5953
 2247TIP3    H130936   1.643   6.578  17.577 -0.1456  0.6367 -0.7983
 2247TIP3    H230937   1.629   6.696  17.483 -3.1078 -1.3554 -3.0396
 2248TIP3   OH230938   4.442   1.923  19.027  0.2948  0.0889 -0.1092
 2248TIP3    H130939   4.421   1.972  18.947 -1.8232  1.5929  1.2798
 2248TIP3    H230940   4.381   1.849  19.026  0.8231 -0.3492 -0.2695
 2249TIP3   OH230941   3.830   3.623  19.416  0.3499  0.1163 -0.2978
 2249TIP3    H130942   3.798   3.562  19.350 -1.4114  0.8648 -0.2023
 2249TIP3    H230943   3.883   3.686  19.367  0.3815 -0.2419 -0.7296
 2250TIP3   OH230944   1.525   2.840  20.128 -0.1284  1.2779  0.0608
 2250TIP3    H130945   1.500   2.892  20.204  1.5994  0.1395  1.5024
 2250TIP3    H230946   1.619   2.824  20.140  0.0625  0.5168 -1.9967
 2251TIP3   OH230947   5.631   5.113  18.800 -0.4645  0.3554 -0.7210
 2251TIP3    H130948   5.689   5.189  18.802 -0.0464  0.0436 -0.8816
 2251TIP3    H230949   5.571   5.127  18.874  0.5622  0.1073  0.1874
 2252TIP3   OH230950   6.464   2.916  17.285 -0.0610  0.0898 -0.2558
 2252TIP3    H130951   6.428   2.998  17.318  0.1927 -0.7079  2.2586
 2252TIP3    H230952   6.401   2.850  17.313  0.1740 -0.6793 -1.4724
 2253TIP3   OH230953   0.336   0.363  20.228 -0.6551  0.2399 -0.8854
 2253TIP3    H130954   0.356   0.269  20.236 -0.4878  0.4633  2.3827
 2253TIP3    H230955   0.243   0.369  20.248 -0.0158  1.0082  2.3429
 2254TIP3   OH230956   2.394   1.781  19.213  0.4985  0.3460  0.3554
 2254TIP3    H130957   2.420   1.720  19.282  0.8614  0.0934  0.0030
 2254TIP3    H230958   2.401   1.867  19.253 -3.3453  0.1015  1.9921
 2255TIP3   OH230959   6.234   5.504  20.201  0.0072 -0.4400 -0.2431
 2255TIP3    H130960   6.220   5.422  20.247  0.9469 -0.7881 -0.5655
 2255TIP3    H230961   6.329   5.515  20.200  0.0110 -0.4345 -2.0760
 2256TIP3   OH230962   0.119   2.356  19.270 -0.2292  0.0259 -0.1486
 2256TIP3    H130963   0.078   2.287  19.323 -1.5592  0.9377  0.0434
 2256TIP3    H230964   0.209   2.326  19.259 -0.7796 -1.7807 -0.1208
 2257TIP3   OH230965   0.976   0.476  16.754 -0.1000  0.0703  0.2202
 2257TIP3    H130966   1.061   0.495  16.715  0.0911 -0.7223  0.2373
 2257TIP3    H230967   0.915   0.534  16.708  0.1897 -0.5281 -0.9644
 2258TIP3   OH230968   1.313   1.764  17.474  0.1419  0.0459  0.1802
 2258TIP3    H130969   1.360   1.744  17.393 -0.2119 -0.3660  0.0711
 2258TIP3    H230970   1.369   1.728  17.543  0.9058  1.2337  0.1966
 2259TIP3   OH230971   6.079   0.345  19.524 -0.4500 -0.5888  0.4490
 2259TIP3    H130972   6.091   0.251  19.533  0.7571 -0.6380 -1.3091
 2259TIP3    H230973   6.167   0.382  19.534 -1.0219  0.4872  2.0687
 2260TIP3   OH230974   1.511   4.952  19.057  0.3886  0.0904 -0.4766
 2260TIP3    H130975   1.461   4.979  18.980  2.0287 -0.5030 -1.8219
 2260TIP3    H230976   1.603   4.962  19.030  1.0252 -2.0571  0.6599
 2261TIP3   OH230977   6.418   2.958  19.225  0.0820 -0.1647 -0.0132
 2261TIP3    H130978   6.505   2.930  19.252  0.4247 -1.5296 -2.2471
 2261TIP3    H230979   6.434   3.026  19.159 -0.4062 -1.6232 -1.7196
 2262TIP3   OH230980   0.073   5.483  18.658 -0.1821 -0.0647  0.4295
 2262TIP3    H130981   0.044   5.459  18.746  1.8099 -2.1739  0.6058
 2262TIP3    H230982   0.111   5.402  18.623 -1.2295  0.6005 -2.5341
 2263TIP3   OH230983   5.724   1.799  19.498  0.1937 -0.1858 -0.6960
 2263TIP3    H130984   5.662   1.728  19.512  0.5441 -0.2604  0.5803
 2263TIP3    H230985   5.670   1.878  19.497 -0.0847 -0.3719 -1.1913
 2264TIP3   OH230986   2.631   3.250  19.508 -0.3485  0.2063 -0.1504
 2264TIP3    H130987   2.589   3.293  19.582 -1.2355 -0.6447 -0.1449
 2264TIP3    H230988   2.559   3.216  19.455  0.3077 -0.3716 -0.6955
 2265TIP3   OH230989   4.804   2.673  18.843  0.3452 -0.6752  0.6556
 2265TIP3    H130990   4.712   2.696  18.830  1.0860  1.5223 -1.7263
 2265TIP3    H230991   4.819   2.601  18.783  1.0602  1.8992 -2.5513
 2266TIP3   OH230992   5.480   2.427  20.039 -0.5765 -0.1640  0.1449
 2266TIP3    H130993   5.497   2.463  20.126  0.6088  0.0064 -0.1416
 2266TIP3    H230994   5.555   2.453  19.987 -1.8681  0.8363 -1.3071
 2267TIP3   OH230995   3.113   2.785  17.552  0.1143 -0.2487 -0.1018
 2267TIP3    H130996   3.050   2.829  17.495  1.2305  0.3886 -0.8857
 2267TIP3    H230997   3.061   2.749  17.623 -1.3063 -0.9004 -1.4274
 2268TIP3   OH230998   2.222   6.629  19.224 -0.0991 -0.4047  0.0628
 2268TIP3    H130999   2.264   6.638  19.309 -0.9843 -1.7404  0.6593
 2268TIP3    H231000   2.133   6.662  19.237  0.0607  0.3622 -0.6342
 2269TIP3   OH231001   2.036   3.277  16.770 -0.5759  0.7950  0.7092
 2269TIP3    H131002   2.106   3.322  16.818  0.3032 -1.3661  1.5571
 2269TIP3    H231003   2.075   3.257  16.685 -0.9286  1.4841  0.3748
 2270TIP3   OH231004   4.151   0.713  19.418  0.2183  0.1194 -0.8830
 2270TIP3    H131005   4.056   0.725  19.411  0.0093 -0.3701  0.7879
 2270TIP3    H231006   4.165   0.621  19.396 -0.2134 -0.8831  2.4476
 2271TIP3   OH231007   2.288   2.125  16.792  0.2254 -0.5753 -0.5560
 2271TIP3    H131008   2.212   2.075  16.763 -1.3826  0.1267  2.0269
 2271TIP3    H231009   2.265   2.216  16.772  0.6854 -0.4295 -0.4212
 2272TIP3   OH231010   1.952   2.420  17.156 -0.0821 -0.2886  0.0759
 2272TIP3    H131011   1.981   2.398  17.068 -2.1603  0.7011 -0.9135
 2272TIP3    H231012   1.863   2.385  17.162 -0.4138  0.7059  1.3570
 2273TIP3   OH231013   3.538   5.928  17.077 -0.3869 -0.2798 -0.0073
 2273TIP3    H131014   3.494   5.854  17.118  0.4416  0.1844  1.8291
 2273TIP3    H231015   3.598   5.889  17.015 -1.3472 -1.0353 -0.4879
 2274TIP3   OH231016   2.406   6.352  19.684 -0.2062  0.2175 -0.1479
 2274TIP3    H131017   2.450   6.407  19.619  0.0891  0.7320  0.4690
 2274TIP3    H231018   2.463   6.275  19.693  0.4025  0.7164  0.3876
 2275TIP3   OH231019   0.801   5.138  18.928  0.3464  0.6064 -0.4515
 2275TIP3    H131020   0.751   5.136  19.010  2.7085  0.0840  1.0672
 2275TIP3    H231021   0.828   5.047  18.914  0.9979  0.8973 -1.1443
 2276TIP3   OH231022   4.162   3.641  18.145 -0.5012 -0.0800  0.6909
 2276TIP3    H131023   4.237   3.697  18.159  0.4304 -1.4751  1.5123
 2276TIP3    H231024   4.099   3.696  18.099  1.0843  1.0638 -0.1997
 2277TIP3   OH231025   0.729   2.171  20.059  0.1844 -0.2875  0.1185
 2277TIP3    H131026   0.824   2.181  20.069  0.0484  0.9716  0.3789
 2277TIP3    H231027   0.695   2.259  20.074 -1.2322 -1.1280  2.3823
 2278TIP3   OH231028   5.394   1.510  17.367  0.4948  0.8209 -0.0796
 2278TIP3    H131029   5.370   1.437  17.310  1.1837 -0.0989  0.7786
 2278TIP3    H231030   5.465   1.554  17.321 -1.1974  2.1761 -1.5350
 2279TIP3   OH231031   6.355   2.420  17.927  0.0374 -0.1583  0.2381
 2279TIP3    H131032   6.368   2.341  17.978 -0.6061 -0.2835  0.2150
 2279TIP3    H231033   6.367   2.393  17.836 -1.9360 -0.6366  0.0834
 2280TIP3   OH231034   1.281   1.295  19.763  0.5971  0.5676 -0.2605
 2280TIP3    H131035   1.361   1.242  19.755  1.4179  1.7290 -0.0031
 2280TIP3    H231036   1.304   1.379  19.724  0.2946  1.7603  1.9688
 2281TIP3   OH231037   3.216   5.314  18.227 -0.1891  0.9104  0.5912
 2281TIP3    H131038   3.253   5.339  18.143 -3.9142  0.5619 -1.3596
 2281TIP3    H231039   3.260   5.232  18.250 -0.6025 -0.1944 -2.2069
 2282TIP3   OH231040   2.156   5.261  19.436 -0.4278  0.2701  0.1366
 2282TIP3    H131041   2.244   5.298  19.436 -0.4012  0.2075  0.0861
 2282TIP3    H231042   2.131   5.258  19.344  0.3805 -1.7504 -0.0806
 2283TIP3   OH231043   0.399   6.494  18.087 -0.1496  0.4411  0.3910
 2283TIP3    H131044   0.323   6.453  18.129  0.8120 -0.9433  0.8338
 2283TIP3    H231045   0.458   6.515  18.160  0.3712  0.4986 -0.0431
 2284TIP3   OH231046   0.715   6.156  17.748 -0.2913  0.4337  0.0761
 2284TIP3    H131047   0.808   6.155  17.770 -0.6392 -1.7684  1.8251
 2284TIP3    H231048   0.674   6.204  17.820 -0.6929 -0.5060  0.4955
 2285TIP3   OH231049   5.572   5.668  16.592  0.1063  0.2074  0.2817
 2285TIP3    H131050   5.521   5.692  16.515 -1.1002 -0.1243  0.9413
 2285TIP3    H231051   5.511   5.617  16.646  1.4086 -0.9644  0.7043
 2286TIP3   OH231052   0.240   2.523  17.685  0.5694  0.1936 -0.3284
 2286TIP3    H131053   0.182   2.479  17.748 -2.0483  2.6751 -0.7815
 2286TIP3    H231054   0.325   2.528  17.729 -0.9746  1.3136  2.8704
 2287TIP3   OH231055   3.058   0.315  19.658  0.4045 -0.3009  0.1755
 2287TIP3    H131056   2.983   0.369  19.685 -1.4820 -3.0457  0.7656
 2287TIP3    H231057   3.132   0.376  19.659 -1.8914  2.7996 -1.3820
 2288TIP3   OH231058   0.866   5.566  18.088 -0.3383 -0.3112  0.1720
 2288TIP3    H131059   0.853   5.474  18.066 -0.5004 -0.3898  0.5959
 2288TIP3    H231060   0.959   5.582  18.071 -0.6381 -0.1130 -1.5043
 2289TIP3   OH231061   1.925   1.125  18.818  0.6552  0.2617 -0.3542
 2289TIP3    H131062   1.987   1.058  18.787  0.7703 -0.3476  1.0914
 2289TIP3    H231063   1.840   1.081  18.816  0.3027  0.9347 -1.8438
 2290TIP3   OH231064   5.104   3.440  17.767 -0.5975 -0.2238  0.6929
 2290TIP3    H131065   5.058   3.383  17.829 -2.3766  1.4212  0.9783
 2290TIP3    H231066   5.132   3.515  17.819  1.2249 -0.5137  0.2139
 2291TIP3   OH231067   4.969   5.028  18.434 -0.0118 -0.1685  0.1326
 2291TIP3    H131068   5.058   4.992  18.432  0.6649  1.2816  1.5234
 2291TIP3    H231069   4.981   5.118  18.462 -1.8931  0.2604 -0.3287
 2292TIP3   OH231070   3.839   5.492  17.585 -0.9128  0.6666 -0.9010
 2292TIP3    H131071   3.797   5.423  17.635 -1.2631 -1.2083 -3.6010
 2292TIP3    H231072   3.931   5.487  17.610 -1.2046  0.4098  0.1791
 2293TIP3   OH231073   0.414   1.514  17.535  0.2689 -0.0919 -0.1243
 2293TIP3    H131074   0.393   1.590  17.481 -1.9276 -0.9761 -0.6081
 2293TIP3    H231075   0.458   1.454  17.474  1.1736  0.3790  0.0372
 2294TIP3   OH231076   4.615   2.768  19.983 -0.4400  0.1100 -0.3244
 2294TIP3    H131077   4.636   2.821  19.906 -0.9020  1.4914  0.4696
 2294TIP3    H231078   4.652   2.817  20.057 -1.6351 -0.2166  0.5174
 2295TIP3   OH231079   1.526   1.203  18.904  0.4765  0.4681 -0.6030
 2295TIP3    H131080   1.441   1.168  18.879 -0.3434  1.5854  0.4574
 2295TIP3    H231081   1.583   1.127  18.912 -0.6100 -0.3615 -0.6782
 2296TIP3   OH231082   0.530   1.210  19.831  0.1002  0.5388 -0.2765
 2296TIP3    H131083   0.591   1.136  19.826  0.7479  0.9279  1.2886
 2296TIP3    H231084   0.579   1.283  19.793  0.2405  0.6196  0.0533
 2297TIP3   OH231085   1.693   6.372  17.865 -0.2949  0.1022 -0.6447
 2297TIP3    H131086   1.729   6.348  17.779 -1.4581 -0.2824 -1.0529
 2297TIP3    H231087   1.608   6.411  17.844 -0.0166  1.2132  0.2658
 2298TIP3   OH231088   6.527   2.189  20.496  0.2872 -0.1928 -0.0654
 2298TIP3    H131089   6.457   2.185  20.431 -1.2890 -0.7709  1.5576
 2298TIP3    H231090   6.515   2.273  20.540  1.6582  0.4265 -0.8037
 2299TIP3   OH231091   1.365   5.522  17.422  0.4310 -0.1615 -0.5270
 2299TIP3    H131092   1.397   5.549  17.336 -0.7113 -0.2986 -1.0026
 2299TIP3    H231093   1.300   5.455  17.404 -2.5081  2.2647  0.1674
 2300TIP3   OH231094   1.461   1.787  19.642  0.0714  0.0584  0.0928
 2300TIP3    H131095   1.400   1.833  19.585  0.6339  1.8379  0.8715
 2300TIP3    H231096   1.526   1.853  19.667  2.1308 -1.6431 -0.3979
 2301TIP3   OH231097   6.147   5.880  19.764  0.4201 -0.7179  0.3155
 2301TIP3    H131098   6.082   5.826  19.720  0.7881  0.1363 -1.3857
 2301TIP3    H231099   6.096   5.946  19.811  0.0200 -1.3189  0.7312
 2302TIP3   OH231100   0.133   2.315  18.720  0.2788  0.2373  0.7824
 2302TIP3    H131101   0.204   2.317  18.655 -0.5494  1.8979 -0.1418
 2302TIP3    H231102   0.179   2.313  18.804  1.4305  0.5427  0.1935
 2303TIP3   OH231103   4.729   0.499  17.156 -0.4863 -0.2654 -0.0677
 2303TIP3    H131104   4.755   0.534  17.241 -2.7136  1.5994 -0.0944
 2303TIP3    H231105   4.646   0.455  17.172  0.0180 -1.6210 -0.9545
 2304TIP3   OH231106   1.998   3.848  17.317  0.0866  0.3578  0.2212
 2304TIP3    H131107   1.948   3.822  17.240 -0.3559  0.0076  0.6248
 2304TIP3    H231108   1.995   3.772  17.375  2.6245 -0.3873 -0.4841
 2305TIP3   OH231109   3.842   2.413  19.389  0.2037 -0.0807  0.0426
 2305TIP3    H131110   3.835   2.496  19.435  1.7747  1.3550 -2.0987
 2305TIP3    H231111   3.897   2.359  19.446 -1.3744  0.0396  1.7672
 2306TIP3   OH231112   3.735   1.788  17.943  0.6596 -0.2511 -0.3310
 2306TIP3    H131113   3.716   1.859  17.882  1.4810  0.5358  0.3055
 2306TIP3    H231114   3.748   1.712  17.887  1.9622  0.5720 -1.2049
 2307TIP3   OH231115   5.780   1.092  17.166  0.0433 -0.1576 -0.5414
 2307TIP3    H131116   5.763   1.032  17.094  1.7965  0.3019 -1.4007
 2307TIP3    H231117   5.703   1.149  17.169 -0.0418 -0.1490 -2.1177
 2308TIP3   OH231118   2.238   4.758  20.262 -0.0386 -0.1750 -0.2618
 2308TIP3    H131119   2.324   4.785  20.230 -1.0168  2.1703 -1.0836
 2308TIP3    H231120   2.221   4.675  20.216  1.0817  0.1666 -1.3626
 2309TIP3   OH231121   4.883   0.371  18.146  0.0446  0.2742  0.2076
 2309TIP3    H131122   4.790   0.388  18.158  0.0406  0.9377 -0.7011
 2309TIP3    H231123   4.927   0.444  18.190  0.1811 -0.5809  1.5498
 2310TIP3   OH231124   0.172   3.558  19.494 -0.2961 -0.2290  0.3034
 2310TIP3    H131125   0.092   3.589  19.537 -0.3113  0.5030 -0.2348
 2310TIP3    H231126   0.141   3.491  19.432 -0.6068  0.6415 -0.5046
 2311TIP3   OH231127   5.404   3.887  19.884 -0.5926 -0.3382 -0.9658
 2311TIP3    H131128   5.485   3.843  19.859 -0.1607 -0.0919 -0.0238
 2311TIP3    H231129   5.415   3.977  19.852  0.0212  0.0158  0.1888
 2312TIP3   OH231130   1.559   2.822  17.366 -0.3260 -0.9941  0.1037
 2312TIP3    H131131   1.472   2.842  17.333  0.6914  2.2493 -1.0373
 2312TIP3    H231132   1.592   2.753  17.307 -1.6047 -1.2942 -0.2894
 2313TIP3   OH231133   2.973   4.516  19.439 -0.0003 -0.0492  0.0288
 2313TIP3    H131134   3.043   4.473  19.390 -1.1335 -1.2893 -0.5681
 2313TIP3    H231135   2.953   4.455  19.510 -1.4170 -0.4054 -0.6393
 2314TIP3   OH231136   4.889   2.986  17.856 -0.1649  0.2710 -0.8307
 2314TIP3    H131137   4.980   2.996  17.882 -0.0633  0.0757 -1.1124
 2314TIP3    H231138   4.890   2.920  17.787 -0.3873  0.9979 -1.5526
 2315TIP3   OH231139   6.222   4.782  19.686  0.0438  0.0246  0.1872
 2315TIP3    H131140   6.303   4.747  19.723  2.5525  3.7545 -1.1068
 2315TIP3    H231141   6.244   4.803  19.595 -3.0004 -0.4291 -0.7661
 2316TIP3   OH231142   5.314   6.431  17.301 -0.2390  0.0221  0.0778
 2316TIP3    H131143   5.256   6.487  17.353 -1.6850 -0.5193 -0.8866
 2316TIP3    H231144   5.309   6.468  17.212 -0.6953 -1.2175 -0.4289
 2317TIP3   OH231145   3.532   4.899  17.911 -0.4254 -0.2288  0.1581
 2317TIP3    H131146   3.553   4.992  17.905  0.8077 -0.3319  1.9440
 2317TIP3    H231147   3.599   4.856  17.858  0.9775 -0.2438  1.8539
 2318TIP3   OH231148   6.437   4.792  16.951 -0.1004  0.3344  0.9441
 2318TIP3    H131149   6.399   4.860  17.007 -0.2195 -2.9078  5.2942
 2318TIP3    H231150   6.524   4.825  16.929 -0.7239  2.5035  1.4612
 2319TIP3   OH231151   6.606   3.479  18.385 -0.2518 -0.1105 -0.8877
 2319TIP3    H131152   6.549   3.553  18.367  0.0580  0.9718  2.1300
 2319TIP3    H231153   6.556   3.422  18.444  0.8974 -0.3097 -0.0547
 2320TIP3   OH231154   5.611   1.094  17.408 -0.3187  0.0314 -0.5576
 2320TIP3    H131155   5.674   1.052  17.350 -1.3341 -0.3578 -1.4117
 2320TIP3    H231156   5.563   1.021  17.447 -0.6537  0.3408 -0.3893
 2321TIP3   OH231157   1.590   4.558  17.236 -0.2973  0.1568 -0.0525
 2321TIP3    H131158   1.518   4.555  17.298 -0.3322 -0.5773 -0.1145
 2321TIP3    H231159   1.667   4.577  17.289 -0.2000 -1.2664  0.3562
 2322TIP3   OH231160   5.746   0.286  19.438 -0.0213  0.0058  0.2811
 2322TIP3    H131161   5.698   0.265  19.358 -0.9002  0.8713  0.5604
 2322TIP3    H231162   5.763   0.202  19.479 -3.0228 -0.3100  1.1380
 2323TIP3   OH231163   0.786   2.933  20.211 -0.5607 -0.3385  0.5758
 2323TIP3    H131164   0.873   2.929  20.249 -0.0763  1.5003 -0.2415
 2323TIP3    H231165   0.755   2.843  20.213  1.4220 -1.0635  0.7243
 2324TIP3   OH231166   1.333   2.083  18.168  0.2949  0.7178  0.4490
 2324TIP3    H131167   1.303   2.057  18.255 -1.1761 -0.9207 -0.4826
 2324TIP3    H231168   1.253   2.105  18.121  0.8140 -0.5220 -1.1153
 2325TIP3   OH231169   1.505   2.311  19.833 -0.0270 -0.1689 -0.0536
 2325TIP3    H131170   1.583   2.334  19.885  0.4468  0.9340 -1.1957
 2325TIP3    H231171   1.538   2.255  19.763 -0.8017 -2.3818  1.2533
 2326TIP3   OH231172   2.168   0.947  19.071  0.1789  0.1728  0.2246
 2326TIP3    H131173   2.138   1.026  19.027  2.5794  0.7018 -0.6121
 2326TIP3    H231174   2.172   0.971  19.164 -3.7877 -0.5928  0.7609
 2327TIP3   OH231175   2.723   2.036  17.090  0.5804  0.0596 -0.5672
 2327TIP3    H131176   2.644   2.084  17.066 -0.0846 -0.6741  0.1086
 2327TIP3    H231177   2.794   2.081  17.043 -0.3258  0.2800 -1.7596
 2328TIP3   OH231178   2.971   5.221  18.149 -0.1984 -0.2181  0.1514
 2328TIP3    H131179   2.990   5.165  18.074  0.3475  1.7675 -1.3032
 2328TIP3    H231180   3.058   5.241  18.186 -0.3766 -0.3047  0.6169
 2329TIP3   OH231181   4.822   1.621  19.845 -0.2661  0.6413 -0.1524
 2329TIP3    H131182   4.912   1.649  19.831  1.2997 -2.8611  1.7521
 2329TIP3    H231183   4.796   1.667  19.925  0.3846  0.5221  0.1351
 2330TIP3   OH231184   2.266   3.790  19.725 -1.1688 -0.5666 -0.1816
 2330TIP3    H131185   2.306   3.859  19.672 -1.2280  0.5631  1.1809
 2330TIP3    H231186   2.174   3.788  19.696 -0.9847 -0.6141 -0.7693
 2331TIP3   OH231187   3.321   0.042  18.982 -0.3191  0.2365 -0.2875
 2331TIP3    H131188   3.263   0.047  19.057  2.4947  0.6351  2.0239
 2331TIP3    H231189   3.333  -0.052  18.967 -0.8636  0.1589 -0.2415
 2332TIP3   OH231190   4.453   4.237  19.115 -0.4598 -0.1053  0.8182
 2332TIP3    H131191   4.470   4.329  19.137 -0.7471  0.7275 -2.0649
 2332TIP3    H231192   4.538   4.194  19.125  0.1451  0.9237  0.2196
 2333TIP3   OH231193   0.710   3.617  17.392  0.3915 -0.1463  0.4229
 2333TIP3    H131194   0.738   3.567  17.468  0.8652  0.1431  0.4394
 2333TIP3    H231195   0.675   3.551  17.331  0.6240 -0.4477  0.6147
 2334TIP3   OH231196   0.156   6.359  16.678  0.3688 -1.0833  0.5117
 2334TIP3    H131197   0.244   6.396  16.680  0.6107 -1.5878 -0.3082
 2334TIP3    H231198   0.099   6.434  16.664  0.7270 -0.8436  0.3039
 2335TIP3   OH231199   1.089   1.654  16.438  0.0602  0.5298 -0.0744
 2335TIP3    H131200   1.057   1.563  16.434  1.1920  0.0589  1.0713
 2335TIP3    H231201   1.040   1.699  16.369  0.4358 -1.2418 -1.5882
 2336TIP3   OH231202   4.772   4.860  17.961  0.4853  0.2825  0.4963
 2336TIP3    H131203   4.829   4.894  18.030  1.5010 -1.7208  0.7021
 2336TIP3    H231204   4.794   4.768  17.954 -0.0492  0.2652 -2.0728
 2337TIP3   OH231205   0.122   5.954  18.115 -0.6149 -0.0108 -0.1351
 2337TIP3    H131206   0.138   6.022  18.049 -2.8730  1.7856  1.0032
 2337TIP3    H231207   0.196   5.961  18.175 -0.7479  1.4301 -0.0898
 2338TIP3   OH231208   0.640   2.190  19.787  0.2099 -0.2842 -0.5157
 2338TIP3    H131209   0.684   2.189  19.702 -0.1428  0.4791 -0.7117
 2338TIP3    H231210   0.702   2.146  19.846  1.3347  0.8939 -0.7601
 2339TIP3   OH231211   0.385   4.766  17.668 -0.2099  0.2020  0.6283
 2339TIP3    H131212   0.344   4.756  17.754  1.0052 -1.0763  1.1041
 2339TIP3    H231213   0.414   4.677  17.645  0.9659  0.8032 -0.3219
 2340TIP3   OH231214   4.260   2.822  17.170 -0.1199 -0.3354  0.0777
 2340TIP3    H131215   4.197   2.887  17.141  1.8567  1.0394 -1.4185
 2340TIP3    H231216   4.345   2.866  17.164  1.0449 -2.1465  1.8044
 2341TIP3   OH231217   1.218   0.050  17.498 -0.5075 -0.2263 -0.4017
 2341TIP3    H131218   1.266   0.024  17.419 -0.8756 -1.2578 -0.3065
 2341TIP3    H231219   1.218  -0.029  17.552  1.0007  0.8540  1.2898
 2342TIP3   OH231220   0.057   0.468  19.879  0.6056  0.7201  0.6105
 2342TIP3    H131221   0.046   0.476  19.784  0.4869  1.5319  0.6867
 2342TIP3    H231222   0.086   0.554  19.908  0.7599  0.4476  1.3023
 2343TIP3   OH231223   0.386   3.580  20.179 -0.4530  0.2118  0.3785
 2343TIP3    H131224   0.370   3.664  20.137 -0.1463 -0.1728 -0.5361
 2343TIP3    H231225   0.304   3.559  20.223 -0.9893  0.3479 -0.5315
 2344TIP3   OH231226   1.466   2.002  17.940  0.3464  0.1465  0.3238
 2344TIP3    H131227   1.424   2.047  18.013  0.6614  2.7076 -0.9512
 2344TIP3    H231228   1.558   1.998  17.965  0.5169  1.3487 -0.0111
 2345TIP3   OH231229   0.712   1.191  19.409  0.2259  0.2967 -0.0880
 2345TIP3    H131230   0.739   1.165  19.497  0.3525  0.8559  0.0357
 2345TIP3    H231231   0.692   1.284  19.416 -2.1955 -0.1561 -0.0458
 2346TIP3   OH231232   1.478   4.728  17.978 -0.1599 -0.5509  0.5397
 2346TIP3    H131233   1.463   4.810  18.024  0.8087 -0.7090  1.1659
 2346TIP3    H231234   1.434   4.739  17.894 -1.1888  0.0838  1.1437
 2347TIP3   OH231235   2.100   1.526  18.690 -0.3943 -0.7045 -0.2887
 2347TIP3    H131236   2.100   1.478  18.772 -0.1402  0.7832  0.6185
 2347TIP3    H231237   2.090   1.618  18.716 -3.7313 -0.4150 -2.0758
 2348TIP3   OH231238   1.911   0.283  19.494 -0.2034 -0.1497  0.2503
 2348TIP3    H131239   1.910   0.324  19.581  1.2281  1.9698 -0.6465
 2348TIP3    H231240   1.822   0.297  19.460  0.2075  2.3206  0.0057
 2349TIP3   OH231241   5.619   1.782  18.755 -0.3383 -0.3003 -0.4648
 2349TIP3    H131242   5.568   1.756  18.832  1.1192  0.1832  0.7215
 2349TIP3    H231243   5.603   1.713  18.691 -1.9245 -0.5045  0.1012
 2350TIP3   OH231244   5.529   3.564  17.486 -0.2811  0.5712  0.6149
 2350TIP3    H131245   5.437   3.560  17.511 -0.7076  3.1608 -0.2561
 2350TIP3    H231246   5.560   3.646  17.523  1.0739  0.8397 -1.0106
 2351TIP3   OH231247   0.483   2.886  19.272 -0.0231 -0.1181  0.2289
 2351TIP3    H131248   0.577   2.894  19.292 -0.0963 -0.3386  0.6793
 2351TIP3    H231249   0.452   2.976  19.265  0.2139 -0.0436  0.1252
 2352TIP3   OH231250   4.367   5.773  19.615  0.3459 -0.2927 -0.1389
 2352TIP3    H131251   4.452   5.787  19.574  0.5920  0.3039  0.5652
 2352TIP3    H231252   4.383   5.706  19.682  0.4437  0.4046  0.5466
 2353TIP3   OH231253   2.600   0.057  19.658  0.1935 -0.7154 -0.0041
 2353TIP3    H131254   2.607  -0.034  19.630  2.1774 -0.9146  0.9739
 2353TIP3    H231255   2.679   0.099  19.623 -0.0329  0.3079  0.6801
 2354TIP3   OH231256   5.128   5.550  18.572  0.0220 -0.0372 -0.2556
 2354TIP3    H131257   5.106   5.536  18.664  0.2188  2.5403  0.2629
 2354TIP3    H231258   5.223   5.543  18.568  0.0181 -0.0907 -0.2573
 2355TIP3   OH231259   2.354   2.787  17.886  0.3513 -0.1570 -0.2315
 2355TIP3    H131260   2.344   2.832  17.970 -1.6946  0.1138 -0.5631
 2355TIP3    H231261   2.406   2.847  17.833  0.0402  0.5532  0.2478
 2356TIP3   OH231262   1.331   5.298  18.684 -0.1428 -0.3086 -0.6046
 2356TIP3    H131263   1.307   5.380  18.642  1.0488 -0.2907 -1.2964
 2356TIP3    H231264   1.252   5.270  18.730 -0.8659  0.6984 -1.2113
 2357TIP3   OH231265   5.849   5.039  17.036  0.0348  0.4530 -0.5548
 2357TIP3    H131266   5.908   5.010  17.106 -1.5430  0.2468  0.7561
 2357TIP3    H231267   5.884   4.999  16.957  2.2924  1.2646 -0.0473
 2358TIP3   OH231268   2.021   3.148  19.330 -0.3485  0.0691 -0.3337
 2358TIP3    H131269   2.036   3.060  19.296 -2.0992 -0.1882 -0.5267
 2358TIP3    H231270   1.959   3.135  19.402  0.0084  1.0688  0.1708
 2359TIP3   OH231271   1.756   0.981  19.175  0.0934 -0.2505  0.0665
 2359TIP3    H131272   1.809   0.970  19.253  0.6501  0.7983 -0.1514
 2359TIP3    H231273   1.764   1.073  19.152 -0.9412 -0.3027 -0.6075
 2360TIP3   OH231274   6.367   0.374  19.555  0.1221 -0.1521 -0.2506
 2360TIP3    H131275   6.404   0.450  19.510  0.9119  0.7483  1.8076
 2360TIP3    H231276   6.392   0.386  19.646 -1.9975 -1.5378  0.5787
 2361TIP3   OH231277   1.357   1.499  18.147  0.3659 -0.1775  0.0503
 2361TIP3    H131278   1.397   1.413  18.153 -0.4560 -0.7491 -1.8684
 2361TIP3    H231279   1.270   1.488  18.185  0.2417 -0.2060 -0.2425
 2362TIP3   OH231280   0.485   2.034  17.982  0.0802 -0.4931  0.1733
 2362TIP3    H131281   0.507   1.948  18.017  0.4662 -0.2822  0.4593
 2362TIP3    H231282   0.565   2.063  17.938 -0.9952 -1.6704 -2.8405
 2363TIP3   OH231283   5.643   4.232  16.713  0.6366 -0.1322 -0.1194
 2363TIP3    H131284   5.663   4.325  16.722  0.0106  0.2789 -2.3035
 2363TIP3    H231285   5.548   4.226  16.728  0.6023 -0.3361 -0.4015
 2364TIP3   OH231286   1.361   5.055  19.521 -0.3374 -0.3103  0.6180
 2364TIP3    H131287   1.283   5.048  19.577 -1.0367 -1.3063 -0.4412
 2364TIP3    H231288   1.331   5.106  19.446 -0.1056 -1.0836 -0.0068
 2365TIP3   OH231289   1.358   3.055  19.670 -0.4019 -0.3760 -0.0327
 2365TIP3    H131290   1.336   3.005  19.749  1.1115  0.4117  0.9527
 2365TIP3    H231291   1.413   2.995  19.619 -0.5734 -0.5571 -0.0033
 2366TIP3   OH231292   0.446   0.961  18.995  0.0272  0.0547  0.3495
 2366TIP3    H131293   0.524   0.989  19.044  0.7493  1.2817 -1.4114
 2366TIP3    H231294   0.481   0.915  18.919 -1.0679 -1.4855  0.7456
 2367TIP3   OH231295   5.194   4.442  18.138  0.2861  0.1977  0.5877
 2367TIP3    H131296   5.150   4.521  18.108  1.2488  0.6501  0.3053
 2367TIP3    H231297   5.231   4.404  18.058  1.4081  0.4819  0.9503
 2368TIP3   OH231298   0.851   3.656  19.715 -0.0442 -0.3630 -0.1060
 2368TIP3    H131299   0.891   3.731  19.671  0.6360 -1.6749 -1.8414
 2368TIP3    H231300   0.920   3.591  19.718 -1.3207 -1.8352 -0.9916
 2369TIP3   OH231301   5.821   0.205  17.240 -0.7992  0.0263  0.2681
 2369TIP3    H131302   5.844   0.297  17.225  1.9094 -0.4625  0.8181
 2369TIP3    H231303   5.809   0.169  17.152  1.5468  0.2035 -0.1995
 2370TIP3   OH231304   4.528   5.963  16.775 -0.1713  0.5808 -0.2064
 2370TIP3    H131305   4.537   5.929  16.686  1.8837  1.1485 -0.2628
 2370TIP3    H231306   4.435   5.986  16.782 -0.2297  1.3542 -2.5207
 2371TIP3   OH231307   3.660   1.013  18.071 -0.1335 -0.6350  0.4000
 2371TIP3    H131308   3.648   1.013  17.976 -0.9306  0.3618  0.4850
 2371TIP3    H231309   3.661   1.106  18.095  0.1138 -0.8763  1.3628
 2372TIP3   OH231310   6.074   2.484  16.759 -0.1125 -0.5277  0.2914
 2372TIP3    H131311   6.122   2.471  16.677  2.3298  2.1128  1.1771
 2372TIP3    H231312   6.012   2.555  16.740  1.1212  0.7564  0.9125
 2373TIP3   OH231313   0.825   4.981  18.027 -0.4918 -0.2186 -0.5740
 2373TIP3    H131314   0.730   4.975  18.023 -0.6471  0.3482  1.1736
 2373TIP3    H231315   0.847   4.957  18.117  0.8374  1.4002 -0.3932
 2374TIP3   OH231316   4.897   1.282  18.917 -0.0022  0.2870  0.2118
 2374TIP3    H131317   4.835   1.219  18.953 -0.8643  2.1268  2.2116
 2374TIP3    H231318   4.849   1.325  18.847 -0.5317  0.7485  0.8389
 2375TIP3   OH231319   1.077   3.774  19.991 -0.0377 -0.3607  0.1081
 2375TIP3    H131320   1.077   3.818  19.906 -3.0124 -1.4397 -0.5706
 2375TIP3    H231321   1.021   3.828  20.046  0.4002 -0.6420  0.8523
 2376TIP3   OH231322   1.226   5.165  19.938  0.0127 -0.3184  0.5053
 2376TIP3    H131323   1.144   5.116  19.952 -0.2352 -0.6276 -1.7399
 2376TIP3    H231324   1.293   5.111  19.980 -0.5143 -1.7212 -0.3813
 2377TIP3   OH231325   2.710   5.523  19.788  0.4349  0.0664  0.0453
 2377TIP3    H131326   2.714   5.440  19.740 -2.1857 -1.8786  2.8102
 2377TIP3    H231327   2.617   5.544  19.792  0.9513  2.6102  0.4067
 2378TIP3   OH231328   6.070   5.017  17.450 -0.3436  0.2420  0.2378
 2378TIP3    H131329   6.007   5.032  17.522  1.9515  1.1708  2.1928
 2378TIP3    H231330   6.143   4.971  17.491  0.7207  0.1037 -1.7044
 2379TIP3   OH231331   1.329   3.838  16.646  0.7533  0.1755  0.2871
 2379TIP3    H131332   1.359   3.767  16.589  0.8464  0.0257  0.5219
 2379TIP3    H231333   1.244   3.862  16.611 -1.2324 -2.7842  2.6129
 2380TIP3   OH231334   1.466   0.503  17.688  0.1188  0.4575  0.7022
 2380TIP3    H131335   1.385   0.456  17.667  0.5475  0.6730 -1.7752
 2380TIP3    H231336   1.440   0.565  17.756 -1.4713 -0.3608  0.9128
 2381TIP3   OH231337   2.584   3.728  18.666 -0.2496 -0.3340 -0.7100
 2381TIP3    H131338   2.501   3.716  18.711 -0.0045  1.4715  0.2993
 2381TIP3    H231339   2.564   3.788  18.593  0.6828  3.0313  1.5828
 2382TIP3   OH231340   3.796   6.485  16.583 -0.4361 -0.7132 -0.5089
 2382TIP3    H131341   3.720   6.526  16.542 -0.7679 -1.2176 -0.4061
 2382TIP3    H231342   3.778   6.391  16.579 -0.1079 -0.8066  0.0810
 2383TIP3   OH231343   2.846   5.431  17.953 -0.2766  0.0734 -0.0480
 2383TIP3    H131344   2.843   5.341  17.923  1.2716 -0.2806  0.7520
 2383TIP3    H231345   2.928   5.466  17.918 -0.5921  0.9991  0.1008
 2384TIP3   OH231346   1.749   3.819  20.214 -0.1174  0.7107  0.0313
 2384TIP3    H131347   1.833   3.773  20.206  0.7608  2.4707 -1.6543
 2384TIP3    H231348   1.770   3.898  20.264 -0.9352  0.7776  0.2704
 2385TIP3   OH231349   5.917   0.845  17.249 -0.1029 -0.0119  0.3991
 2385TIP3    H131350   5.880   0.922  17.205 -1.4233 -0.6885  0.2791
 2385TIP3    H231351   6.010   0.845  17.224  0.2454  2.2653  1.4614
 2386TIP3   OH231352   2.265   0.642  17.692  0.3188 -0.5927  0.4258
 2386TIP3    H131353   2.253   0.573  17.627 -0.6862 -0.4133  0.3975
 2386TIP3    H231354   2.271   0.596  17.775  0.1329 -0.7462  0.3553
 2387TIP3   OH231355   5.913   1.024  19.337 -0.1578 -0.7184  0.6177
 2387TIP3    H131356   5.878   0.974  19.411 -0.7266 -1.1828  0.0480
 2387TIP3    H231357   6.007   1.024  19.351 -0.3027 -0.1329  1.7518
 2388TIP3   OH231358   3.276   0.774  20.149 -0.2241  0.3154 -0.4709
 2388TIP3    H131359   3.320   0.836  20.091  1.2813  1.0308  1.3219
 2388TIP3    H231360   3.187   0.808  20.158  0.4977  2.1533  0.2964
 2389TIP3   OH231361   4.505   5.379  18.010  0.7886 -0.3950  0.2188
 2389TIP3    H131362   4.517   5.385  18.105 -0.8117  0.5124  0.3906
 2389TIP3    H231363   4.586   5.416  17.974  0.5280  1.3338  1.2664
 2390TIP3   OH231364   0.604   0.361  20.104 -0.1554  0.4944  0.3730
 2390TIP3    H131365   0.672   0.308  20.145 -1.4316 -0.8102  0.8861
 2390TIP3    H231366   0.534   0.366  20.169 -2.6810 -2.4812 -1.8136
 2391TIP3   OH231367   2.863   0.670  18.523  0.1552  0.1035  0.2276
 2391TIP3    H131368   2.845   0.597  18.582  3.3993  0.1145  1.4562
 2391TIP3    H231369   2.845   0.748  18.575 -2.3285  0.2366 -0.7453
 2392TIP3   OH231370   5.070   5.095  19.519 -0.4635  0.6403  0.1838
 2392TIP3    H131371   5.158   5.113  19.487 -0.1050 -1.1571  0.0734
 2392TIP3    H231372   5.077   5.012  19.566 -2.4255 -0.6124 -1.4992
 2393TIP3   OH231373   6.663   0.319  19.281 -0.2270  0.3849  0.6649
 2393TIP3    H131374   6.687   0.236  19.241 -1.0214 -0.3711  1.6929
 2393TIP3    H231375   6.745   0.354  19.315  0.4430  0.9735 -1.4164
 2394TIP3   OH231376   2.607   1.103  18.686  0.6672 -0.4787 -0.0241
 2394TIP3    H131377   2.663   1.180  18.678 -2.0572  1.8865  1.5317
 2394TIP3    H231378   2.587   1.078  18.596  0.1944  1.8612 -0.6321
 2395TIP3   OH231379   0.848   0.806  16.766 -0.0130  0.4431 -0.2046
 2395TIP3    H131380   0.853   0.867  16.692  1.4862  1.7900  0.9352
 2395TIP3    H231381   0.766   0.830  16.811 -0.9790 -0.4472 -1.4317
 2396TIP3   OH231382   3.722   1.995  19.927 -0.6951 -0.5272  0.2272
 2396TIP3    H131383   3.790   2.061  19.913 -0.3457 -0.6376  1.2820
 2396TIP3    H231384   3.732   1.970  20.019 -0.3886 -2.5175 -0.2984
 2397TIP3   OH231385   1.662   4.539  19.776 -0.0505  0.0294  0.1750
 2397TIP3    H131386   1.623   4.608  19.830 -0.5738  0.6517 -0.9466
 2397TIP3    H231387   1.613   4.543  19.694  1.8110  0.2620 -0.9912
 2398TIP3   OH231388   1.106   4.004  17.801 -0.1575  0.2169 -0.0042
 2398TIP3    H131389   1.034   4.039  17.854 -0.1720 -0.8334  0.7200
 2398TIP3    H231390   1.184   4.021  17.854 -0.1181 -0.4268  0.1554
 2399TIP3   OH231391   1.584   0.807  18.544  0.2912 -0.1771 -0.2918
 2399TIP3    H131392   1.596   0.879  18.482 -1.8674 -0.2527 -0.8520
 2399TIP3    H231393   1.573   0.730  18.489 -2.1927 -0.1686  0.0930
 2400TIP3   OH231394   5.505   6.412  18.394  0.1405  0.0733 -0.1403
 2400TIP3    H131395   5.559   6.381  18.467 -1.2656  0.0591  0.9317
 2400TIP3    H231396   5.453   6.484  18.431  0.3414  0.9647 -1.4891
 2401TIP3   OH231397   1.347   0.746  18.243 -0.1432 -0.5637 -0.1349
 2401TIP3    H131398   1.281   0.801  18.202  0.2511 -0.4997 -0.6833
 2401TIP3    H231399   1.345   0.771  18.336  1.1359  1.5185 -0.6211
 2402TIP3   OH231400   4.761   3.406  19.345 -0.3883  0.0349 -0.4908
 2402TIP3    H131401   4.814   3.326  19.351  0.7054  0.6234 -1.7750
 2402TIP3    H231402   4.803   3.458  19.277 -1.7099  1.2522 -0.4360
 2403TIP3   OH231403   1.451   4.383  18.685 -0.3922 -0.0712 -0.3228
 2403TIP3    H131404   1.467   4.296  18.723  0.7888  0.8913  1.5523
 2403TIP3    H231405   1.534   4.429  18.695 -0.7578  1.0299 -2.0315
 2404TIP3   OH231406   5.500   6.147  17.995 -0.0070 -0.5271  0.3012
 2404TIP3    H131407   5.482   6.180  18.083  0.4290 -0.8732  0.5297
 2404TIP3    H231408   5.418   6.156  17.948 -0.0988  0.1752  0.5785
 2405TIP3   OH231409   0.921   5.859  20.001  0.0907 -0.2968  0.2640
 2405TIP3    H131410   0.973   5.888  19.927 -0.7839  0.3953 -0.1046
 2405TIP3    H231411   0.985   5.841  20.070  0.7732  1.2760  0.0859
 2406TIP3   OH231412   1.818   3.539  18.628  0.2136 -0.1111 -0.1572
 2406TIP3    H131413   1.890   3.476  18.636  0.1035 -0.2424 -0.1934
 2406TIP3    H231414   1.852   3.607  18.570 -0.4410 -1.2808 -1.9979
 2407TIP3   OH231415   6.379   1.268  19.524 -0.4634  0.2640  0.1841
 2407TIP3    H131416   6.324   1.191  19.534  0.5227 -0.6290 -0.9335
 2407TIP3    H231417   6.431   1.271  19.605  0.3213 -0.9484 -0.2545
 2408TIP3   OH231418   4.362   4.707  18.227 -0.4221 -0.5707  0.0522
 2408TIP3    H131419   4.378   4.718  18.133  0.1530 -1.6938 -0.0006
 2408TIP3    H231420   4.338   4.615  18.236  2.6492 -1.3597  1.3776
 2409TIP3   OH231421   2.434   1.847  18.012 -0.5033  0.4785 -0.5361
 2409TIP3    H131422   2.348   1.873  17.979 -0.9203  0.5749  0.5862
 2409TIP3    H231423   2.417   1.770  18.066 -0.0342  1.0897  0.4982
 2410TIP3   OH231424   0.898   2.686  17.212 -0.1563  0.1544  0.1170
 2410TIP3    H131425   0.956   2.636  17.155  0.3122 -1.7033  2.0732
 2410TIP3    H231426   0.945   2.768  17.228  0.0969  0.3305 -1.4059
 2411TIP3   OH231427   5.189   2.578  17.313  0.1609  0.2679 -0.1767
 2411TIP3    H131428   5.101   2.574  17.349 -0.1943 -1.8331 -1.1522
 2411TIP3    H231429   5.185   2.526  17.233  2.2545  0.2315 -0.3140
 2412TIP3   OH231430   5.836   5.860  17.970  0.3913 -0.3474  0.9508
 2412TIP3    H131431   5.747   5.838  17.940  0.8502  0.4636 -1.2032
 2412TIP3    H231432   5.891   5.794  17.928  0.9000 -0.3130  1.5657
 2413TIP3   OH231433   5.884   0.878  17.519  0.5403  0.0028  0.4702
 2413TIP3    H131434   5.913   0.967  17.533 -0.9638  0.6641 -0.3447
 2413TIP3    H231435   5.870   0.871  17.424  0.2588 -0.9669  0.5620
 2414TIP3   OH231436   2.829   5.538  17.550 -0.2435 -0.3376 -0.3390
 2414TIP3    H131437   2.810   5.617  17.499  0.3412  0.9326  1.2942
 2414TIP3    H231438   2.783   5.552  17.633  2.7958  0.0684  1.4351
 2415TIP3   OH231439   6.624   1.134  20.245 -0.1712 -0.2764 -0.0682
 2415TIP3    H131440   6.697   1.148  20.305  0.0698  1.1778 -0.6605
 2415TIP3    H231441   6.579   1.219  20.241 -2.9920 -1.5311  1.6305
 2416TIP3   OH231442   6.237   3.414  17.911  0.2259 -0.0771  0.2101
 2416TIP3    H131443   6.156   3.403  17.861 -0.4897  0.6852  1.1709
 2416TIP3    H231444   6.297   3.456  17.849 -0.0025 -0.9182 -0.6028
 2417TIP3   OH231445   1.155   1.852  18.050 -0.4819 -0.0782 -0.3236
 2417TIP3    H131446   1.130   1.832  18.140 -0.8386  0.2003 -0.3610
 2417TIP3    H231447   1.084   1.907  18.017 -0.9667 -1.1873 -1.1720
 2418TIP3   OH231448   0.595   1.685  17.390 -0.5257 -0.0376  0.4607
 2418TIP3    H131449   0.599   1.780  17.396  0.7551 -0.0459 -0.0572
 2418TIP3    H231450   0.681   1.655  17.421 -0.6736 -0.9881 -0.0215
 2419TIP3   OH231451   5.296   2.589  18.700  0.3614  0.0790 -0.0198
 2419TIP3    H131452   5.388   2.581  18.677  0.2335 -0.1646 -0.4575
 2419TIP3    H231453   5.260   2.647  18.632 -0.3484 -1.8460 -1.3955
 2420TIP3   OH231454   3.850   0.109  19.126 -0.2152 -0.5712  0.0709
 2420TIP3    H131455   3.764   0.098  19.085 -0.0029 -2.2260  0.0266
 2420TIP3    H231456   3.893   0.177  19.074 -1.7412  0.8243  0.5416
 2421TIP3   OH231457   1.982   5.629  18.875 -0.1372 -0.3803  0.2917
 2421TIP3    H131458   1.965   5.646  18.782 -0.7260  0.3388  0.5159
 2421TIP3    H231459   2.077   5.621  18.881  0.2936  2.9701  0.1207
 2422TIP3   OH231460   1.038   5.077  18.742  0.0753 -0.1141 -0.3635
 2422TIP3    H131461   1.061   5.145  18.806 -0.3079  0.8673 -1.2481
 2422TIP3    H231462   0.965   5.030  18.783 -1.0554  1.3572 -0.6164
 2423TIP3   OH231463   1.057   3.312  18.814 -0.4763 -0.2549  0.3414
 2423TIP3    H131464   1.055   3.404  18.841  1.5670 -0.2984  0.7776
 2423TIP3    H231465   1.004   3.309  18.734  1.0982  1.7223 -0.8700
 2424TIP3   OH231466   1.032   5.939  18.099  0.6249  0.1026  0.5030
 2424TIP3    H131467   1.045   5.894  18.183  1.0159  0.5902  0.7100
 2424TIP3    H231468   1.090   6.016  18.104 -0.1215  0.6908  0.2052
 2425TIP3   OH231469   3.608   2.811  17.206 -0.6612  0.1468 -0.0260
 2425TIP3    H131470   3.556   2.794  17.128  1.2052 -3.6052 -0.7191
 2425TIP3    H231471   3.690   2.764  17.190  0.7634  1.2680  3.2110
 2426TIP3   OH231472   6.012   5.786  18.246 -0.7417 -0.3852  0.2711
 2426TIP3    H131473   6.010   5.748  18.158  0.1448 -2.9674  1.2536
 2426TIP3    H231474   6.052   5.872  18.234 -1.2989 -0.3627 -1.9189
 2427TIP3   OH231475   4.883   2.234  17.819  0.2767  0.2437  0.0462
 2427TIP3    H131476   4.945   2.306  17.833 -0.1433  0.4890  0.7297
 2427TIP3    H231477   4.803   2.263  17.864 -0.2270 -0.2091 -0.5363
 2428TIP3   OH231478   5.969   5.249  16.873 -0.1430  0.1491  0.3627
 2428TIP3    H131479   5.909   5.214  16.940 -1.0123  0.2593 -0.3356
 2428TIP3    H231480   6.030   5.177  16.857 -0.8960 -0.4716  0.1478
 2429TIP3   OH231481   0.598   6.170  19.471  0.3163  0.4324 -0.1254
 2429TIP3    H131482   0.625   6.203  19.385  0.1221  1.5452  0.2299
 2429TIP3    H231483   0.642   6.228  19.534  0.5197 -0.4166  0.5346
 2430TIP3   OH231484   1.498   5.594  17.183  0.0755 -0.3206 -0.1518
 2430TIP3    H131485   1.508   5.509  17.139  0.4528 -0.7701  0.7803
 2430TIP3    H231486   1.587   5.627  17.190  0.3151 -1.3047  2.2758
 2431TIP3   OH231487   4.375   3.464  18.350  0.0953 -0.2257  0.0005
 2431TIP3    H131488   4.357   3.477  18.257 -1.4540 -0.9390  0.1646
 2431TIP3    H231489   4.436   3.389  18.352 -0.3344 -0.5961 -0.4261
 2432TIP3   OH231490   3.490   2.203  17.915  0.3736  0.7487  0.3601
 2432TIP3    H131491   3.402   2.216  17.880  0.1323 -0.6481  0.4033
 2432TIP3    H231492   3.542   2.272  17.874 -0.1645 -0.0363 -1.7566
 2433TIP3   OH231493   5.438   6.633  19.708  0.4490 -0.3376  0.4542
 2433TIP3    H131494   5.494   6.594  19.641 -1.1051 -1.3374 -0.3306
 2433TIP3    H231495   5.405   6.714  19.668 -1.5144 -1.5857 -0.5800
 2434TIP3   OH231496   3.036   6.214  16.507 -0.0501 -0.6385 -0.1452
 2434TIP3    H131497   3.019   6.278  16.437 -0.4131  0.2365  0.7208
 2434TIP3    H231498   3.055   6.267  16.584 -0.0815 -1.5830  0.5324
 2435TIP3   OH231499   1.135   4.577  17.513 -0.9126 -0.0065  0.4708
 2435TIP3    H131500   1.077   4.505  17.490 -0.2331 -0.7144  0.9221
 2435TIP3    H231501   1.108   4.603  17.601 -1.1302  0.2660  0.3245
 2436TIP3   OH231502   3.068   0.522  17.891  0.3751 -0.7041  0.0342
 2436TIP3    H131503   3.080   0.556  17.802 -0.4468 -0.9696 -0.1941
 2436TIP3    H231504   3.151   0.539  17.935 -0.0657  1.8726  0.0308
 2437TIP3   OH231505   6.523   5.104  19.902 -0.3125 -0.0750 -0.4070
 2437TIP3    H131506   6.443   5.084  19.855  0.3709  0.8667 -2.0626
 2437TIP3    H231507   6.500   5.180  19.957 -1.1348 -1.2345  0.9218
 2438TIP3   OH231508   5.784   4.220  17.091  0.0241  0.4432  0.4452
 2438TIP3    H131509   5.730   4.192  17.165 -0.0232 -1.2390 -0.1935
 2438TIP3    H231510   5.839   4.144  17.071  1.9015  1.7531  0.3972
 2439TIP3   OH231511   0.362   1.683  16.587 -0.8957  0.0217 -0.6218
 2439TIP3    H131512   0.393   1.602  16.547 -0.4352 -0.2714  0.2973
 2439TIP3    H231513   0.376   1.750  16.520  0.9504 -0.2567 -0.5698
 2440TIP3   OH231514   1.621   3.126  19.355 -0.8162 -0.4606 -0.4703
 2440TIP3    H131515   1.644   3.033  19.355 -0.4184 -0.3755  0.6061
 2440TIP3    H231516   1.705   3.171  19.365 -0.8547  0.0860 -2.3088
 2441TIP3   OH231517   3.974   4.753  20.204  0.5055  0.0274  0.3251
 2441TIP3    H131518   4.007   4.692  20.270  0.4376 -0.3123  0.0467
 2441TIP3    H231519   4.050   4.771  20.149 -0.2566 -2.6586 -1.8069
 2442TIP3   OH231520   2.987   4.693  17.858 -0.7218 -0.3473  0.1004
 2442TIP3    H131521   2.976   4.607  17.816  0.9850 -0.1654 -0.7843
 2442TIP3    H231522   3.047   4.740  17.801  1.8114 -0.1213  2.7368
 2443TIP3   OH231523   6.540   1.410  20.220  0.0296  0.0066  0.1356
 2443TIP3    H131524   6.569   1.450  20.302  1.4905 -1.1540  0.2338
 2443TIP3    H231525   6.573   1.469  20.152 -1.2389  1.0050  0.3636
 2444TIP3   OH231526   1.155   6.091  19.609 -0.2855 -0.4973 -0.1861
 2444TIP3    H131527   1.184   6.176  19.574 -0.0934 -0.5848 -0.2412
 2444TIP3    H231528   1.236   6.045  19.628 -0.3903 -0.7959 -0.4605
 2445TIP3   OH231529   6.381   5.116  16.408  0.4686  0.4304 -0.1748
 2445TIP3    H131530   6.312   5.106  16.343 -1.2082  0.7616  1.4653
 2445TIP3    H231531   6.442   5.044  16.390 -1.6375 -1.4855 -0.1265
 2446TIP3   OH231532   1.274   3.784  18.680 -0.3737  0.2034 -0.4171
 2446TIP3    H131533   1.326   3.859  18.707 -0.3661 -1.2043  4.5288
 2446TIP3    H231534   1.189   3.797  18.723 -0.3227 -2.5012  0.7625
 2447TIP3   OH231535   5.697   5.997  17.566  0.3829 -0.2097  0.0753
 2447TIP3    H131536   5.683   6.014  17.473  0.4125  0.6362  0.2154
 2447TIP3    H231537   5.619   5.951  17.594  0.0601  0.1590 -0.2140
 2448TIP3   OH231538   6.667   2.961  17.544  0.4233  0.1354  0.4065
 2448TIP3    H131539   6.640   2.977  17.454 -0.6730 -1.7409  0.3427
 2448TIP3    H231540   6.637   3.037  17.592 -2.7028 -0.6166 -0.1605
 2449TIP3   OH231541   2.630   4.502  18.960  0.5048 -0.2064 -0.3771
 2449TIP3    H131542   2.633   4.590  18.921  0.0947  0.0780  0.2171
 2449TIP3    H231543   2.619   4.518  19.054  1.4143 -0.8865 -0.1458
 2450TIP3   OH231544   6.150   2.515  18.537 -0.3900 -0.3682  0.1455
 2450TIP3    H131545   6.215   2.556  18.595  0.6391 -1.7388  0.0207
 2450TIP3    H231546   6.144   2.573  18.462  2.5550 -1.3359 -0.9826
 2451TIP3   OH231547   2.218   4.040  17.503 -0.1471  0.0899 -0.5623
 2451TIP3    H131548   2.188   4.089  17.427 -0.7901 -0.8438 -0.9117
 2451TIP3    H231549   2.274   3.971  17.467 -0.3788 -0.2998 -0.1801
 2452TIP3   OH231550   2.055   5.403  19.877 -0.4699  0.1248  0.0625
 2452TIP3    H131551   2.025   5.353  19.800 -1.7191 -0.6294  0.9993
 2452TIP3    H231552   1.975   5.415  19.929  0.1713  1.5015  0.7667
 2453TIP3   OH231553   2.402   2.099  19.847 -0.1582  0.5148 -0.2029
 2453TIP3    H131554   2.480   2.120  19.796 -0.4806 -0.8214 -1.2848
 2453TIP3    H231555   2.371   2.015  19.812 -0.9619  0.0416  1.5203
 2454TIP3   OH231556   3.195   2.816  19.108  0.2498 -0.5684 -0.2312
 2454TIP3    H131557   3.178   2.849  19.020  0.4854 -1.4860 -0.6295
 2454TIP3    H231558   3.279   2.771  19.101  0.4656 -0.2894  0.5601
 2455TIP3   OH231559   4.438   4.403  17.840  0.2243  0.1090 -0.2096
 2455TIP3    H131560   4.480   4.349  17.773  0.6336  0.8784 -0.5893
 2455TIP3    H231561   4.429   4.345  17.916  0.5585 -0.5149 -0.6395
 2456TIP3   OH231562   2.539   4.899  18.222 -0.5125 -0.2519 -0.7895
 2456TIP3    H131563   2.591   4.893  18.302  0.6425 -2.5446 -1.6273
 2456TIP3    H231564   2.451   4.921  18.253  0.1885  0.3042  0.9680
 2457TIP3   OH231565   3.437   2.825  17.001 -0.2900  0.1967  0.2448
 2457TIP3    H131566   3.453   2.837  16.908  0.3232  2.5506  0.5878
 2457TIP3    H231567   3.359   2.878  17.019 -0.9335 -0.9313  0.9573
 2458TIP3   OH231568   4.724   4.079  18.261 -0.0958 -0.0287  0.7697
 2458TIP3    H131569   4.733   4.081  18.166  0.9551  1.3371  0.8638
 2458TIP3    H231570   4.756   3.992  18.286 -0.3874 -0.3988 -0.1094
 2459TIP3   OH231571   0.083   3.013  18.086 -0.3025 -0.0924 -0.1691
 2459TIP3    H131572   0.004   3.061  18.109 -0.1705  1.2233 -2.2618
 2459TIP3    H231573   0.143   3.079  18.052  1.1625 -1.2807 -0.0447
 2460TIP3   OH231574   3.736   6.213  19.468 -0.5248  0.7522  0.1439
 2460TIP3    H131575   3.739   6.208  19.564 -1.5715  1.7410  0.2601
 2460TIP3    H231576   3.708   6.303  19.450  1.4521  1.1540 -1.1585
 2461TIP3   OH231577   4.836   1.361  19.204 -0.3859 -0.3161  0.1441
 2461TIP3    H131578   4.874   1.334  19.121  0.3862  1.2603 -0.0433
 2461TIP3    H231579   4.758   1.410  19.180 -0.8537 -0.9017  0.4201
 2462TIP3   OH231580   5.488   1.229  17.652  0.2966 -0.0594  0.1450
 2462TIP3    H131581   5.553   1.176  17.605 -0.7548  0.8582 -2.5435
 2462TIP3    H231582   5.536   1.267  17.725  1.8236 -2.2743  0.4048
 2463TIP3   OH231583   3.362   0.020  18.700 -0.0103  0.2563 -0.0360
 2463TIP3    H131584   3.357   0.057  18.788  0.2900 -0.5032  0.3084
 2463TIP3    H231585   3.419   0.081  18.652  0.2568  0.3927  0.4455
 2464TIP3   OH231586   1.108   2.995  16.721  0.2827  0.7187 -0.0993
 2464TIP3    H131587   1.074   2.929  16.661 -1.5001  0.9555  0.6003
 2464TIP3    H231588   1.044   3.066  16.718  1.3991  1.7870  0.2926
 2465TIP3   OH231589   4.484   6.548  17.844  0.1188 -0.4044  0.2460
 2465TIP3    H131590   4.423   6.495  17.792  1.3491 -1.2396 -0.4155
 2465TIP3    H231591   4.471   6.637  17.813 -0.1786 -0.6946 -0.4885
 2466TIP3   OH231592   4.546   4.851  19.880 -0.2475 -0.1348 -0.2793
 2466TIP3    H131593   4.569   4.772  19.831  1.2152  0.9188 -1.3570
 2466TIP3    H231594   4.564   4.828  19.971  1.4157 -0.6516 -0.6977
 2467TIP3   OH231595   5.648   0.254  20.172 -1.0807 -0.0332  0.5180
 2467TIP3    H131596   5.659   0.191  20.102  0.2955 -0.6695  1.2616
 2467TIP3    H231597   5.562   0.293  20.157 -1.0618 -0.5749 -1.1570
 2468TIP3   OH231598   4.012   2.486  19.680  0.1350 -0.1546 -0.2738
 2468TIP3    H131599   3.945   2.457  19.742  1.4270 -0.1938  1.1763
 2468TIP3    H231600   4.066   2.547  19.730 -0.9581  2.8411 -2.4847
 2469TIP3   OH231601   0.330   2.710  19.136 -0.1660  0.2171  0.5591
 2469TIP3    H131602   0.271   2.677  19.204  0.0840 -0.5562  0.4085
 2469TIP3    H231603   0.390   2.768  19.184 -0.1936 -0.0671  0.9460
 2470TIP3   OH231604   5.905   5.253  19.115  0.2834  0.3501 -0.1282
 2470TIP3    H131605   5.835   5.315  19.131 -1.3082 -1.8222  2.1556
 2470TIP3    H231606   5.979   5.285  19.166 -1.3833 -0.8567  3.3539
 2471TIP3   OH231607   0.020   4.617  17.564 -0.1581 -0.1326 -0.5784
 2471TIP3    H131608  -0.013   4.546  17.509  2.0549 -0.7984 -1.1285
 2471TIP3    H231609  -0.055   4.677  17.572 -1.4537 -1.4886 -1.7914
 2472TIP3   OH231610   0.679   5.881  19.019 -0.3683  0.4751 -1.1582
 2472TIP3    H131611   0.741   5.895  19.091 -2.4336 -0.0020  0.8347
 2472TIP3    H231612   0.684   5.961  18.967  0.5495  1.2082  0.0011
 2473TIP3   OH231613   5.222   2.320  18.686 -0.1675 -0.4724 -0.2552
 2473TIP3    H131614   5.259   2.277  18.763 -1.4804 -0.0283  0.6666
 2473TIP3    H231615   5.263   2.407  18.685 -1.0203 -0.0403  0.6658
 2474TIP3   OH231616   1.021   2.966  17.723  0.2806 -0.2141  0.5606
 2474TIP3    H131617   1.072   3.036  17.763  0.7384 -0.5655  0.6098
 2474TIP3    H231618   1.086   2.901  17.696 -0.1892 -1.0777  1.4186
 2475TIP3   OH231619   2.139   2.567  19.604  0.3415  0.5391 -0.7726
 2475TIP3    H131620   2.132   2.587  19.697 -1.3483  3.3791 -1.3912
 2475TIP3    H231621   2.170   2.476  19.601 -2.4128 -0.7118  2.5647
 2476TIP3   OH231622   4.750   5.319  19.303  0.1003  0.6441  0.3089
 2476TIP3    H131623   4.773   5.411  19.314  1.9483  0.4188 -1.1659
 2476TIP3    H231624   4.763   5.281  19.390  0.3086  1.5698  0.6957
 2477TIP3   OH231625   4.514   2.024  18.553  0.0336  0.2235 -0.5132
 2477TIP3    H131626   4.479   2.071  18.629  0.5709 -1.8855  1.1291
 2477TIP3    H231627   4.438   2.007  18.498 -0.9723 -0.9571  1.1363
 2478TIP3   OH231628   6.077   1.838  19.439  0.2182  0.6017  0.1627
 2478TIP3    H131629   6.102   1.853  19.530 -0.2330  0.0151  0.3878
 2478TIP3    H231630   6.141   1.888  19.388  1.7782 -0.7626  0.7216
 2479TIP3   OH231631   2.181   3.204  17.561 -0.0588 -0.1846  0.3027
 2479TIP3    H131632   2.211   3.116  17.537 -2.2282 -0.8115 -0.3438
 2479TIP3    H231633   2.106   3.220  17.504 -1.9367  0.6063  2.8085
 2480TIP3   OH231634   0.665   5.127  19.803  0.0469 -0.0485 -0.5812
 2480TIP3    H131635   0.584   5.167  19.773 -1.6671 -1.6229  1.5827
 2480TIP3    H231636   0.721   5.201  19.827 -1.7514  1.1048  0.2433
 2481TIP3   OH231637   0.110   4.742  19.549  0.0999 -0.5489 -0.2211
 2481TIP3    H131638   0.173   4.795  19.500 -0.4587 -0.6212 -1.0182
 2481TIP3    H231639   0.160   4.710  19.624  1.3284 -1.5023 -1.4084
 2482TIP3   OH231640   6.213   6.337  17.898 -0.4424  0.0891  0.5030
 2482TIP3    H131641   6.204   6.428  17.871 -1.0586  0.1758  0.9701
 2482TIP3    H231642   6.292   6.307  17.854 -0.9583  0.4532 -0.7375
 2483TIP3   OH231643   3.876   6.489  19.534 -0.1052 -0.2084  0.3470
 2483TIP3    H131644   3.920   6.568  19.505  1.3409 -0.7328  1.0421
 2483TIP3    H231645   3.924   6.461  19.612 -0.3825 -1.9487 -0.0621
 2484TIP3   OH231646   4.827   2.526  19.865  0.0965 -0.1918 -0.2249
 2484TIP3    H131647   4.740   2.554  19.894 -0.0747  2.0101 -2.5269
 2484TIP3    H231648   4.817   2.510  19.771  2.3395  1.1930 -0.7884
 2485TIP3   OH231649   4.637   6.228  19.850  0.4874  0.0991  0.0389
 2485TIP3    H131650   4.674   6.261  19.768 -1.3460  0.0650 -0.8728
 2485TIP3    H231651   4.603   6.305  19.894  2.1689  0.2202  1.1975
 2486TIP3   OH231652   4.757   5.269  18.838  0.1690 -0.6369 -0.4915
 2486TIP3    H131653   4.759   5.175  18.821 -0.1291 -0.6140 -0.6693
 2486TIP3    H231654   4.837   5.302  18.797 -0.7864 -0.5134 -2.4033
 2487TIP3   OH231655   2.596   2.443  17.304 -0.3276  0.1331 -0.5687
 2487TIP3    H131656   2.547   2.523  17.283 -0.6728 -0.0580 -0.5083
 2487TIP3    H231657   2.542   2.398  17.368  0.6611  0.6516  0.6569
 2488TIP3   OH231658   0.087   0.841  19.334 -0.1179  0.2113 -0.1042
 2488TIP3    H131659   0.053   0.887  19.257 -1.4967 -0.5552  0.0103
 2488TIP3    H231660   0.080   0.749  19.312 -0.6924 -0.0232  0.9991
 2489TIP3   OH231661   1.423   4.588  20.269  0.7839  0.0015 -0.3107
 2489TIP3    H131662   1.464   4.667  20.301  0.2307  0.7315 -1.3427
 2489TIP3    H231663   1.492   4.542  20.220  1.1205 -0.1931  0.3449
 2490TIP3   OH231664   3.661   0.385  19.586  0.4876  0.3112 -0.5144
 2490TIP3    H131665   3.730   0.324  19.613 -0.3338 -0.2838  0.2673
 2490TIP3    H231666   3.607   0.336  19.525 -0.6440 -0.0452  0.7270
 2491TIP3   OH231667   0.501   0.541  17.336  0.5412 -0.1329 -0.1733
 2491TIP3    H131668   0.444   0.495  17.397  1.5315 -0.4962  0.5178
 2491TIP3    H231669   0.590   0.523  17.368  1.1002 -0.4267 -1.7765
 2492TIP3   OH231670   5.939   1.944  17.966  0.2136 -0.0851 -0.9061
 2492TIP3    H131671   5.852   1.981  17.957  0.0673 -0.5755 -1.6618
 2492TIP3    H231672   5.970   1.974  18.051 -0.3495  0.7997 -1.0047
 2493TIP3   OH231673   4.356   3.629  19.913  0.0900 -0.4776  0.3417
 2493TIP3    H131674   4.425   3.606  19.974  0.2517 -0.5155  0.1471
 2493TIP3    H231675   4.275   3.599  19.954  0.3710 -2.1521 -0.2769
 2494TIP3   OH231676   6.588   2.164  18.851  0.4850  1.1219 -0.3849
 2494TIP3    H131677   6.583   2.233  18.918 -1.0021  1.5986 -0.9301
 2494TIP3    H231678   6.668   2.183  18.803  0.1531  2.4603 -0.4733
 2495TIP3   OH231679   2.819   5.798  17.429 -0.2334  0.2839 -0.1653
 2495TIP3    H131680   2.779   5.861  17.369 -0.6808  1.6241  1.4626
 2495TIP3    H231681   2.853   5.852  17.501 -1.1363 -1.3693  1.5831
 2496TIP3   OH231682   5.869   6.134  19.200 -0.0514  0.0952  0.0198
 2496TIP3    H131683   5.861   6.194  19.274  0.0908 -0.6635  0.6608
 2496TIP3    H231684   5.953   6.156  19.161  0.4476 -0.3127  0.8302
 2497TIP3   OH231685   2.588   4.614  17.587  0.2505 -0.1586  0.1502
 2497TIP3    H131686   2.648   4.685  17.611 -0.0115 -0.7265  2.6727
 2497TIP3    H231687   2.503   4.642  17.620 -0.3485 -0.6011 -0.9776
 2498TIP3   OH231688   1.073   6.479  17.711 -0.4933 -0.4946 -0.1608
 2498TIP3    H131689   1.126   6.427  17.651  0.9733 -0.7893  1.3219
 2498TIP3    H231690   0.983   6.461  17.685  0.0634 -0.1028 -2.6473
 2499TIP3   OH231691   1.764   5.742  18.047 -0.0781  0.3442 -0.3099
 2499TIP3    H131692   1.809   5.816  18.006 -0.4139  0.7201 -0.0103
 2499TIP3    H231693   1.754   5.767  18.138 -0.1116 -0.1142 -0.1858
 2500TIP3   OH231694   5.536   2.649  20.170 -0.2384  0.1886  0.4981
 2500TIP3    H131695   5.473   2.702  20.121 -0.0228 -1.7468 -2.0524
 2500TIP3    H231696   5.617   2.699  20.167 -0.1683  0.0179 -1.4280
 2501TIP3   OH231697   5.103   3.769  18.669  0.4300 -0.0915  0.1717
 2501TIP3    H131698   5.012   3.784  18.642  0.7570 -0.5711 -1.2984
 2501TIP3    H231699   5.096   3.706  18.740 -0.4616  0.9664  1.0578
 2502TIP3   OH231700   6.381   5.875  20.265 -0.3261 -0.1156  0.6266
 2502TIP3    H131701   6.345   5.948  20.314 -0.7734 -0.5574  0.9621
 2502TIP3    H231702   6.472   5.901  20.246  0.0927 -0.2478  2.3286
 2503TIP3   OH231703   3.610   6.142  19.715 -0.1816 -0.3789  0.2770
 2503TIP3    H131704   3.562   6.062  19.693 -0.1869 -0.4065  0.3865
 2503TIP3    H231705   3.553   6.213  19.685 -0.2403 -0.4140  0.3032
 2504TIP3   OH231706   1.691   4.124  19.315 -0.0792 -0.2558  0.8585
 2504TIP3    H131707   1.778   4.087  19.330 -0.1951  0.0367  2.4632
 2504TIP3    H231708   1.631   4.064  19.360 -0.6534 -0.1028  0.3231
 2505TIP3   OH231709   5.715   4.489  18.142 -0.0048  0.0464  0.0875
 2505TIP3    H131710   5.656   4.474  18.216 -0.0137  1.9045  0.4919
 2505TIP3    H231711   5.770   4.562  18.170  0.4074  0.3687 -1.5105
 2506TIP3   OH231712   0.765   4.663  17.058 -0.0985 -0.1844  0.2599
 2506TIP3    H131713   0.844   4.609  17.067 -0.7378 -1.0691  0.6279
 2506TIP3    H231714   0.713   4.643  17.136 -1.2225 -0.4836 -0.5445
 2507TIP3   OH231715   3.763   4.674  19.511  0.5624  0.6079  0.0363
 2507TIP3    H131716   3.705   4.649  19.439  2.3189  1.1804 -1.6547
 2507TIP3    H231717   3.754   4.603  19.575 -0.6388 -0.1913 -0.9803
 2508TIP3   OH231718   2.489   3.083  19.835 -0.2123 -0.2337 -0.1361
 2508TIP3    H131719   2.498   3.003  19.785 -1.8904 -1.8229  1.9138
 2508TIP3    H231720   2.495   3.056  19.927  0.6174  2.2048  0.6243
 2509TIP3   OH231721   3.763   3.579  19.684 -0.1041  0.2183 -0.4296
 2509TIP3    H131722   3.764   3.574  19.589  1.8672 -0.4541 -0.4250
 2509TIP3    H231723   3.691   3.639  19.705 -1.4190 -0.6538 -2.2542
 2510TIP3   OH231724   4.526   4.819  17.081 -0.0037  0.0576 -0.3028
 2510TIP3    H131725   4.457   4.885  17.083  0.2475  0.3032  0.4779
 2510TIP3    H231726   4.493   4.753  17.019 -1.2100 -0.1264  0.4898
 2511TIP3   OH231727   1.098   1.111  19.694 -0.4307 -0.9646  0.4536
 2511TIP3    H131728   1.148   1.077  19.619  0.6300  1.1800  0.1035
 2511TIP3    H231729   1.139   1.195  19.713 -2.1476 -0.4313  2.0174
 2512TIP3   OH231730   6.178   0.255  19.831  0.1231  0.4811 -0.2656
 2512TIP3    H131731   6.273   0.248  19.827  0.2487 -1.7552  2.8427
 2512TIP3    H231732   6.146   0.185  19.775  0.2855  0.9450 -0.9524
 2513TIP3   OH231733   3.627   0.523  16.809 -0.3597 -0.0833 -0.2278
 2513TIP3    H131734   3.586   0.599  16.849  0.6090  0.2312  0.2000
 2513TIP3    H231735   3.573   0.449  16.836 -1.1592  0.4084 -0.4303
 2514TIP3   OH231736   6.409   6.255  19.390 -0.2161  0.5579 -0.0648
 2514TIP3    H131737   6.466   6.328  19.415 -0.1629  1.4357 -2.4366
 2514TIP3    H231738   6.458   6.210  19.321 -1.4678  0.0058 -0.6084
 2515TIP3   OH231739   2.717   4.604  19.902  0.3350  0.2226  0.0938
 2515TIP3    H131740   2.770   4.536  19.861  1.3025  0.7423  0.4685
 2515TIP3    H231741   2.759   4.686  19.879  1.3869  0.5048  2.7109
 2516TIP3   OH231742   4.692   2.102  18.368 -0.2861  0.0794 -0.0377
 2516TIP3    H131743   4.649   2.103  18.283  0.3181 -3.5409 -0.5208
 2516TIP3    H231744   4.625   2.068  18.428  0.5033 -1.3846  0.0563
 2517TIP3   OH231745   5.203   3.209  17.591 -0.3693 -0.3264  0.4457
 2517TIP3    H131746   5.161   3.282  17.636 -1.2622 -0.2914 -0.4328
 2517TIP3    H231747   5.278   3.188  17.646 -1.2915 -0.1239  1.8193
 2518TIP3   OH231748   0.301   5.117  18.961  0.4246  0.1340  0.4065
 2518TIP3    H131749   0.338   5.204  18.953 -0.9210  0.7036 -0.0096
 2518TIP3    H231750   0.291   5.103  19.055  1.3323  0.1091  0.5054
 2519TIP3   OH231751   2.931   2.400  16.918 -0.6142 -0.2526  0.0872
 2519TIP3    H131752   2.996   2.430  16.855 -0.4995 -0.9895 -0.1621
 2519TIP3    H231753   2.924   2.306  16.901 -2.5419 -0.0287 -0.6367
 2520TIP3   OH231754   4.004   3.105  18.030 -0.5587  0.3722 -0.1183
 2520TIP3    H131755   4.057   3.097  17.951  0.7869  1.6154  0.6011
 2520TIP3    H231756   4.032   3.033  18.086 -1.2414 -0.2810 -0.5930
 2521TIP3   OH231757   5.216   4.340  20.071 -0.9370  0.2723 -0.3150
 2521TIP3    H131758   5.137   4.352  20.125 -0.1696  0.1878  0.8542
 2521TIP3    H231759   5.274   4.288  20.125  0.2100  0.9319 -0.8844
 2522TIP3   OH231760   5.400   5.213  17.804 -0.0546 -0.3515  0.2791
 2522TIP3    H131761   5.428   5.171  17.884  2.6790 -0.6013 -0.7192
 2522TIP3    H231762   5.400   5.143  17.738  1.9060  0.5763 -0.8032
 2523TIP3   OH231763   5.885   5.490  18.128  0.1380 -0.0627 -0.3561
 2523TIP3    H131764   5.806   5.541  18.112  1.2239  1.3647 -1.3495
 2523TIP3    H231765   5.859   5.399  18.109 -0.9445  0.5287 -1.9261
 2524TIP3   OH231766   4.911   4.122  17.288 -0.2892  0.1222 -0.1847
 2524TIP3    H131767   4.903   4.170  17.371  0.4064 -1.4616  0.8597
 2524TIP3    H231768   4.876   4.181  17.222 -0.9207  1.4166  1.2534
 2525TIP3   OH231769   3.047   0.340  18.305 -0.0140  0.6623  0.0386
 2525TIP3    H131770   3.141   0.327  18.307 -0.0708  0.3330  0.9220
 2525TIP3    H231771   3.010   0.254  18.322 -0.4237  1.1808  2.1548
 2526TIP3   OH231772   2.037   1.474  18.394  0.2214  0.5255 -0.3081
 2526TIP3    H131773   2.080   1.446  18.475  2.3107  0.5712 -1.3454
 2526TIP3    H231774   2.042   1.569  18.396 -0.0032  0.5404 -0.3699
 2527TIP3   OH231775   5.522   5.094  18.343 -0.4557 -0.6915 -0.0882
 2527TIP3    H131776   5.604   5.064  18.304  0.6145  0.7712  0.9057
 2527TIP3    H231777   5.527   5.064  18.434  0.3028  1.6244  0.7254
 2528TIP3   OH231778   6.275   6.491  18.367  0.2560 -0.4092 -0.2136
 2528TIP3    H131779   6.251   6.553  18.298  2.2464  2.4843  1.4725
 2528TIP3    H231780   6.368   6.476  18.355  0.2686 -1.2289  0.8172
 2529TIP3   OH231781   6.170   0.559  20.463 -0.1312 -0.2149 -0.0485
 2529TIP3    H131782   6.254   0.605  20.472  0.1613  0.1259 -3.4351
 2529TIP3    H231783   6.124   0.606  20.394 -2.1940 -1.7558  0.1808
 2530TIP3   OH231784   6.321   4.644  19.027 -0.2729  0.3875 -0.7809
 2530TIP3    H131785   6.330   4.738  19.040 -1.9111  0.2784  1.7686
 2530TIP3    H231786   6.377   4.604  19.093 -1.5106 -0.3615 -0.1349
 2531TIP3   OH231787   2.984   2.263  19.470  0.0180  0.0258  0.0910
 2531TIP3    H131788   2.993   2.176  19.510  1.3248 -0.2120 -0.6591
 2531TIP3    H231789   3.006   2.249  19.378  4.2886  1.7365  0.5908
 2532TIP3   OH231790   2.462   1.713  19.489  0.0169 -0.4286  0.3365
 2532TIP3    H131791   2.391   1.679  19.544 -1.3156  0.9492 -0.4558
 2532TIP3    H231792   2.500   1.784  19.540  0.9696 -1.2474  0.8156
 2533TIP3   OH231793   6.220   0.264  17.752 -0.1117 -0.3308  0.0871
 2533TIP3    H131794   6.306   0.280  17.790 -0.3413 -1.5237  1.1833
 2533TIP3    H231795   6.236   0.246  17.660  0.9872 -2.0195  0.5813
 2534TIP3   OH231796   1.730   5.047  18.912 -0.1792  0.0581 -0.9479
 2534TIP3    H131797   1.718   5.141  18.921  2.3116  0.2732  1.6769
 2534TIP3    H231798   1.792   5.037  18.840  0.7903  0.5879 -0.2026
 2535TIP3   OH231799   4.240   5.300  19.580 -0.2056 -0.4026 -0.0284
 2535TIP3    H131800   4.207   5.210  19.584 -0.8585 -0.3449 -2.5154
 2535TIP3    H231801   4.332   5.291  19.558  0.1618 -0.4633  1.4564
 2536TIP3   OH231802   3.856   1.875  16.926 -0.5121  0.3768  0.1779
 2536TIP3    H131803   3.938   1.830  16.947 -0.1232  1.1422  0.3185
 2536TIP3    H231804   3.816   1.821  16.858 -0.0542 -0.1865  0.3482
 2537TIP3   OH231805   6.254   1.516  19.486  0.2082  0.2549  0.0573
 2537TIP3    H131806   6.189   1.519  19.557 -0.9435  1.4319 -0.9938
 2537TIP3    H231807   6.302   1.435  19.502 -1.6389 -0.7690  0.8069
 2538TIP3   OH231808   6.497   0.726  17.155  0.2608  0.0242 -0.0558
 2538TIP3    H131809   6.545   0.739  17.237 -0.7906  1.6278  0.3483
 2538TIP3    H231810   6.423   0.670  17.180  0.5931 -0.4860 -0.1855
 2539TIP3   OH231811   3.142   5.613  20.037 -0.5572  0.6644 -0.2654
 2539TIP3    H131812   3.199   5.592  19.964 -1.5106  0.9024 -1.0947
 2539TIP3    H231813   3.201   5.620  20.112  0.3198 -0.5228 -0.8120
 2540TIP3   OH231814   6.647   5.599  18.250 -0.1310 -0.7153  0.2267
 2540TIP3    H131815   6.596   5.527  18.211 -4.0906  1.8664  0.0814
 2540TIP3    H231816   6.625   5.596  18.343 -1.5856  1.0448  0.0045
 2541TIP3   OH231817   2.660   1.630  17.977  0.4109 -0.4299 -0.0990
 2541TIP3    H131818   2.662   1.713  18.025  0.0559 -0.9731  0.8808
 2541TIP3    H231819   2.736   1.634  17.919  0.4466  0.5408  0.0021
 2542TIP3   OH231820   3.663   2.952  18.147  0.4512 -0.1984 -0.0212
 2542TIP3    H131821   3.749   2.959  18.190 -0.0002 -3.1049  1.6366
 2542TIP3    H231822   3.683   2.921  18.059  1.2092  2.6635 -0.9655
 2543TIP3   OH231823   3.516   1.389  19.314  0.1230 -0.3176  0.2154
 2543TIP3    H131824   3.461   1.415  19.389 -0.2641 -0.3966 -0.0359
 2543TIP3    H231825   3.541   1.472  19.273  2.2167 -0.1203  1.7152
 2544TIP3   OH231826   5.755   0.514  17.064  0.3643 -0.4513 -0.1477
 2544TIP3    H131827   5.716   0.579  17.006 -1.8015 -0.9267  0.6577
 2544TIP3    H231828   5.776   0.440  17.007 -0.1189 -0.2491 -0.5934
 2545TIP3   OH231829   6.543   0.699  17.472 -0.1820  0.0786  0.0674
 2545TIP3    H131830   6.604   0.762  17.510 -0.9699  1.1173 -0.3369
 2545TIP3    H231831   6.457   0.725  17.505 -0.4401 -1.2702  0.5088
 2546TIP3   OH231832   5.661   3.168  19.851 -0.6054  0.0747 -0.7515
 2546TIP3    H131833   5.659   3.221  19.931 -1.3106 -1.0764  0.0138
 2546TIP3    H231834   5.744   3.191  19.810  0.3312 -0.1962  0.9188
 2547TIP3   OH231835   6.116   5.074  19.214  0.0648  0.0991 -0.7132
 2547TIP3    H131836   6.034   5.057  19.260 -0.3580 -0.2802 -1.5817
 2547TIP3    H231837   6.128   5.169  19.221  0.8411 -0.1123  1.5240
 2548TIP3   OH231838   3.905   3.955  18.327  0.3640 -0.0364 -0.1941
 2548TIP3    H131839   3.983   3.908  18.355 -0.1756  0.2310  1.9611
 2548TIP3    H231840   3.848   3.889  18.288  1.9281 -0.0979 -2.5786
 2549TIP3   OH231841   5.204   0.920  17.553  0.2267  0.3706  0.5004
 2549TIP3    H131842   5.198   1.015  17.538  1.8202  0.8735  2.6092
 2549TIP3    H231843   5.195   0.911  17.647  2.2562 -1.3698  0.5847
 2550TIP3   OH231844   1.613   3.827  19.906 -0.4504  0.3524 -0.4548
 2550TIP3    H131845   1.638   3.755  19.964 -2.9229 -0.9771 -0.8786
 2550TIP3    H231846   1.606   3.903  19.963 -2.3305 -0.8127  0.9845
 2551TIP3   OH231847   0.866   6.189  18.078 -0.3563 -0.2692 -0.4005
 2551TIP3    H131848   0.927   6.151  18.016  0.4691  0.5564 -0.1135
 2551TIP3    H231849   0.869   6.130  18.154  1.5562  0.7586  0.3853
 2552TIP3   OH231850   3.790   0.795  18.127 -0.5523 -0.2911 -0.3317
 2552TIP3    H131851   3.778   0.765  18.036 -1.0233 -0.7835 -0.1179
 2552TIP3    H231852   3.747   0.881  18.129 -1.2329 -0.6170 -0.3929
 2553TIP3   OH231853   4.102   1.279  18.094  0.0952 -0.2548  0.1611
 2553TIP3    H131854   4.053   1.199  18.074 -0.3482 -0.0269  0.3213
 2553TIP3    H231855   4.085   1.295  18.187 -0.9373  0.7675 -0.1741
 2554TIP3   OH231856   3.674   2.368  20.004 -0.8015  0.4074 -0.6660
 2554TIP3    H131857   3.723   2.422  20.065 -0.5677 -0.6018  0.0699
 2554TIP3    H231858   3.710   2.390  19.918 -1.3173  2.0337 -0.4813
 2555TIP3   OH231859   5.924   3.840  19.971 -0.1396  0.4067  0.3223
 2555TIP3    H131860   5.875   3.830  20.052 -0.9204  2.5198  0.1583
 2555TIP3    H231861   5.888   3.918  19.930 -0.0258 -0.7998 -2.2714
 2556TIP3   OH231862   0.820   1.740  18.315  0.0744  0.3387  0.0219
 2556TIP3    H131863   0.753   1.694  18.266 -1.6322  2.0186  0.6858
 2556TIP3    H231864   0.822   1.696  18.401 -0.6193  0.6739  0.2103
 2557TIP3   OH231865   1.781   0.959  19.494 -0.0850 -0.6749  0.0541
 2557TIP3    H131866   1.853   0.903  19.522 -0.6878 -1.6721 -0.3261
 2557TIP3    H231867   1.823   1.038  19.460  0.8648 -1.5158 -0.7674
 2558TIP3   OH231868   4.688   2.207  17.618  0.5135 -0.7582  0.0803
 2558TIP3    H131869   4.770   2.239  17.656 -0.5874  1.1484  0.9802
 2558TIP3    H231870   4.713   2.170  17.534  2.2406  0.2534  0.1132
 2559TIP3   OH231871   6.287   2.157  19.196 -0.3579 -0.4617  0.0153
 2559TIP3    H131872   6.269   2.082  19.252 -0.7412  0.8316  1.7179
 2559TIP3    H231873   6.375   2.142  19.162  0.1394 -1.0301  1.4691
 2560TIP3   OH231874   1.119   3.369  17.887  0.3388 -0.1205 -0.1671
 2560TIP3    H131875   1.214   3.363  17.897  0.3527  0.7871  0.3748
 2560TIP3    H231876   1.094   3.441  17.945 -0.7881 -0.9230  0.3811
 2561TIP3   OH231877   5.037   6.159  19.455  0.2014  0.3048 -0.1826
 2561TIP3    H131878   5.081   6.238  19.424 -2.5806  1.7280 -0.8845
 2561TIP3    H231879   4.952   6.161  19.411 -0.5110 -2.3502  0.8979
 2562TIP3   OH231880   1.631   1.067  17.369  0.4424  0.1336 -0.5876
 2562TIP3    H131881   1.604   1.103  17.453 -2.1649  2.0045 -2.0908
 2562TIP3    H231882   1.593   0.980  17.366 -0.1259  0.3624 -0.1493
 2563TIP3   OH231883   3.148   0.298  17.707 -0.1178 -0.2434  0.2146
 2563TIP3    H131884   3.084   0.368  17.721 -0.9331 -1.1520  1.1865
 2563TIP3    H231885   3.103   0.234  17.652  0.0396 -0.7725  0.6925
 2564TIP3   OH231886   2.646   4.787  17.263  0.1891 -0.1605 -0.1251
 2564TIP3    H131887   2.719   4.819  17.209 -1.0876 -0.2109 -1.9835
 2564TIP3    H231888   2.659   4.692  17.266 -0.7291 -0.3814 -1.9773
 2565TIP3   OH231889   1.712   3.828  17.664  0.4209  0.1637  0.1610
 2565TIP3    H131890   1.787   3.882  17.639 -0.8239  1.4589 -0.9587
 2565TIP3    H231891   1.715   3.825  17.760  1.2156  1.2023  0.1875
 2566TIP3   OH231892   3.125   2.079  18.281 -0.6590  0.2868  0.3468
 2566TIP3    H131893   3.200   2.042  18.328  0.4676  0.8908 -0.9088
 2566TIP3    H231894   3.093   2.149  18.338 -0.1920  0.1190  0.8290
 2567TIP3   OH231895   2.066   3.462  18.165 -0.1676  0.2319  0.4104
 2567TIP3    H131896   2.067   3.369  18.187 -2.2007 -0.0448 -0.3901
 2567TIP3    H231897   2.114   3.467  18.082 -0.0762 -0.1202  0.4410
 2568TIP3   OH231898   5.748   5.036  19.078 -0.2615  0.1714  0.2753
 2568TIP3    H131899   5.659   5.072  19.079  0.6198  2.6083  2.0124
 2568TIP3    H231900   5.805   5.113  19.084  1.9725 -1.3438 -0.1381
 2569TIP3   OH231901   5.158   0.443  20.039  0.2900  0.0418 -0.5734
 2569TIP3    H131902   5.091   0.490  20.090  0.8069  1.4444 -1.1327
 2569TIP3    H231903   5.143   0.351  20.059 -0.1471  0.4933  1.3332
 2570TIP3   OH231904   2.143   4.931  16.888 -0.1665 -0.2338 -0.0738
 2570TIP3    H131905   2.227   4.939  16.842 -0.3440 -1.0737 -0.5671
 2570TIP3    H231906   2.102   4.853  16.849 -0.7489 -0.3931  0.8381
 2571TIP3   OH231907   0.499   0.961  19.611 -0.0986 -0.3928  0.4169
 2571TIP3    H131908   0.408   0.942  19.590 -0.5978  0.6713  1.5140
 2571TIP3    H231909   0.512   0.926  19.699  0.5895 -0.6423  0.2221
 2572TIP3   OH231910   2.673   0.849  19.850  0.0593 -0.9664  0.5859
 2572TIP3    H131911   2.725   0.770  19.844  0.7875 -0.5818  1.5217
 2572TIP3    H231912   2.616   0.847  19.773  0.6997 -1.9329  0.1250
 2573TIP3   OH231913   0.711   0.561  18.405 -0.0482 -0.1573  0.1272
 2573TIP3    H131914   0.796   0.526  18.380 -1.6896 -3.4326 -1.4665
 2573TIP3    H231915   0.708   0.647  18.363  1.8701 -0.6216 -1.0969
 2574TIP3   OH231916   6.216   1.594  20.477  0.2936 -0.3518 -0.0709
 2574TIP3    H131917   6.301   1.615  20.516 -0.1815  0.0644  0.7555
 2574TIP3    H231918   6.238   1.547  20.396  1.3109  0.1135 -0.0794
 2575TIP3   OH231919   5.077   2.055  18.946  0.1842 -0.0280  0.2290
 2575TIP3    H131920   5.154   2.031  18.997 -0.7782 -0.4588  1.5414
 2575TIP3    H231921   5.020   2.101  19.007 -0.1134  1.3291 -1.0223
 2576TIP3   OH231922   3.207   2.241  16.967  0.1527  0.1906 -0.0827
 2576TIP3    H131923   3.157   2.167  17.000  0.0334  0.5244  0.5020
 2576TIP3    H231924   3.298   2.216  16.981  0.1265 -0.0121 -0.2612
 2577TIP3   OH231925   1.990   2.304  16.904  0.5387  0.0797 -0.5381
 2577TIP3    H131926   1.954   2.372  16.845  2.0808 -0.6537 -2.4282
 2577TIP3    H231927   1.940   2.225  16.882  0.0214  0.1564  0.3239
 2578TIP3   OH231928   3.782   1.113  19.553  0.1734  0.2825 -0.7103
 2578TIP3    H131929   3.812   1.075  19.636 -1.0402 -0.4948 -0.5992
 2578TIP3    H231930   3.781   1.207  19.569 -0.1104  0.1347  0.1822
 2579TIP3   OH231931   1.963   6.588  16.858 -0.6081 -0.0757 -0.3090
 2579TIP3    H131932   2.020   6.549  16.792  0.0575  0.2153  0.0822
 2579TIP3    H231933   1.968   6.682  16.840 -0.6940 -0.0241 -0.0612
 2580TIP3   OH231934   0.984   4.861  17.686 -0.0471 -0.1861  0.1613
 2580TIP3    H131935   0.978   4.939  17.741 -1.3401 -0.8301  0.9856
 2580TIP3    H231936   0.952   4.890  17.600  0.2889  0.3810  0.2230
 2581TIP3   OH231937   1.600   5.373  17.037 -0.4143 -0.4197 -0.7431
 2581TIP3    H131938   1.633   5.298  16.988 -1.6795 -0.9506 -0.8111
 2581TIP3    H231939   1.618   5.448  16.980  1.7342 -0.5026 -0.2591
 2582TIP3   OH231940   4.563   5.726  16.935 -0.8030  0.4485  0.0865
 2582TIP3    H131941   4.588   5.802  16.884 -2.4423  1.6900  1.0336
 2582TIP3    H231942   4.543   5.761  17.022  2.8834 -1.6855  2.0699
 2583TIP3   OH231943   2.066   5.664  16.954 -0.5684 -0.1478 -0.1945
 2583TIP3    H131944   2.056   5.737  17.015 -1.1064 -0.2779 -0.1201
 2583TIP3    H231945   2.004   5.598  16.985  1.5266 -1.6180  1.1401
 2584TIP3   OH231946   6.302   0.249  19.309 -0.2711 -0.3101  0.0977
 2584TIP3    H131947   6.255   0.332  19.298 -1.1539 -0.6603  1.0267
 2584TIP3    H231948   6.349   0.261  19.392 -0.0086 -0.5561 -0.0186
 2585TIP3   OH231949   4.823   0.278  20.045 -0.3069 -0.5149 -0.4354
 2585TIP3    H131950   4.731   0.260  20.063 -0.3897 -0.6127 -0.9688
 2585TIP3    H231951   4.833   0.267  19.951  0.4765 -1.5093 -0.2575
 2586TIP3   OH231952   0.424   2.834  18.320 -0.0736 -0.5375  0.4616
 2586TIP3    H131953   0.333   2.863  18.314 -0.3520 -1.6550 -1.8389
 2586TIP3    H231954   0.468   2.903  18.369 -1.5887  1.5344 -0.9242
 2587TIP3   OH231955   4.647   4.784  20.146  0.2532  0.4364  0.4483
 2587TIP3    H131956   4.716   4.734  20.103 -0.4075 -0.7772  0.7763
 2587TIP3    H231957   4.576   4.722  20.160 -0.0565  1.1049  2.1415
 2588TIP3   OH231958   4.853   0.131  18.995 -0.5880  0.4691 -0.2052
 2588TIP3    H131959   4.924   0.154  19.054 -1.3978  1.0365  0.5734
 2588TIP3    H231960   4.810   0.214  18.975  0.2135  0.4436 -2.3669
 2589TIP3   OH231961   3.519   4.879  17.096  0.1305 -0.3042  0.2877
 2589TIP3    H131962   3.442   4.844  17.141  0.3616  1.1102  1.8724
 2589TIP3    H231963   3.495   4.878  17.003 -3.0056  2.6463  0.8514
 2590TIP3   OH231964   1.754   1.269  19.162  0.4752  0.4771 -0.8066
 2590TIP3    H131965   1.697   1.346  19.170  0.1585  0.2515 -0.8653
 2590TIP3    H231966   1.832   1.302  19.118  1.2542  1.2182  1.0532
 2591TIP3   OH231967   1.675   1.878  19.420  0.0035 -0.5734 -0.0984
 2591TIP3    H131968   1.673   1.882  19.516  0.0208  0.7326 -0.1426
 2591TIP3    H231969   1.656   1.967  19.392  2.6361 -0.3071 -1.2924
 2592TIP3   OH231970   2.789   3.253  18.608 -0.8692 -0.0725 -0.2241
 2592TIP3    H131971   2.767   3.340  18.573  0.4437  0.8162  1.0287
 2592TIP3    H231972   2.863   3.224  18.556  1.7542  1.6968  2.2114
 2593TIP3   OH231973   6.452   0.412  18.709 -0.2084  0.6287 -0.5693
 2593TIP3    H131974   6.472   0.501  18.740  0.4013  0.9140 -1.6972
 2593TIP3    H231975   6.473   0.355  18.783 -3.6135  1.5912  1.3676
 2594TIP3   OH231976   6.161   6.062  20.289 -1.0479  0.4714 -0.0467
 2594TIP3    H131977   6.116   6.139  20.322  0.2876  1.0925  0.4255
 2594TIP3    H231978   6.227   6.097  20.229 -1.3556 -0.4219 -0.9270
 2595TIP3   OH231979   6.351   6.587  17.678 -0.2602  0.0662 -0.1156
 2595TIP3    H131980   6.263   6.583  17.641 -0.2811  0.2382 -0.0819
 2595TIP3    H231981   6.406   6.545  17.612 -0.2710  0.5248 -0.4232
 2596TIP3   OH231982   2.985   0.857  19.878  0.3026  0.0371  0.3548
 2596TIP3    H131983   2.898   0.890  19.901  1.2361  1.6750  1.7337
 2596TIP3    H231984   3.036   0.935  19.858  0.8363 -1.0046 -3.0640
 2597TIP3   OH231985   6.661   5.756  19.072  0.6327  0.0366  0.3016
 2597TIP3    H131986   6.601   5.800  19.011  2.1088  0.7780 -0.6759
 2597TIP3    H231987   6.652   5.805  19.154 -0.9577 -0.6214  0.5681
 2598TIP3   OH231988   2.308   3.895  18.364 -0.2128  0.7323  0.3331
 2598TIP3    H131989   2.244   3.824  18.369 -0.3649  0.8632  0.2524
 2598TIP3    H231990   2.256   3.973  18.346 -0.0364  0.8492  0.3277
 2599TIP3   OH231991   1.432   6.336  18.228 -0.8402 -0.4894  0.1692
 2599TIP3    H131992   1.413   6.425  18.257 -2.7332 -0.6041 -0.5772
 2599TIP3    H231993   1.428   6.340  18.132 -1.2679 -1.4372  0.1343
 2600TIP3   OH231994   1.962   4.317  17.766 -0.3564  0.2097  0.2594
 2600TIP3    H131995   2.016   4.297  17.690 -0.5280 -1.2288  0.4966
 2600TIP3    H231996   1.890   4.371  17.731 -0.9216 -1.1698 -0.7858
 2601TIP3   OH231997   5.911   5.216  18.397  0.5795  0.7063 -0.0218
 2601TIP3    H131998   5.931   5.137  18.347  1.2191  1.2343 -0.6293
 2601TIP3    H231999   5.994   5.265  18.398  0.1206  1.4918  0.1037
 2602TIP3   OH232000   0.827   2.224  18.099  0.2106  0.3423  0.0402
 2602TIP3    H132001   0.779   2.155  18.144 -0.1321  0.7412  0.2924
 2602TIP3    H232002   0.841   2.291  18.166 -0.0820  0.8293 -0.3806
 2603TIP3   OH232003   6.302   4.704  19.997 -0.0617 -0.7667 -0.0695
 2603TIP3    H132004   6.325   4.637  19.932 -0.3522 -1.2257  0.2905
 2603TIP3    H232005   6.209   4.687  20.016 -0.8218  1.1883 -1.6712
 2604TIP3   OH232006   0.321   1.381  19.123  0.0106  0.0638  0.4301
 2604TIP3    H132007   0.323   1.365  19.028  0.2696  0.0426  0.4400
 2604TIP3    H232008   0.233   1.415  19.139  1.0169  3.4015 -0.3416
 2605TIP3   OH232009   5.976   2.107  19.005 -0.1626  0.1724 -0.0177
 2605TIP3    H132010   5.960   2.070  18.918  0.7942 -1.4602  0.4608
 2605TIP3    H232011   6.036   2.179  18.989 -0.2220  0.0763 -0.7392
 2606TIP3   OH232012   6.268   2.893  19.889 -0.0709 -0.2178  0.6141
 2606TIP3    H132013   6.190   2.948  19.877  0.2335  0.5866  2.1211
 2606TIP3    H232014   6.341   2.947  19.859 -0.0824 -1.0449 -0.9845
 2607TIP3   OH232015   0.880   4.961  19.585  0.1713 -0.1522 -0.3170
 2607TIP3    H132016   0.821   5.033  19.566 -1.3607 -0.7978  1.6579
 2607TIP3    H232017   0.915   4.981  19.672  0.3105 -1.4103 -0.0675
 2608TIP3   OH232018   3.400   5.653  17.153 -0.5529  0.1747 -0.0593
 2608TIP3    H132019   3.373   5.561  17.153  1.8030 -0.5933 -0.9411
 2608TIP3    H232020   3.448   5.663  17.235  0.6924  0.0907 -0.7555
 2609TIP3   OH232021   1.246   6.083  17.335 -0.1686  0.3584 -0.1279
 2609TIP3    H132022   1.287   6.003  17.301  0.0567  0.1134  0.7066
 2609TIP3    H232023   1.163   6.054  17.372 -0.5261  0.6643 -0.6706
 2610TIP3   OH232024   2.231   3.169  20.095 -0.0003  0.5098  0.0138
 2610TIP3    H132025   2.245   3.161  20.001  1.2994  1.8059  0.0639
 2610TIP3    H232026   2.317   3.153  20.134 -0.4860  0.1690  0.9774
 2611TIP3   OH232027   5.798   0.490  20.114  0.8207 -0.5666 -0.3231
 2611TIP3    H132028   5.811   0.473  20.021 -0.6090  1.7305 -1.0288
 2611TIP3    H232029   5.739   0.420  20.144  0.7084 -0.9045 -1.3204
 2612TIP3   OH232030   3.872   5.100  18.859  0.4262 -0.2641  0.2181
 2612TIP3    H132031   3.880   5.089  18.953 -0.1753 -1.1586  0.1769
 2612TIP3    H232032   3.959   5.128  18.831  0.2957  1.1789  1.1730
 2613TIP3   OH232033   0.946   3.768  18.632  0.4071 -0.3511  0.3979
 2613TIP3    H132034   0.893   3.812  18.699  0.4154 -2.2934  1.7721
 2613TIP3    H232035   0.941   3.826  18.556 -3.5321 -0.3026  0.4705
 2614TIP3   OH232036   1.104   4.184  18.641  0.2679 -0.0728 -0.1688
 2614TIP3    H132037   1.102   4.278  18.655  0.2859 -0.0561 -0.2756
 2614TIP3    H232038   1.013   4.159  18.630  0.1432 -0.2671  1.1270
 2615TIP3   OH232039   4.518   1.914  17.774 -0.3023 -0.6103 -0.3760
 2615TIP3    H132040   4.482   1.954  17.854  0.3833 -0.8809  0.0814
 2615TIP3    H232041   4.455   1.847  17.750 -0.1894 -0.9804  0.3321
 2616TIP3   OH232042   5.863   0.872  18.870 -0.2396 -0.1940 -0.4274
 2616TIP3    H132043   5.935   0.910  18.919 -1.9696  1.8983  0.6892
 2616TIP3    H232044   5.852   0.931  18.795 -1.3546  0.0931 -0.0609
 2617TIP3   OH232045   6.111   6.574  20.210  0.3175  1.0624  0.3829
 2617TIP3    H132046   6.088   6.665  20.228  0.7830  0.8051  2.6032
 2617TIP3    H232047   6.204   6.568  20.232  0.7373  0.3971 -1.3648
 2618TIP3   OH232048   6.652   4.157  17.863  0.4778  0.2654  0.0679
 2618TIP3    H132049   6.575   4.103  17.883 -0.3824  1.6867  0.7413
 2618TIP3    H232050   6.678   4.130  17.775 -2.2315  1.3473 -1.1553
 2619TIP3   OH232051   4.426   5.952  17.326 -0.1283 -0.3152  0.3331
 2619TIP3    H132052   4.433   6.013  17.253 -1.1789  0.9181  1.2121
 2619TIP3    H232053   4.334   5.958  17.353  0.0310 -1.4250  1.1828
 2620TIP3   OH232054   3.659   2.731  18.420  0.0007 -0.0779 -0.0625
 2620TIP3    H132055   3.643   2.780  18.501 -0.5982 -0.7084  0.2116
 2620TIP3    H232056   3.614   2.648  18.434  0.3473 -0.3969 -0.8350
 2621TIP3   OH232057   1.646   3.573  17.517  0.5251  0.2805  0.1945
 2621TIP3    H132058   1.713   3.554  17.451  0.8297  0.6101  0.4036
 2621TIP3    H232059   1.682   3.647  17.566  0.5739 -0.3286  1.1070
 2622TIP3   OH232060   6.300   2.068  20.311  0.3269  0.0663 -0.2391
 2622TIP3    H132061   6.211   2.034  20.319  0.6923 -1.1183 -0.9423
 2622TIP3    H232062   6.311   2.084  20.217  0.8998  0.0979 -0.1688
 2623TIP3   OH232063   4.858   0.472  17.820 -0.4343 -0.6660  0.4378
 2623TIP3    H132064   4.866   0.510  17.732  0.9889 -1.6455  0.1043
 2623TIP3    H232065   4.767   0.442  17.825 -0.1456 -2.0017 -1.3243
 2624TIP3   OH232066   5.787   6.293  20.306 -0.2268 -0.1283  0.0312
 2624TIP3    H132067   5.865   6.324  20.352 -0.7904  0.8296  0.3728
 2624TIP3    H232068   5.739   6.373  20.285 -0.9843 -0.6922 -0.4283
 2625TIP3   OH232069   1.823   0.301  19.778 -0.3311  0.0806  0.2665
 2625TIP3    H132070   1.893   0.362  19.755 -0.7969 -0.0811 -1.8259
 2625TIP3    H232071   1.764   0.352  19.833  0.9825  0.4552  1.3923
 2626TIP3   OH232072   1.914   0.529  18.129  0.4208  0.0037  0.0389
 2626TIP3    H132073   1.848   0.472  18.169  0.6357  0.4620  1.0811
 2626TIP3    H232074   1.900   0.520  18.035 -1.0488 -0.0149  0.2403
 2627TIP3   OH232075   1.463   0.058  19.116  0.2817  0.1021  0.0554
 2627TIP3    H132076   1.403   0.065  19.043  0.6198 -2.7655 -0.6236
 2627TIP3    H232077   1.445  -0.028  19.154  3.1969 -0.4655  0.4419
 2628TIP3   OH232078   6.596   6.491  18.978 -0.2918  0.5945 -0.1618
 2628TIP3    H132079   6.679   6.539  18.977  0.2271 -0.1953  1.6183
 2628TIP3    H232080   6.622   6.399  18.982 -1.2866  0.2216 -1.4525
 2629TIP3   OH232081   3.934   0.485  17.375 -0.2360 -0.4912 -0.1513
 2629TIP3    H132082   3.884   0.513  17.451  0.1161  0.8616 -0.3944
 2629TIP3    H232083   3.931   0.560  17.315  0.9182 -0.8891 -0.7449
 2630TIP3   OH232084   0.851   6.660  19.904  0.7884  0.0571 -0.5295
 2630TIP3    H132085   0.832   6.660  19.998 -0.1296  0.8067 -0.6995
 2630TIP3    H232086   0.777   6.614  19.865  1.0504 -0.0406 -0.9095
 2631TIP3   OH232087   0.563   5.950  16.451 -0.3075 -0.1794 -0.2152
 2631TIP3    H132088   0.471   5.967  16.469 -0.2720 -0.0174 -0.1872
 2631TIP3    H232089   0.586   6.013  16.383  0.0330  0.4256  0.4451
 2632TIP3   OH232090   6.296   3.833  20.066  0.1812  0.0545  0.1779
 2632TIP3    H132091   6.313   3.891  19.992  0.4384  0.6220  0.6745
 2632TIP3    H232092   6.382   3.795  20.087 -0.0607 -0.8402 -0.4162
 2633TIP3   OH232093   5.735   3.063  16.995 -0.3663 -0.4194 -0.4076
 2633TIP3    H132094   5.722   3.136  17.056 -0.4402  1.6537 -2.7455
 2633TIP3    H232095   5.649   3.049  16.955  0.2021  0.0389 -1.8513
 2634TIP3   OH232096   3.431   0.974  20.003 -0.2956 -0.2019 -0.6618
 2634TIP3    H132097   3.442   0.961  19.909  0.5010 -2.3989 -0.3459
 2634TIP3    H232098   3.518   0.959  20.040 -0.6782  0.1756  0.4571
 2635TIP3   OH232099   4.550   0.323  17.531  0.0321 -0.6777 -0.6134
 2635TIP3    H132100   4.514   0.377  17.602 -0.7911 -0.3426 -1.2692
 2635TIP3    H232101   4.635   0.363  17.512  0.1440 -0.6080 -0.0034
 2636TIP3   OH232102   0.097   4.392  19.994  0.4982 -0.0758  0.5659
 2636TIP3    H132103   0.130   4.468  19.945  1.7910 -1.2948 -0.5340
 2636TIP3    H232104   0.114   4.414  20.085  0.7401  1.0128  0.2742
 2637TIP3   OH232105   2.203   2.228  17.062 -0.2991  0.2875  0.0354
 2637TIP3    H132106   2.264   2.299  17.043 -0.1320 -0.2629 -1.6159
 2637TIP3    H232107   2.134   2.236  16.996  0.7897 -2.2786 -1.5488
 2638TIP3   OH232108   2.030   0.459  19.738 -0.4567  0.1678  0.0304
 2638TIP3    H132109   1.989   0.543  19.763  1.0028  0.7946  0.4160
 2638TIP3    H232110   2.118   0.483  19.709 -0.6840 -1.0304 -1.7951
 2639TIP3   OH232111   3.043   4.515  20.067 -0.6325 -0.5149  0.4871
 2639TIP3    H132112   2.985   4.518  19.991 -0.3213 -0.0368  0.2670
 2639TIP3    H232113   2.985   4.532  20.142 -0.6256  0.9248  0.1842
 2640TIP3   OH232114   6.289   0.474  20.048 -0.2141  0.1227 -0.1538
 2640TIP3    H132115   6.321   0.442  19.963 -0.2625  1.3385 -0.6403
 2640TIP3    H232116   6.219   0.413  20.072  0.4598 -0.8165 -0.4971
 2641TIP3   OH232117   5.255   1.592  17.741 -0.2010 -0.1384 -0.5174
 2641TIP3    H132118   5.217   1.672  17.704 -0.4604 -0.0863 -0.1405
 2641TIP3    H232119   5.203   1.521  17.705 -0.5897 -0.0739 -0.0856
 2642TIP3   OH232120   0.469   1.022  18.248  0.0606 -0.6403 -0.5537
 2642TIP3    H132121   0.509   0.949  18.201  0.5642 -0.9071  0.2735
 2642TIP3    H232122   0.461   1.091  18.182  0.1235 -1.2311 -1.1980
 2643TIP3   OH232123   5.204   6.000  18.332  0.1094  0.4287 -0.1171
 2643TIP3    H132124   5.130   6.058  18.351  0.5241  0.9642 -0.1048
 2643TIP3    H232125   5.278   6.060  18.319  1.0992 -0.1414  2.2769
 2644TIP3   OH232126   0.767   4.439  19.955 -0.1727 -0.1647  0.1613
 2644TIP3    H132127   0.786   4.433  19.862 -0.5972  1.8956 -0.1098
 2644TIP3    H232128   0.671   4.447  19.959 -0.1753 -0.4189  0.8081
 2645TIP3   OH232129   2.229   5.159  18.060  0.2662  0.0532  0.0401
 2645TIP3    H132130   2.192   5.245  18.038  2.3920  0.4362 -2.3719
 2645TIP3    H232131   2.304   5.180  18.116  0.9821 -0.1879 -0.8204
 2646TIP3   OH232132   5.708   2.903  18.717  0.1907  0.2701 -0.1980
 2646TIP3    H132133   5.621   2.899  18.679  0.2302 -0.1291 -0.2465
 2646TIP3    H232134   5.699   2.962  18.792  0.0018  0.6521 -0.5133
 2647TIP3   OH232135   3.959   6.134  19.303  0.0112  0.7702  0.1939
 2647TIP3    H132136   3.882   6.135  19.361  1.1690 -2.0418  2.0050
 2647TIP3    H232137   4.013   6.207  19.333 -0.5173  0.8332  1.0254
 2648TIP3   OH232138   0.360   1.805  17.796 -0.3730  0.1132  0.0169
 2648TIP3    H132139   0.419   1.850  17.736 -1.2263 -0.1812 -1.0989
 2648TIP3    H232140   0.390   1.829  17.883  1.7758 -0.5307 -0.4746
 2649TIP3   OH232141   5.870   4.974  19.353 -0.0401 -0.0384 -0.2575
 2649TIP3    H132142   5.826   4.955  19.270 -0.1304  0.1238 -0.2476
 2649TIP3    H232143   5.812   5.037  19.397  0.9820  1.4332 -0.9339
 2650TIP3   OH232144   1.273   3.136  17.264 -0.2961 -0.0923  0.4098
 2650TIP3    H132145   1.285   3.075  17.337  2.1374  1.2335  1.2362
 2650TIP3    H232146   1.310   3.218  17.295  1.3447  0.4003 -2.4926
 2651TIP3   OH232147   0.318   1.856  17.144 -0.1767  0.1013  0.0879
 2651TIP3    H132148   0.355   1.768  17.144 -1.3482 -0.4121  1.1700
 2651TIP3    H232149   0.261   1.857  17.067 -1.7427 -0.8055  1.1917
 2652TIP3   OH232150   2.710   5.779  18.619 -0.3294  0.0927 -0.1235
 2652TIP3    H132151   2.713   5.759  18.525  0.2645  1.5418 -0.4373
 2652TIP3    H232152   2.779   5.724  18.656 -1.1040 -1.0954 -0.3982
 2653TIP3   OH232153   5.800   6.489  17.687 -0.6610 -0.3459 -0.1438
 2653TIP3    H132154   5.706   6.502  17.697 -0.6368 -0.8247  0.7503
 2653TIP3    H232155   5.809   6.441  17.604 -1.0344  1.5497 -1.3549
 2654TIP3   OH232156   4.952   4.077  18.602 -0.0954  0.2558  0.3162
 2654TIP3    H132157   4.921   3.987  18.593 -0.3166  0.3861 -0.3079
 2654TIP3    H232158   4.890   4.119  18.661 -0.0053  0.0084  0.5904
 2655TIP3   OH232159   4.990   4.326  16.602  0.2511 -0.4977  0.2219
 2655TIP3    H132160   4.992   4.340  16.697  3.3956 -0.3928  0.2438
 2655TIP3    H232161   4.939   4.245  16.591  0.6668 -1.0761  2.1129
 2656TIP3   OH232162   1.643   4.344  18.037 -0.1423 -0.1516  0.2449
 2656TIP3    H132163   1.684   4.267  17.998  0.6118  0.6881 -0.6454
 2656TIP3    H232164   1.550   4.320  18.044  0.1240 -1.2429  0.2679
 2657TIP3   OH232165   4.040   4.752  19.467  0.1369  0.3849  0.2752
 2657TIP3    H132166   4.000   4.836  19.489 -0.2542  0.0563  0.8682
 2657TIP3    H232167   4.053   4.709  19.552 -0.8347 -0.6596 -0.0781
 2658TIP3   OH232168   3.567   1.018  17.442 -0.3505  0.7493 -0.0915
 2658TIP3    H132169   3.510   1.018  17.365 -0.0474  1.3661 -0.3234
 2658TIP3    H232170   3.619   0.939  17.433  0.6388  1.4915 -1.2556
 2659TIP3   OH232171   0.752   4.756  19.795 -0.1461 -0.2145  0.0570
 2659TIP3    H132172   0.845   4.736  19.790  0.3925  2.2271 -1.0975
 2659TIP3    H232173   0.743   4.805  19.877 -0.0640  0.8919 -0.5642
 2660TIP3   OH232174   2.549   6.470  19.204 -0.7992  0.1173 -0.9519
 2660TIP3    H132175   2.544   6.399  19.267  0.3501 -0.6916 -1.7217
 2660TIP3    H232176   2.484   6.448  19.137  0.5265 -1.0560 -1.9439
 2661TIP3   OH232177   0.748   2.656  17.957 -0.2922 -0.3887  0.1526
 2661TIP3    H132178   0.725   2.742  17.994 -1.6610 -0.4371 -0.5270
 2661TIP3    H232179   0.763   2.673  17.864 -1.4839 -1.0006 -0.1812
 2662TIP3   OH232180   3.763   5.848  17.305  0.0387  0.5273  0.0168
 2662TIP3    H132181   3.749   5.889  17.219  0.8473  0.2765 -0.2509
 2662TIP3    H232182   3.682   5.801  17.323  0.3676 -0.6080 -1.2931
 2663TIP3   OH232183   4.395   1.620  18.949 -0.0917 -0.3401  0.4016
 2663TIP3    H132184   4.306   1.635  18.983 -0.4831  0.5788 -0.9286
 2663TIP3    H232185   4.398   1.670  18.867  2.3701  1.4315  1.4521
 2664TIP3   OH232186   0.852   0.011  19.476 -0.0270  0.0760 -0.2555
 2664TIP3    H132187   0.942   0.042  19.482  0.0571 -0.1536 -0.3221
 2664TIP3    H232188   0.837  -0.004  19.383  0.1879 -0.8193 -0.1592
 2665TIP3   OH232189   4.418   5.171  17.304  0.0392 -0.3967  0.0355
 2665TIP3    H132190   4.335   5.214  17.326 -0.5320 -1.5781  0.2763
 2665TIP3    H232191   4.404   5.139  17.215  0.3365 -0.3775 -0.0159
 2666TIP3   OH232192   6.586   0.085  17.656 -0.2014  0.5280  0.0095
 2666TIP3    H132193   6.653   0.019  17.636  0.3891  0.5716  1.6937
 2666TIP3    H232194   6.514   0.034  17.694  0.4618  0.8496  1.7992
 2667TIP3   OH232195   5.835   1.674  18.317  0.0191 -0.1370  0.0460
 2667TIP3    H132196   5.905   1.737  18.336  1.6429 -1.9511  0.3465
 2667TIP3    H232197   5.766   1.727  18.278  1.2527  1.8540  0.4046
 2668TIP3   OH232198   2.078   5.750  19.490 -0.4228 -0.0967 -0.3541
 2668TIP3    H132199   2.086   5.743  19.585  1.1647 -0.2208 -0.4720
 2668TIP3    H232200   2.023   5.828  19.476 -1.1275 -0.3968  0.6591
 2669TIP3   OH232201   2.849   3.705  19.476  0.3281 -0.3452 -0.1769
 2669TIP3    H132202   2.864   3.729  19.384 -0.3070 -2.1871 -0.7995
 2669TIP3    H232203   2.848   3.610  19.476 -3.5504 -0.4841  1.0434
 2670TIP3   OH232204   0.960   6.025  18.591 -0.2838 -0.6489  0.0888
 2670TIP3    H132205   0.976   6.106  18.638 -1.0923  0.3910 -1.3555
 2670TIP3    H232206   1.033   5.968  18.614 -0.3752  0.0008  2.1345
 2671TIP3   OH232207   4.979   1.016  19.662 -0.0602 -0.5491 -0.3986
 2671TIP3    H132208   4.990   1.011  19.567  0.7938  2.7098 -0.5983
 2671TIP3    H232209   5.069   1.013  19.696 -0.3112 -0.8457  0.2414
 2672TIP3   OH232210   5.006   0.310  20.249 -0.4915  0.0493 -0.0974
 2672TIP3    H132211   5.016   0.399  20.283 -0.5989 -0.5386  1.5995
 2672TIP3    H232212   4.919   0.308  20.210 -1.8156 -0.0958  2.6353
 2673TIP3   OH232213   6.658   6.374  18.654  0.2084  0.2335 -0.2290
 2673TIP3    H132214   6.704   6.436  18.598  1.3138 -0.4174 -0.0585
 2673TIP3    H232215   6.702   6.380  18.738 -0.8809  0.5551  0.3325
 2674TIP3   OH232216   5.294   0.299  18.789 -0.0360 -0.2815  0.1553
 2674TIP3    H132217   5.318   0.391  18.797  1.8203 -0.6442 -0.6450
 2674TIP3    H232218   5.376   0.252  18.807 -1.5530 -1.9791  3.7910
 2675TIP3   OH232219   1.349   1.113  18.629  0.4058  0.6148  1.0186
 2675TIP3    H132220   1.347   1.029  18.673 -0.8926  0.9589  1.6445
 2675TIP3    H232221   1.320   1.176  18.694 -0.9821  1.2174 -0.1226
 2676TIP3   OH232222   2.045   4.583  18.654 -0.0973 -0.3138 -0.9174
 2676TIP3    H132223   2.073   4.557  18.566  1.3146 -2.3129  0.0360
 2676TIP3    H232224   1.983   4.515  18.681 -2.3162  1.4837 -1.1413
 2677TIP3   OH232225   1.072   6.363  19.819 -0.1399 -0.6378 -0.6934
 2677TIP3    H132226   1.102   6.366  19.910 -1.4380  1.5529 -0.2454
 2677TIP3    H232227   0.997   6.303  19.821  0.0789 -0.9010 -0.3885
 2678TIP3   OH232228   3.937   0.853  17.810 -0.0391 -0.2368  0.0567
 2678TIP3    H132229   3.855   0.807  17.822 -0.1552 -0.0819 -0.1386
 2678TIP3    H232230   3.918   0.921  17.745  0.0216  0.3634  0.6543
 2679TIP3   OH232231   5.372   4.574  17.396 -0.1735 -0.3196 -0.3579
 2679TIP3    H132232   5.299   4.514  17.411  0.3579 -0.5226  1.7603
 2679TIP3    H232233   5.448   4.529  17.433  0.1530  1.8039  1.8082
 2680TIP3   OH232234   2.103   0.676  16.849 -0.6276 -0.3530 -0.1419
 2680TIP3    H132235   2.018   0.719  16.853 -0.6043 -0.3357  0.2707
 2680TIP3    H232236   2.130   0.684  16.758 -0.7778  0.2135 -0.1434
 2681TIP3   OH232237   4.982   0.956  17.094  0.0401  0.0100 -0.6844
 2681TIP3    H132238   5.027   1.039  17.106  1.5852 -0.6688 -1.5545
 2681TIP3    H232239   5.012   0.923  17.010 -0.0643 -1.7223 -0.0969
 2682TIP3   OH232240   5.208   0.429  17.077  0.1549 -0.2417  0.1255
 2682TIP3    H132241   5.256   0.381  17.009 -0.1761  0.5448 -0.6897
 2682TIP3    H232242   5.166   0.501  17.030  1.2112  1.2917  1.4127
 2683TIP3   OH232243   2.343   6.146  17.141 -0.1478  0.3348 -0.2931
 2683TIP3    H132244   2.319   6.099  17.061 -1.4260  2.9897 -1.5670
 2683TIP3    H232245   2.417   6.201  17.114 -0.8547  1.5511  0.2220
 2684TIP3   OH232246   0.775   0.535  17.621 -0.6217 -0.1810 -0.2248
 2684TIP3    H132247   0.749   0.620  17.584 -0.5676  0.4130  1.0364
 2684TIP3    H232248   0.698   0.505  17.668  0.0302  0.2100  1.1258
 2685TIP3   OH232249   0.409   4.262  19.012  0.3549  0.3686  0.5843
 2685TIP3    H132250   0.336   4.318  19.038 -1.6294 -0.2068 -3.0538
 2685TIP3    H232251   0.478   4.324  18.985  0.0666  0.9564  1.1670
 2686TIP3   OH232252   1.508   3.848  17.499  0.0642 -0.4546  0.0416
 2686TIP3    H132253   1.431   3.827  17.552  0.0534  0.6428  0.4945
 2686TIP3    H232254   1.578   3.862  17.563 -0.1346  1.6742 -0.1459
 2687TIP3   OH232255   4.493   3.963  17.498  0.0745  0.2844 -0.1380
 2687TIP3    H132256   4.435   3.945  17.572  0.3889  0.4126  0.1406
 2687TIP3    H232257   4.434   3.991  17.428 -0.1325  1.2053  0.3981
 2688TIP3   OH232258   4.678   0.177  16.870  0.3562  0.5752  0.8333
 2688TIP3    H132259   4.637   0.261  16.851 -0.4615 -0.2842 -1.4962
 2688TIP3    H232260   4.722   0.153  16.789  0.9691 -1.0236  1.6069
 2689TIP3   OH232261   3.074   2.539  18.269  0.4947 -0.3567  0.1614
 2689TIP3    H132262   2.989   2.517  18.307  0.4656 -0.7597 -0.1276
 2689TIP3    H232263   3.115   2.597  18.333 -0.2174  0.2685  0.0537
 2690TIP3   OH232264   6.429   2.994  18.493  0.1151 -0.2960 -0.4268
 2690TIP3    H132265   6.496   2.934  18.526  0.6092 -0.0833 -1.0092
 2690TIP3    H232266   6.377   3.017  18.569  1.2988  0.2836  0.2452
 2691TIP3   OH232267   0.260   4.363  17.131 -0.4971 -0.3531 -0.2486
 2691TIP3    H132268   0.346   4.388  17.164  0.3507 -3.3245  0.0775
 2691TIP3    H232269   0.198   4.418  17.179  1.1026  0.3611  1.0537
 2692TIP3   OH232270   2.706   0.614  18.048  0.2743 -0.1732  0.3063
 2692TIP3    H132271   2.656   0.696  18.052 -0.3930 -0.5330 -0.3485
 2692TIP3    H232272   2.698   0.586  17.957  1.0620 -0.6209  0.3720
 2693TIP3   OH232273   3.890   2.092  18.959  0.0509  0.6465  0.5953
 2693TIP3    H132274   3.844   2.135  19.030  0.8029 -0.0415  1.5208
 2693TIP3    H232275   3.975   2.068  18.996  1.0494  1.5661 -0.9369
 2694TIP3   OH232276   2.909   1.858  18.344 -0.1993 -0.2413 -0.8241
 2694TIP3    H132277   2.970   1.839  18.415 -1.0245 -1.6902 -0.4728
 2694TIP3    H232278   2.960   1.910  18.282  0.3952  1.5669  1.0555
 2695TIP3   OH232279   2.312   0.136  19.005  0.7906 -0.2327 -0.0679
 2695TIP3    H132280   2.243   0.134  18.939  0.7021 -0.8630  0.0364
 2695TIP3    H232281   2.291   0.063  19.065  2.4361 -1.5279 -0.9552
 2696TIP3   OH232282   3.970   4.973  17.922 -0.0772 -0.2370 -0.3607
 2696TIP3    H132283   3.958   4.878  17.924 -0.0319 -0.2439 -0.4781
 2696TIP3    H232284   3.962   4.999  18.014 -2.7381 -0.0304 -0.5855
 2697TIP3   OH232285   1.175   1.183  20.209  0.4770  0.0922 -0.1057
 2697TIP3    H132286   1.091   1.213  20.175  0.3150 -0.3812 -0.1223
 2697TIP3    H232287   1.212   1.260  20.252 -0.2535  0.1383  0.4656
 2698TIP3   OH232288   2.104   5.164  20.164 -0.1188  0.2731 -0.0058
 2698TIP3    H132289   2.096   5.101  20.092  0.7921 -0.1148  0.2110
 2698TIP3    H232290   2.108   5.110  20.243 -2.2718  0.7343  0.4857
 2699TIP3   OH232291   6.106   3.450  18.933  0.1699  0.5864 -0.0280
 2699TIP3    H132292   6.066   3.369  18.902 -0.3712  1.1212 -0.7406
 2699TIP3    H232293   6.110   3.506  18.856 -1.7302  2.1691  0.9335
 2700TIP3   OH232294   4.712   6.374  16.954 -0.5311  0.2906 -0.4333
 2700TIP3    H132295   4.669   6.311  16.896  1.2939 -0.5440 -0.9451
 2700TIP3    H232296   4.796   6.334  16.976  0.0655  1.9072  0.4421
 2701TIP3   OH232297   5.680   4.879  20.180  0.5363 -0.3577  0.7493
 2701TIP3    H132298   5.623   4.904  20.253 -0.9046 -1.8057  0.1821
 2701TIP3    H232299   5.685   4.783  20.186  0.1551 -0.5262 -1.1975
 2702TIP3   OH232300   3.738   3.594  16.341  0.2895  0.2724 -0.0620
 2702TIP3    H132301   3.785   3.568  16.420 -0.6944  0.2301  0.5254
 2702TIP3    H232302   3.677   3.662  16.370 -0.8930 -0.5515 -0.5484
 2703TIP3   OH232303   3.608   2.872  18.667  0.4960 -0.8999 -0.5161
 2703TIP3    H132304   3.524   2.913  18.650 -0.1240 -1.9006  0.0539
 2703TIP3    H232305   3.587   2.789  18.709  1.8158 -0.2683  1.5546
 2704TIP3   OH232306   3.106   5.580  18.213 -0.8147  0.3133  0.0234
 2704TIP3    H132307   3.128   5.488  18.206  1.5909  0.8059  0.3136
 2704TIP3    H232308   3.165   5.614  18.280 -0.3915  2.4209 -1.3141
 2705TIP3   OH232309   0.985   1.690  16.985  0.2128  0.1013  0.5967
 2705TIP3    H132310   1.062   1.634  16.982  1.0567  1.1862  1.4011
 2705TIP3    H232311   1.008   1.766  16.933 -0.8988 -0.2229 -0.4180
 2706TIP3   OH232312   6.087   3.162  17.153 -0.3299  0.5478  0.1319
 2706TIP3    H132313   6.022   3.123  17.211 -0.3308  0.6470  0.1980
 2706TIP3    H232314   6.169   3.117  17.175  0.1254  2.0639  1.7251
 2707TIP3   OH232315   4.314   1.780  17.657 -0.0721 -0.1927 -0.1746
 2707TIP3    H132316   4.247   1.725  17.616 -1.4843  1.4909 -0.2450
 2707TIP3    H232317   4.270   1.864  17.672  1.8453  0.7605  0.3994
 2708TIP3   OH232318   0.363   5.081  19.559  0.0109  0.1208 -0.6917
 2708TIP3    H132319   0.329   5.155  19.610 -0.6451 -0.2129 -0.6275
 2708TIP3    H232320   0.289   5.053  19.505  0.2744 -0.4365 -0.7746
 2709TIP3   OH232321   2.897   4.045  19.263  0.4886  0.2681 -0.6476
 2709TIP3    H132322   2.870   4.135  19.276  0.7637  0.3766 -0.8201
 2709TIP3    H232323   2.820   3.993  19.287  1.0121  0.4353  1.5190
 2710TIP3   OH232324   6.142   1.820  18.202 -0.3363 -0.0728 -0.2062
 2710TIP3    H132325   6.201   1.882  18.243  1.0553 -2.0554  0.9497
 2710TIP3    H232326   6.104   1.771  18.275  1.2650 -2.8619 -1.0879
 2711TIP3   OH232327   3.016   2.590  19.170 -0.3598 -0.1564  0.4942
 2711TIP3    H132328   3.037   2.680  19.148  0.0786 -0.7177 -1.5532
 2711TIP3    H232329   2.988   2.594  19.262 -0.0130  1.9805  0.5577
 2712TIP3   OH232330   0.045   0.391  17.272  0.1205  0.6332  1.0661
 2712TIP3    H132331  -0.041   0.374  17.236  0.2853  1.9661 -0.0118
 2712TIP3    H232332   0.036   0.371  17.366 -0.8734 -0.8403  0.6855
 2713TIP3   OH232333   4.994   0.706  17.526 -0.4208 -0.0897  0.2937
 2713TIP3    H132334   5.062   0.771  17.543 -0.0499  0.2018 -2.0359
 2713TIP3    H232335   5.042   0.625  17.511 -0.8527 -0.8353  2.5212
 2714TIP3   OH232336   3.113   5.069  16.585 -0.1111  0.2560 -0.3269
 2714TIP3    H132337   3.153   5.147  16.546 -1.1746  1.1166  0.2378
 2714TIP3    H232338   3.019   5.077  16.565 -0.0592 -1.7138 -1.6417
 2715TIP3   OH232339   4.330   5.030  17.066  0.0126 -0.5964  0.0098
 2715TIP3    H132340   4.276   4.976  17.124 -0.0048 -1.5364 -0.8513
 2715TIP3    H232341   4.267   5.082  17.016 -0.1954 -2.0952 -1.3937
 2716TIP3   OH232342   0.257   6.310  20.166 -0.6771  0.0591 -0.3917
 2716TIP3    H132343   0.241   6.371  20.094  0.8429  1.3823  0.3297
 2716TIP3    H232344   0.170   6.290  20.200 -1.2048  2.6607 -0.0076
 2717TIP3   OH232345   2.291   0.848  18.706  0.1120  0.3954 -0.2455
 2717TIP3    H132346   2.352   0.886  18.769 -0.3183 -0.9752  1.0372
 2717TIP3    H232347   2.286   0.756  18.728 -1.5299  0.2310 -1.0717
 2718TIP3   OH232348   0.040   3.624  17.034 -0.1478 -0.0793 -0.4177
 2718TIP3    H132349   0.106   3.688  17.058 -1.4280  0.8843  0.7089
 2718TIP3    H232350   0.086   3.559  16.981  1.6427  0.6189  0.2436
 2719TIP3   OH232351   1.101   1.534  19.178  0.6800 -0.5986 -0.3325
 2719TIP3    H132352   1.018   1.563  19.139  1.1844 -1.2241 -1.9372
 2719TIP3    H232353   1.152   1.502  19.104  1.9535 -1.2171  0.7842
 2720TIP3   OH232354   4.439   0.088  16.282  0.0393  0.6549  0.4691
 2720TIP3    H132355   4.349   0.113  16.303 -0.1308  1.1555 -0.7609
 2720TIP3    H232356   4.489   0.109  16.361 -0.5730  2.4087  0.4498
 2721TIP3   OH232357   1.372   5.873  20.037  0.0861  0.3158 -0.0186
 2721TIP3    H132358   1.342   5.933  19.970 -1.0245  2.1704  2.0173
 2721TIP3    H232359   1.457   5.908  20.064  0.7669 -0.7114 -0.7367
 2722TIP3   OH232360   3.101   4.713  18.631  0.2116  0.2560  0.1515
 2722TIP3    H132361   3.148   4.645  18.584 -1.2327  0.7996 -2.2573
 2722TIP3    H232362   3.035   4.665  18.682  0.2798 -0.2351 -0.2129
 2723TIP3   OH232363   3.092   0.052  18.573  0.0266 -0.4931 -0.2328
 2723TIP3    H132364   3.181   0.051  18.607  0.1946  0.7357 -0.5848
 2723TIP3    H232365   3.037   0.056  18.651  0.3574  0.7640 -0.0513
 2724TIP3   OH232366   2.711   4.222  19.835 -0.0814  0.0703 -0.2128
 2724TIP3    H132367   2.758   4.141  19.817  0.2379  0.2159 -0.0362
 2724TIP3    H232368   2.740   4.247  19.923 -0.5259  0.1325 -0.0801
 2725TIP3   OH232369   0.544   1.715  19.093  0.2912 -0.2169 -0.2078
 2725TIP3    H132370   0.510   1.649  19.154 -2.1715 -0.4320 -1.7025
 2725TIP3    H232371   0.582   1.664  19.022  0.5470  0.0171 -0.2401
 2726TIP3   OH232372   1.813   0.665  19.800  0.1603  0.8581  0.3598
 2726TIP3    H132373   1.782   0.580  19.831  1.4348  0.8692  1.7450
 2726TIP3    H232374   1.737   0.722  19.808 -0.4528  0.0739  0.2849
 2727TIP3   OH232375   4.354   4.933  19.513 -0.0337  0.1703 -0.1784
 2727TIP3    H132376   4.279   4.944  19.572  0.2575  0.8075  0.0909
 2727TIP3    H232377   4.315   4.928  19.426 -0.4243 -0.0546  0.0060
 2728TIP3   OH232378   2.686   6.043  16.913 -0.0398 -0.1046 -0.4982
 2728TIP3    H132379   2.657   5.957  16.944  0.2928 -0.5039 -1.2732
 2728TIP3    H232380   2.606   6.096  16.913 -0.1053 -0.1521  0.7719
 2729TIP3   OH232381   0.957   0.327  19.891 -0.4779 -0.4357  0.9512
 2729TIP3    H132382   0.970   0.241  19.929 -1.0457 -0.7106  0.5457
 2729TIP3    H232383   1.036   0.342  19.838 -1.0860 -1.4153 -0.2698
 2730TIP3   OH232384   5.608   0.523  18.453  0.2107  0.1138 -0.1372
 2730TIP3    H132385   5.700   0.546  18.463  0.0593  1.3177 -1.2295
 2730TIP3    H232386   5.575   0.584  18.387 -0.7973 -1.8556 -1.5720
 2731TIP3   OH232387   6.151   1.710  20.086  0.0748  0.3081  0.4876
 2731TIP3    H132388   6.094   1.634  20.093  1.1545 -0.5602  0.1164
 2731TIP3    H232389   6.098   1.775  20.040 -0.7023 -0.3793  0.3831
 2732TIP3   OH232390   4.098   2.811  17.402 -0.3481  0.3882 -0.1382
 2732TIP3    H132391   4.073   2.903  17.390 -0.2919  0.2055 -2.1112
 2732TIP3    H232392   4.167   2.797  17.337  1.1679 -0.5300  1.5766
 2733TIP3   OH232393   6.288   5.513  18.886 -0.2440  0.0410  0.0451
 2733TIP3    H132394   6.196   5.541  18.881  0.0788  0.9665 -1.3198
 2733TIP3    H232395   6.334   5.590  18.921  0.2825  0.3542 -1.2612
 2734TIP3   OH232396   0.419   4.072  20.206  0.3316  0.2012 -0.7234
 2734TIP3    H132397   0.465   4.123  20.272  1.5779  1.5707 -2.5307
 2734TIP3    H232398   0.489   4.023  20.161 -0.4806 -0.7178 -1.0257
 2735TIP3   OH232399   5.636   3.090  17.938 -0.1446  0.0043 -0.3853
 2735TIP3    H132400   5.729   3.093  17.913  0.1608 -0.1040  0.6780
 2735TIP3    H232401   5.605   3.005  17.908  0.2141 -0.1266 -0.3854
 2736TIP3   OH232402   0.096   3.358  17.228  0.2858  0.6265 -0.2842
 2736TIP3    H132403   0.047   3.435  17.198 -0.8119 -0.3437 -1.1162
 2736TIP3    H232404   0.169   3.352  17.167  1.6032  2.1660  1.0473
 2737TIP3   OH232405   4.036   4.152  16.550 -0.4751  0.2235 -0.7609
 2737TIP3    H132406   4.123   4.166  16.589 -0.9564 -0.0140  0.4292
 2737TIP3    H232407   4.053   4.093  16.477  0.3625  0.0899 -0.4813
 2738TIP3   OH232408   2.851   4.339  18.991 -0.4585  0.2316 -0.0645
 2738TIP3    H132409   2.930   4.392  19.002  0.8073 -1.2133 -1.5930
 2738TIP3    H232410   2.779   4.402  18.992  0.8262  1.7473  0.0253
 2739TIP3   OH232411   0.661   4.917  17.063  0.1527 -0.1951 -0.2063
 2739TIP3    H132412   0.701   4.830  17.071  0.3287 -0.0369  0.7082
 2739TIP3    H232413   0.577   4.900  17.020  1.0290 -0.5685 -1.8449
 2740TIP3   OH232414   1.611   0.720  19.290  0.0717  0.0809  0.1853
 2740TIP3    H132415   1.592   0.810  19.262 -0.3551 -0.8120 -2.6526
 2740TIP3    H232416   1.704   0.709  19.274  0.2342  0.1488  1.0338
 2741TIP3   OH232417   6.257   4.225  17.390  0.2882  0.3245  0.1111
 2741TIP3    H132418   6.333   4.200  17.444  1.2032 -0.1779 -1.3500
 2741TIP3    H232419   6.252   4.157  17.323 -2.0552 -0.1613  0.7066
 2742TIP3   OH232420   5.591   4.499  18.396  0.2738 -0.8011 -0.1369
 2742TIP3    H132421   5.526   4.451  18.448 -1.0491  2.1922  1.2045
 2742TIP3    H232422   5.652   4.535  18.461  0.3307  0.5771 -0.9224
 2743TIP3   OH232423   4.186   2.882  19.400 -0.7986  0.4443 -0.3499
 2743TIP3    H132424   4.248   2.856  19.332 -0.0596 -0.0999  0.5143
 2743TIP3    H232425   4.133   2.950  19.359 -1.9625 -1.5011 -2.2874
 2744TIP3   OH232426   1.948   0.524  17.291 -0.2911 -0.8020 -0.0360
 2744TIP3    H132427   2.011   0.475  17.238  0.9929 -1.5888  2.0857
 2744TIP3    H232428   1.975   0.615  17.281  1.6761 -1.1679  1.3238
 2745TIP3   OH232429   1.854   6.471  17.095  0.1551  0.0006  0.3828
 2745TIP3    H132430   1.759   6.458  17.091  0.1277 -0.6529  2.1201
 2745TIP3    H232431   1.876   6.514  17.013 -1.4327 -1.1467 -0.7017
 2746TIP3   OH232432   4.817   5.716  17.815  0.7022 -0.9277 -0.2237
 2746TIP3    H132433   4.820   5.718  17.910 -1.9302 -1.0646 -0.0648
 2746TIP3    H232434   4.802   5.808  17.790 -1.3115 -1.2149 -0.2719
 2747TIP3   OH232435   1.997   2.536  19.354  0.2663 -0.1290  0.1244
 2747TIP3    H132436   1.943   2.457  19.361 -2.7318  1.8418  1.2467
 2747TIP3    H232437   2.064   2.525  19.421  0.9591 -2.3753 -0.8497
 2748TIP3   OH232438   2.566   0.283  17.534 -0.1239  0.2556 -0.1972
 2748TIP3    H132439   2.517   0.333  17.469  1.1459  0.6059 -0.9189
 2748TIP3    H232440   2.501   0.225  17.574 -1.2832  1.2779 -0.5340
 2749TIP3   OH232441   3.392   2.124  19.501  0.3814  0.1958  0.2446
 2749TIP3    H132442   3.480   2.095  19.480 -0.1140  0.3727 -2.4162
 2749TIP3    H232443   3.337   2.046  19.488 -0.2313  0.8599 -1.3562
 2750TIP3   OH232444   6.277   2.094  17.740 -0.2539 -0.4979 -0.1400
 2750TIP3    H132445   6.186   2.084  17.711 -0.2665 -1.3361  0.1619
 2750TIP3    H232446   6.301   2.183  17.713 -1.4205  0.0352  0.4935
 2751TIP3   OH232447   3.795   6.652  18.250 -0.0461 -0.2032  0.3007
 2751TIP3    H132448   3.835   6.681  18.168  0.8645  2.8887  1.6628
 2751TIP3    H232449   3.728   6.718  18.268 -0.2268 -0.8149  2.0123
 2752TIP3   OH232450   0.140   4.695  20.024 -0.1414 -0.6613  0.4910
 2752TIP3    H132451   0.148   4.666  20.115 -1.1510 -1.5642  0.3258
 2752TIP3    H232452   0.078   4.768  20.028  0.6070 -0.0243  0.6368
 2753TIP3   OH232453   0.124   3.500  20.192  0.6388 -0.6004  0.6026
 2753TIP3    H132454   0.134   3.443  20.116  0.9493  0.9402 -0.5501
 2753TIP3    H232455   0.029   3.504  20.206  0.3170  1.4401 -1.6006
 2754TIP3   OH232456   0.084   2.151  17.827 -0.0748  0.0523  0.1270
 2754TIP3    H132457   0.127   2.101  17.897 -0.6974 -0.3236  0.2467
 2754TIP3    H232458   0.018   2.092  17.792  0.4034  0.1423 -0.9711
 2755TIP3   OH232459   3.347   1.898  18.341  0.4218 -0.1391 -0.3954
 2755TIP3    H132460   3.385   1.916  18.255 -0.2216  0.9568 -0.4763
 2755TIP3    H232461   3.416   1.852  18.389  1.6361  1.2638 -0.7270
 2756TIP3   OH232462   2.730   3.553  18.503  0.7849 -0.3425 -0.4723
 2756TIP3    H132463   2.673   3.608  18.555  0.0791 -1.4200 -0.0710
 2756TIP3    H232464   2.737   3.597  18.419 -0.7335 -0.2425 -0.5647
 2757TIP3   OH232465   1.485   1.630  18.918 -0.2111 -0.0185  0.4446
 2757TIP3    H132466   1.572   1.605  18.951  0.0558  1.8432  1.3292
 2757TIP3    H232467   1.490   1.726  18.911 -2.4998  0.2213  1.4086
 2758TIP3   OH232468   3.421   5.256  18.912 -0.0450 -0.5764  0.6946
 2758TIP3    H132469   3.495   5.306  18.879  0.3579 -1.1891  0.6683
 2758TIP3    H232470   3.425   5.172  18.867 -0.2641 -0.9259  1.3054
 2759TIP3   OH232471   3.884   2.037  17.271 -0.3319 -0.0542  0.0332
 2759TIP3    H132472   3.800   2.074  17.244 -0.5501  0.0998  0.8866
 2759TIP3    H232473   3.946   2.067  17.205 -0.3497  2.4686  1.0521
 2760TIP3   OH232474   2.289   3.500  19.732 -0.1206 -0.0066 -0.1359
 2760TIP3    H132475   2.305   3.586  19.772  0.3802  0.4419 -1.2699
 2760TIP3    H232476   2.195   3.500  19.713 -0.0602  0.4531 -0.4718
 2761TIP3   OH232477   5.523   2.892  19.543  0.3786 -0.5637 -0.2410
 2761TIP3    H132478   5.449   2.939  19.580 -0.5854 -1.2032 -1.3163
 2761TIP3    H232479   5.584   2.883  19.617 -1.1623 -1.1425  1.0332
 2762TIP3   OH232480   1.351   4.492  17.367  0.0793  0.6039  0.3617
 2762TIP3    H132481   1.276   4.552  17.373  0.7832  1.4316  1.0798
 2762TIP3    H232482   1.348   4.442  17.448 -0.3481 -0.1636 -0.1173
 2763TIP3   OH232483   1.303   1.313  17.314 -0.2565 -0.2938 -0.1247
 2763TIP3    H132484   1.389   1.341  17.343 -0.7354  1.1608 -0.0289
 2763TIP3    H232485   1.320   1.245  17.249  0.8679 -2.1594  2.0152
 2764TIP3   OH232486   3.323   4.316  17.868 -0.2735 -0.3199 -0.2693
 2764TIP3    H132487   3.259   4.376  17.905 -1.2494 -1.6623  0.2916
 2764TIP3    H232488   3.408   4.357  17.887 -0.8190 -0.0317  1.7707
 2765TIP3   OH232489   2.550   6.459  18.099  0.7401  0.8401  0.3049
 2765TIP3    H132490   2.589   6.512  18.029 -0.1326 -0.5071 -1.2656
 2765TIP3    H232491   2.611   6.386  18.111 -0.7574 -0.8390 -1.5988
 2766TIP3   OH232492   5.403   1.117  20.097 -0.1367 -0.4142 -0.1458
 2766TIP3    H132493   5.455   1.169  20.158 -0.3833 -0.3995  0.0553
 2766TIP3    H232494   5.312   1.143  20.115 -0.2239 -0.5527 -0.3850
 2767TIP3   OH232495   3.289   1.904  18.902  0.4282 -0.5095 -0.5251
 2767TIP3    H132496   3.266   1.837  18.837 -1.3723 -0.4060 -0.0687
 2767TIP3    H232497   3.252   1.870  18.984  1.2857  0.0964  0.1260
 2768TIP3   OH232498   4.515   4.468  19.250  0.3041  0.0286  0.0106
 2768TIP3    H132499   4.439   4.516  19.284 -0.6599 -0.0712 -1.8963
 2768TIP3    H232500   4.575   4.536  19.219 -0.0873  0.0653 -0.6791
 2769TIP3   OH232501   4.196   5.335  17.319 -0.1877 -0.2287  0.0907
 2769TIP3    H132502   4.123   5.339  17.381 -0.3450 -0.9449 -0.0396
 2769TIP3    H232503   4.165   5.381  17.241 -0.8236 -1.2356 -0.2757
 2770TIP3   OH232504   6.041   1.963  20.240 -0.0470 -0.0365  0.4969
 2770TIP3    H132505   6.088   2.015  20.175  0.5623 -0.9716  0.1609
 2770TIP3    H232506   5.993   1.898  20.189 -0.3849 -0.1294  0.9288
 2771TIP3   OH232507   2.861   5.630  19.330 -0.3123  0.3643  0.0130
 2771TIP3    H132508   2.903   5.611  19.414  1.2779 -0.2272 -0.8711
 2771TIP3    H232509   2.923   5.685  19.283  1.3187 -3.3149 -2.7100
 2772TIP3   OH232510   0.355   1.102  19.228 -0.4033  0.1958 -0.9245
 2772TIP3    H132511   0.326   1.192  19.210 -1.2495  0.3125  0.8516
 2772TIP3    H232512   0.330   1.053  19.149  0.1165  1.5035 -1.9381
 2773TIP3   OH232513   5.372   0.871  20.327  0.3185 -0.3235  0.4476
 2773TIP3    H132514   5.384   0.940  20.261  1.9608 -1.0992 -0.1418
 2773TIP3    H232515   5.313   0.808  20.286  0.6206 -0.3567  0.0491
 2774TIP3   OH232516   0.949   0.828  17.969 -0.0521  0.3027 -0.1397
 2774TIP3    H132517   0.924   0.893  17.904 -0.5284  0.6611  0.3857
 2774TIP3    H232518   0.875   0.826  18.030 -0.3818 -1.2584 -0.5413
 2775TIP3   OH232519   3.011   0.838  19.020 -0.1904 -0.3267  0.7203
 2775TIP3    H132520   2.939   0.899  19.033  1.1087  1.4216  0.0639
 2775TIP3    H232521   2.977   0.773  18.958 -1.5713 -0.2574  1.3743
 2776TIP3   OH232522   0.778   0.100  16.570 -0.1688 -0.1083 -0.5612
 2776TIP3    H132523   0.693   0.057  16.582 -1.4305  2.3303 -0.1287
 2776TIP3    H232524   0.763   0.166  16.502  0.8578  1.5478  0.7278
 2777TIP3   OH232525   5.232   6.117  19.806  0.0159  0.5421  0.2903
 2777TIP3    H132526   5.162   6.075  19.855  0.8919 -1.0678  0.2192
 2777TIP3    H232527   5.245   6.061  19.729  1.4779  0.7034  0.3874
 2778TIP3   OH232528   5.850   5.957  18.841 -0.3156 -0.1087  0.3905
 2778TIP3    H132529   5.861   6.049  18.817  1.3875  0.2593  2.3255
 2778TIP3    H232530   5.920   5.911  18.794  0.1742 -0.0682  1.0638
 2779TIP3   OH232531   1.375   1.791  17.774 -0.5557  0.1484 -0.2774
 2779TIP3    H132532   1.370   1.700  17.802 -1.0565 -0.1059 -1.1511
 2779TIP3    H232533   1.383   1.841  17.856  1.5332 -0.7652  0.1231
 2780TIP3   OH232534   0.247   0.246  17.162 -0.0633 -0.0932  0.2037
 2780TIP3    H132535   0.187   0.311  17.200 -0.1392 -0.0095 -0.0534
 2780TIP3    H232536   0.195   0.205  17.093 -0.5410 -1.5126  1.3739
 2781TIP3   OH232537   6.516   3.772  17.157 -0.2715  0.1739  0.2188
 2781TIP3    H132538   6.571   3.729  17.092  0.6933  0.3191  0.9168
 2781TIP3    H232539   6.431   3.729  17.149  0.1722 -0.6315 -0.3101
 2782TIP3   OH232540   0.230   4.173  17.326 -0.4760 -0.2249  0.3618
 2782TIP3    H132541   0.268   4.086  17.335  0.3584  0.2823  2.0910
 2782TIP3    H232542   0.240   4.194  17.233  0.4817 -1.4314  0.1668
 2783TIP3   OH232543   4.555   2.520  16.805  0.0620  0.1424 -0.0137
 2783TIP3    H132544   4.572   2.612  16.827  1.6765 -0.1203 -0.0117
 2783TIP3    H232545   4.512   2.484  16.883 -0.8346  0.9529 -0.1206
 2784TIP3   OH232546   0.043   6.174  20.002 -0.1954  0.6931  0.1387
 2784TIP3    H132547   0.070   6.262  19.976 -2.4106  0.9373 -1.6849
 2784TIP3    H232548  -0.006   6.141  19.926 -1.8603 -0.9706  1.8275
 2785TIP3   OH232549   2.795   3.747  17.831  0.2433  0.3069  0.3430
 2785TIP3    H132550   2.799   3.833  17.874  0.3271  1.0430 -1.0757
 2785TIP3    H232551   2.701   3.732  17.818  0.2604  0.4947 -0.0015
 2786TIP3   OH232552   0.010   6.106  17.804  0.3922  0.1942  1.1295
 2786TIP3    H132553  -0.077   6.105  17.763  0.9520 -0.5548 -0.0904
 2786TIP3    H232554   0.009   6.185  17.859 -0.3319  1.3635 -0.4643
 2787TIP3   OH232555   4.095   1.009  17.163  0.3909 -0.1611  0.1523
 2787TIP3    H132556   4.007   1.038  17.184  0.6050 -0.6797  1.8969
 2787TIP3    H232557   4.153   1.072  17.206  0.8627 -0.7765  0.4402
 2788TIP3   OH232558   6.513   4.974  18.220  0.3114  0.3174  0.4643
 2788TIP3    H132559   6.570   4.981  18.144  1.2313  0.3619  1.1318
 2788TIP3    H232560   6.554   4.906  18.274  0.3983  1.1835  1.5171
 2789TIP3   OH232561   0.124   2.057  17.223 -0.2149 -0.6931  0.5951
 2789TIP3    H132562   0.195   1.996  17.204 -0.6482 -1.1738  0.5011
 2789TIP3    H232563   0.146   2.094  17.308  1.2288  0.7320 -0.3336
 2790TIP3   OH232564   6.315   3.992  18.996  0.6227  0.2699  0.4676
 2790TIP3    H132565   6.318   4.047  18.918 -1.7278 -0.0338  0.1050
 2790TIP3    H232566   6.338   4.050  19.068  3.4188  0.4271 -0.4296
 2791TIP3   OH232567   1.537   2.884  18.446  0.0210  0.1876  0.1612
 2791TIP3    H132568   1.578   2.876  18.533 -1.7374  2.2374  1.2760
 2791TIP3    H232569   1.549   2.798  18.406  2.6129 -0.2285  1.6165
 2792TIP3   OH232570   0.011   5.711  17.988  0.2899 -0.5940 -0.0442
 2792TIP3    H132571   0.062   5.778  18.033  0.4531  0.5140 -1.7722
 2792TIP3    H232572  -0.002   5.643  18.053  0.4953  0.9132  1.6452
 2793TIP3   OH232573   3.539   0.859  19.776 -0.4598 -0.4058  0.3252
 2793TIP3    H132574   3.498   0.776  19.751 -0.9969 -0.0427 -0.0184
 2793TIP3    H232575   3.626   0.834  19.807 -0.7352 -1.1344  0.5452
 2794TIP3   OH232576   0.077   4.765  18.176  0.2030  0.1794 -0.0688
 2794TIP3    H132577   0.159   4.758  18.127  0.4226 -0.0126  0.3193
 2794TIP3    H232578   0.064   4.678  18.213  0.4040  0.5022  0.7852
 2795TIP3   OH232579   1.003   3.618  17.441 -0.2693 -0.3115  0.0711
 2795TIP3    H132580   0.915   3.601  17.475  0.0630 -1.3434  0.4371
 2795TIP3    H232581   1.060   3.557  17.488  0.7296  0.6775  0.2077
 2796TIP3   OH232582   3.451   1.829  19.211 -0.0510 -0.0890  0.0128
 2796TIP3    H132583   3.439   1.789  19.297 -1.9424 -0.4830 -0.3943
 2796TIP3    H232584   3.536   1.797  19.181 -0.2827 -1.5814  0.8665
 2797TIP3   OH232585   3.473   3.736  19.442  0.1256 -0.1875 -0.3732
 2797TIP3    H132586   3.441   3.646  19.442 -2.7947  0.7287  0.4231
 2797TIP3    H232587   3.490   3.756  19.350 -1.0496 -0.9834 -0.7903
 2798TIP3   OH232588   6.200   1.318  19.023 -0.7861 -0.0309 -0.0740
 2798TIP3    H132589   6.249   1.237  19.015  1.0704  0.9064  0.9709
 2798TIP3    H232590   6.151   1.308  19.105  0.3222  0.3167  0.6458
 2799TIP3   OH232591   6.011   5.594  17.579 -0.4530 -0.0260 -0.0745
 2799TIP3    H132592   5.930   5.553  17.547 -1.3182  0.2496  1.6416
 2799TIP3    H232593   5.985   5.682  17.604  0.2998 -0.0316  0.7814
 2800TIP3   OH232594   5.886   4.382  20.149  0.0505  0.6579  0.4967
 2800TIP3    H132595   5.808   4.394  20.094  1.1048 -0.2244 -1.3038
 2800TIP3    H232596   5.957   4.421  20.098  1.1768 -0.7302  0.9238
 2801TIP3   OH232597   0.923   3.876  17.480 -0.0774  0.0581 -0.4146
 2801TIP3    H132598   0.965   3.791  17.465  0.2437 -0.1485  1.3895
 2801TIP3    H232599   0.951   3.930  17.406 -0.3604 -1.4204 -1.6405
 2802TIP3   OH232600   2.916   5.690  19.863 -0.1341  0.2506  0.1059
 2802TIP3    H132601   2.846   5.630  19.836 -0.0454 -0.0330  0.4925
 2802TIP3    H232602   2.975   5.635  19.915  0.1943  0.5677  0.0687
 2803TIP3   OH232603   5.553   1.247  19.608 -0.6128  0.3440  0.3240
 2803TIP3    H132604   5.604   1.325  19.628 -2.8997  1.7944  0.8377
 2803TIP3    H232605   5.469   1.261  19.653 -0.2069 -3.6592  2.8214
 2804TIP3   OH232606   4.801   0.789  19.406 -0.2608 -0.1316  0.0266
 2804TIP3    H132607   4.837   0.703  19.382 -1.8277 -1.2866  1.4959
 2804TIP3    H232608   4.878   0.845  19.418  0.9258 -1.7877  0.5906
 2805TIP3   OH232609   3.265   0.565  19.260  0.4038 -0.6584  0.5344
 2805TIP3    H132610   3.306   0.525  19.183  0.7725 -1.1042  0.9554
 2805TIP3    H232611   3.251   0.492  19.320  0.5632 -0.2346  1.0892
 2806TIP3   OH232612   4.764   0.937  19.812  0.2166  0.0187 -0.2403
 2806TIP3    H132613   4.784   0.989  19.890 -1.2700  1.6441 -0.8536
 2806TIP3    H232614   4.842   0.944  19.757 -0.2432  2.4578 -0.6988
 2807TIP3   OH232615   5.300   3.203  18.794  0.0622  0.1024 -0.1952
 2807TIP3    H132616   5.292   3.206  18.698  1.7253  3.8594 -0.3856
 2807TIP3    H232617   5.219   3.241  18.827 -0.2642 -0.6584 -0.0915
 2808TIP3   OH232618   5.233   4.696  16.451 -0.1058  1.0733  0.3797
 2808TIP3    H132619   5.211   4.603  16.449 -0.6236  1.1416  1.8683
 2808TIP3    H232620   5.164   4.738  16.400  0.4825  0.6000 -0.8437
 2809TIP3   OH232621   1.496   3.434  19.249  0.6195 -0.2296 -0.8884
 2809TIP3    H132622   1.464   3.348  19.276 -0.9380 -0.3539 -2.9164
 2809TIP3    H232623   1.416   3.485  19.234  1.5084  1.3499 -0.5036
 2810TIP3   OH232624   3.961   6.231  16.605  0.0135  0.5833  0.4081
 2810TIP3    H132625   4.046   6.224  16.561 -1.5350 -1.0150 -2.6819
 2810TIP3    H232626   3.948   6.145  16.645 -0.3141  0.7041  0.5669
 2811TIP3   OH232627   5.698   6.614  17.063  0.5496  0.5067  0.0271
 2811TIP3    H132628   5.774   6.559  17.044 -0.8721 -1.5353 -0.1324
 2811TIP3    H232629   5.656   6.572  17.138  0.2223  2.3154  0.9041
 2812TIP3   OH232630   4.379   5.530  17.660 -0.5767 -0.4352  0.2075
 2812TIP3    H132631   4.424   5.598  17.609 -0.9087  0.2877  0.8473
 2812TIP3    H232632   4.410   5.448  17.623 -0.7598  0.0651 -1.1016
 2813TIP3   OH232633   0.430   6.577  18.792  0.2989  0.4766 -0.8725
 2813TIP3    H132634   0.496   6.564  18.861  0.2287 -2.5530 -1.2369
 2813TIP3    H232635   0.439   6.500  18.736 -3.2603  0.1447 -1.1947
 2814TIP3   OH232636   4.248   4.411  18.712  0.1988  0.1083  0.1526
 2814TIP3    H132637   4.268   4.504  18.725  2.5281 -0.3348  0.3031
 2814TIP3    H232638   4.240   4.376  18.801 -1.5954  0.2870  0.0965
 2815TIP3   OH232639   2.746   0.579  19.822 -0.0116 -0.5253 -0.0985
 2815TIP3    H132640   2.715   0.531  19.745  0.4220 -2.3097  0.7822
 2815TIP3    H232641   2.798   0.515  19.870  1.7938  1.2520  0.4440
 2816TIP3   OH232642   3.228   5.658  17.972 -0.3435  0.2483  0.2785
 2816TIP3    H132643   3.182   5.637  18.053  0.4639  0.6693  0.8660
 2816TIP3    H232644   3.181   5.609  17.904 -0.8959 -0.2868  1.0260
 2817TIP3   OH232645   3.375   1.091  17.724 -0.3642  0.0455  0.7164
 2817TIP3    H132646   3.347   1.161  17.665  0.4548  0.9088  1.3287
 2817TIP3    H232647   3.342   1.011  17.683  1.4056  0.4375 -1.7427
 2818TIP3   OH232648   2.715   0.495  18.305 -0.1250 -0.6589  0.8834
 2818TIP3    H132649   2.706   0.511  18.211 -2.9344  1.6885  1.3858
 2818TIP3    H232650   2.777   0.562  18.335 -0.2608 -0.5218  0.8619
 2819TIP3   OH232651   4.112   2.375  17.622 -0.2163  0.4462  0.2324
 2819TIP3    H132652   4.147   2.418  17.544 -0.3413  0.9823  0.4691
 2819TIP3    H232653   4.080   2.290  17.590 -0.0184  0.5493 -0.2474
 2820TIP3   OH232654   3.410   3.470  18.441 -0.1270 -0.2389 -0.4251
 2820TIP3    H132655   3.464   3.405  18.487 -0.1092 -0.7968 -1.2102
 2820TIP3    H232656   3.348   3.501  18.507  1.1035  0.3764  0.4849
 2821TIP3   OH232657   4.098   3.080  17.370  0.2950 -0.5803 -0.5554
 2821TIP3    H132658   4.174   3.049  17.420 -0.2937 -0.5682  0.3798
 2821TIP3    H232659   4.103   3.176  17.376  0.1321 -0.5818 -0.3593
 2822TIP3   OH232660   0.780   0.743  18.662 -0.0900 -0.7241  0.3745
 2822TIP3    H132661   0.760   0.660  18.619  0.3607 -1.2491  1.1425
 2822TIP3    H232662   0.743   0.810  18.605 -0.7536 -1.4748 -0.0862
 2823TIP3   OH232663   2.510   1.673  17.753  0.6427 -0.1266 -0.0317
 2823TIP3    H132664   2.477   1.763  17.755  0.5858 -0.1554  0.4817
 2823TIP3    H232665   2.572   1.669  17.826  0.8465 -0.4276 -0.2216
 2824TIP3   OH232666   3.256   3.494  17.734  0.3177 -0.1529 -0.6020
 2824TIP3    H132667   3.218   3.408  17.716  0.4363 -0.1171 -1.0219
 2824TIP3    H232668   3.185   3.556  17.718 -0.0270 -0.2245  0.5323
 2825TIP3   OH232669   2.351   2.947  19.505 -0.3261 -0.5099 -0.3368
 2825TIP3    H132670   2.362   2.893  19.427 -0.4387  0.8078 -1.3019
 2825TIP3    H232671   2.438   2.949  19.545  0.3626  0.7765 -1.7992
 2826TIP3   OH232672   5.666   2.475  18.270 -0.1923 -0.2919 -0.3947
 2826TIP3    H132673   5.712   2.419  18.333  0.3514  0.2691 -0.2850
 2826TIP3    H232674   5.576   2.476  18.300 -0.0420 -0.4579  0.0677
 2827TIP3   OH232675   4.426   3.968  18.569  0.0397 -0.9765  0.6133
 2827TIP3    H132676   4.480   3.949  18.646 -0.8594 -0.8763  1.2776
 2827TIP3    H232677   4.374   3.889  18.556 -0.3342 -0.7227  0.5507
 2828TIP3   OH232678   6.525   2.630  18.042 -0.0671 -0.2721  0.1304
 2828TIP3    H132679   6.559   2.648  17.954 -0.8426 -2.6057 -0.7368
 2828TIP3    H232680   6.452   2.570  18.027  0.3032 -1.3849  2.4299
 2829TIP3   OH232681   1.106   2.967  18.426 -0.1859 -0.4964  0.0693
 2829TIP3    H132682   1.193   2.988  18.460  0.0739 -0.5136 -0.5793
 2829TIP3    H232683   1.123   2.913  18.349 -0.7526  0.1214 -0.4982
 2830TIP3   OH232684   1.283   0.222  19.393  0.0252  0.4706  0.4004
 2830TIP3    H132685   1.321   0.220  19.305 -0.7966  1.7841 -0.0002
 2830TIP3    H232686   1.216   0.290  19.390  0.1693  0.7488  2.1275
 2831TIP3   OH232687   1.259   5.255  19.349  0.0501 -0.5510  0.0445
 2831TIP3    H132688   1.338   5.310  19.351 -0.5818  0.3845  1.8802
 2831TIP3    H232689   1.187   5.317  19.360 -0.9240 -1.4467 -1.0895
 2832TIP3   OH232690   0.188   4.165  19.849  0.1102 -0.5323 -0.1516
 2832TIP3    H132691   0.180   4.108  19.925  2.3549 -0.0500  0.5430
 2832TIP3    H232692   0.209   4.251  19.886  0.3821 -0.0853 -1.2936
 2833TIP3   OH232693   1.523   2.851  18.073 -0.8201  0.0694 -0.5897
 2833TIP3    H132694   1.457   2.800  18.025  1.4263 -3.5522 -0.2349
 2833TIP3    H232695   1.605   2.832  18.028  0.6816  0.3976  1.8174
 2834TIP3   OH232696   6.291   4.568  16.220  0.4417 -0.6835  0.1954
 2834TIP3    H132697   6.350   4.632  16.260  0.7180  0.3761 -1.8004
 2834TIP3    H232698   6.343   4.529  16.149 -0.7735 -0.7608 -0.6775
 2835TIP3   OH232699   3.942   3.826  18.076  0.3950 -0.1237  0.9331
 2835TIP3    H132700   3.979   3.873  18.000 -0.5440 -0.2877  0.3496
 2835TIP3    H232701   3.847   3.826  18.059  0.2942 -1.4070  1.3988
 2836TIP3   OH232702   2.779   0.450  19.371 -0.0175  0.0055  0.5763
 2836TIP3    H132703   2.750   0.429  19.460 -0.9210 -1.4931 -0.0277
 2836TIP3    H232704   2.699   0.472  19.324  0.2202 -0.8043 -0.2501
 2837TIP3   OH232705   0.820   3.850  19.172 -0.1738 -0.1155  0.0070
 2837TIP3    H132706   0.842   3.765  19.135 -0.0324  0.4819 -1.3699
 2837TIP3    H232707   0.858   3.849  19.260  1.4546 -0.7931 -0.6607
 2838TIP3   OH232708   4.876   1.119  20.025  0.3977 -0.0689 -0.1844
 2838TIP3    H132709   4.879   1.198  19.970  0.8160 -0.4782 -0.7638
 2838TIP3    H232710   4.812   1.139  20.093  2.2389  1.7328  1.1545
 2839TIP3   OH232711   5.905   3.017  17.315 -0.0505  0.0317 -0.2142
 2839TIP3    H132712   5.964   2.947  17.285  0.6977 -0.0459  1.3413
 2839TIP3    H232713   5.820   2.994  17.278  0.1742 -1.7256  0.2588
 2840TIP3   OH232714   0.058   0.922  19.883  0.7327  0.5171  0.3537
 2840TIP3    H132715   0.086   0.977  19.810  1.2696 -0.2702 -0.0465
 2840TIP3    H232716   0.125   0.855  19.890  0.1551 -0.0194  0.9190
 2841TIP3   OH232717   0.526   6.023  17.012 -0.1239 -0.1043 -0.1796
 2841TIP3    H132718   0.468   6.089  17.051  0.5912  0.3614  0.1154
 2841TIP3    H232719   0.481   5.997  16.931 -0.5892  0.4872 -0.1228
 2842TIP3   OH232720   2.120   4.315  17.523 -0.7189 -0.0602  0.1507
 2842TIP3    H132721   2.177   4.281  17.454  0.4674  2.4676 -0.2526
 2842TIP3    H232722   2.107   4.407  17.499 -2.4698  0.2271  1.9234
 2843TIP3   OH232723   3.050   1.700  19.483  0.0018 -0.1068 -0.1916
 2843TIP3    H132724   3.086   1.644  19.551  1.1931  1.9701  0.9897
 2843TIP3    H232725   2.961   1.719  19.513 -0.4455 -1.3740 -0.6492
 2844TIP3   OH232726   5.179   5.683  16.304  0.1502  0.0008 -0.2883
 2844TIP3    H132727   5.182   5.766  16.255  1.2922  0.4794  0.5477
 2844TIP3    H232728   5.114   5.630  16.257 -0.9264  1.5187 -0.5940
 2845TIP3   OH232729   4.928   1.652  18.411  0.5064  0.3069 -0.2709
 2845TIP3    H132730   4.890   1.728  18.455  1.1735 -0.2237  1.3058
 2845TIP3    H232731   5.009   1.684  18.372 -0.0773  0.7784 -1.1190
 2846TIP3   OH232732   4.867   1.416  17.467 -0.3510  0.1339 -0.6004
 2846TIP3    H132733   4.834   1.380  17.385  1.8394 -1.0269 -1.0569
 2846TIP3    H232734   4.961   1.430  17.451  0.1879 -0.3401  1.7647
 2847TIP3   OH232735   2.635   0.094  16.585  0.0768  0.1299 -0.5668
 2847TIP3    H132736   2.546   0.059  16.582  0.7125 -1.7821  1.1493
 2847TIP3    H232737   2.688   0.024  16.621  1.8144  2.1423  1.0787
 2848TIP3   OH232738   6.445   4.932  19.079 -0.2148 -0.0855 -0.5528
 2848TIP3    H132739   6.458   5.008  19.023  1.6136 -0.1705 -0.2882
 2848TIP3    H232740   6.429   4.968  19.166  0.5721  0.0203 -0.4438
 2849TIP3   OH232741   3.967   2.382  18.863 -0.2767  0.0060  0.3264
 2849TIP3    H132742   3.878   2.370  18.898 -0.4417 -0.1457 -0.1341
 2849TIP3    H232743   3.955   2.378  18.768  0.0857  0.9737  0.2354
 2850TIP3   OH232744   5.120   1.766  17.562  0.2650  0.4099 -0.2327
 2850TIP3    H132745   5.171   1.835  17.604  0.6357  1.9714 -2.9799
 2850TIP3    H232746   5.029   1.784  17.586  0.3503  1.9972 -0.9914
 2851TIP3   OH232747   4.688   3.472  17.752 -0.0702 -0.6051  0.2349
 2851TIP3    H132748   4.755   3.500  17.691 -1.1242 -1.1622 -1.2311
 2851TIP3    H232749   4.728   3.400  17.801  0.8457 -0.0355  0.3262
 2852TIP3   OH232750   3.602   3.490  17.448  0.1075 -0.5083 -0.1556
 2852TIP3    H132751   3.566   3.575  17.472  0.6517 -0.2352 -0.2936
 2852TIP3    H232752   3.670   3.474  17.513  0.2655 -0.6646 -0.3581
 2853TIP3   OH232753   4.561   2.603  17.084 -0.2655  0.4199  0.1234
 2853TIP3    H132754   4.474   2.567  17.067  0.2594 -1.4005  0.9536
 2853TIP3    H232755   4.572   2.672  17.018 -0.8449 -1.8539 -2.5736
 2854TIP3   OH232756   0.558   6.049  19.780 -0.7188  0.1077  0.0413
 2854TIP3    H132757   0.508   5.977  19.743 -2.3754  0.8266  0.7952
 2854TIP3    H232758   0.560   6.031  19.874 -2.3172  1.6922  0.4167
 2855TIP3   OH232759   6.655   1.411  19.968 -0.6425  0.1534 -0.6081
 2855TIP3    H132760   6.575   1.379  19.926  0.3016 -1.2740 -1.3935
 2855TIP3    H232761   6.726   1.370  19.919  0.5470  0.0876  1.0918
 2856TIP3   OH232762   6.550   2.795  19.715 -0.5396 -0.2990  0.0428
 2856TIP3    H132763   6.581   2.821  19.802  2.1728 -0.9313 -0.6196
 2856TIP3    H232764   6.487   2.726  19.731  1.5127 -1.9669  1.5571
 2857TIP3   OH232765   0.377   4.338  18.150  0.3551  0.0441  0.1601
 2857TIP3    H132766   0.349   4.378  18.232 -2.4487 -1.9884  0.3218
 2857TIP3    H232767   0.352   4.246  18.158  1.5997 -0.5937 -2.2972
 2858TIP3   OH232768   1.262   0.369  17.996  0.2203 -0.3625  0.7072
 2858TIP3    H132769   1.312   0.410  18.067  0.2632  1.3729 -0.2749
 2858TIP3    H232770   1.205   0.438  17.964 -0.6945 -1.4771 -0.1564
 2859TIP3   OH232771   5.374   5.225  17.406  0.1833  0.1705  0.1736
 2859TIP3    H132772   5.410   5.192  17.324 -2.7608 -2.8063 -0.1284
 2859TIP3    H232773   5.314   5.295  17.380  1.1227  0.9543  0.0817
 2860TIP3   OH232774   0.525   5.633  16.300 -0.3734  0.2389  0.0780
 2860TIP3    H132775   0.587   5.699  16.269  0.3854  0.1550  1.3561
 2860TIP3    H232776   0.460   5.681  16.350  0.1119  0.0442  0.9081
 2861TIP3   OH232777   4.097   5.209  17.821 -0.0493 -0.2662 -0.2587
 2861TIP3    H132778   4.186   5.219  17.788 -0.1085  0.1499 -0.3019
 2861TIP3    H232779   4.087   5.115  17.835  0.2531 -0.3603 -0.6474
 2862TIP3   OH232780   5.671   4.355  19.708 -0.0060  0.0502  0.2418
 2862TIP3    H132781   5.668   4.351  19.612 -2.7237  1.4382  0.1576
 2862TIP3    H232782   5.600   4.298  19.736 -0.8241  1.5246  1.2850
 2863TIP3   OH232783   2.389   3.060  17.268 -0.0015 -0.0720 -0.4384
 2863TIP3    H132784   2.431   2.995  17.211 -0.9226 -1.3780  0.3110
 2863TIP3    H232785   2.403   3.144  17.224 -0.3066 -0.9795 -2.3741
 2864TIP3   OH232786   0.776   5.299  17.510 -0.4531 -0.2029  0.2915
 2864TIP3    H132787   0.691   5.273  17.545 -0.5134  0.2093  0.4559
 2864TIP3    H232788   0.825   5.327  17.588 -0.6323  0.8517  0.0297
 2865TIP3   OH232789   5.677   3.428  17.723 -0.2905 -0.4912 -0.0214
 2865TIP3    H132790   5.628   3.437  17.641 -0.8159 -1.8172  0.1155
 2865TIP3    H232791   5.619   3.467  17.789 -0.5345 -0.7725 -0.0659
 2866TIP3   OH232792   4.565   6.231  16.763  0.0117  0.3034 -0.0320
 2866TIP3    H132793   4.550   6.137  16.772 -2.0402  0.6681  1.0423
 2866TIP3    H232794   4.523   6.254  16.680 -0.8041  0.4818  0.4184
 2867TIP3   OH232795   1.372   4.313  18.030  0.0696 -0.5021  0.5566
 2867TIP3    H132796   1.291   4.298  18.079  0.2680 -1.3552  0.6470
 2867TIP3    H232797   1.344   4.358  17.950 -0.6010 -1.4445  0.2375
 2868TIP3   OH232798   6.139   3.656  17.739 -0.2885  0.1290  0.4330
 2868TIP3    H132799   6.049   3.689  17.737 -0.5273 -0.5151 -2.3814
 2868TIP3    H232800   6.133   3.568  17.702  1.2338 -0.8050  2.2430
 2869TIP3   OH232801   4.338   2.845  19.137 -0.0256 -0.2302 -0.8155
 2869TIP3    H132802   4.334   2.915  19.072 -2.1100 -0.6540 -1.2038
 2869TIP3    H232803   4.302   2.768  19.093  2.5177 -1.7331 -0.5116
 2870TIP3   OH232804   0.552   4.465  18.904 -0.3182 -0.1132 -0.1706
 2870TIP3    H132805   0.504   4.526  18.850 -0.5849  0.1462  0.3556
 2870TIP3    H232806   0.619   4.518  18.948  0.0577 -0.3636 -0.4326
 2871TIP3   OH232807   0.362   0.945  18.483 -0.3409  0.0049  0.9463
 2871TIP3    H132808   0.400   0.961  18.397 -0.7974 -1.7556  0.3693
 2871TIP3    H232809   0.365   1.030  18.527 -1.0170  1.1753 -1.1492
 2872TIP3   OH232810   5.344   1.770  16.697  0.3349 -0.2877 -0.1344
 2872TIP3    H132811   5.271   1.710  16.683 -0.7299  0.6843  1.1455
 2872TIP3    H232812   5.317   1.851  16.654  1.1392 -0.2319 -0.5668
 2873TIP3   OH232813   3.231   1.892  19.429  0.7468  0.3798 -0.2897
 2873TIP3    H132814   3.170   1.832  19.472  0.6358 -0.3881 -1.4676
 2873TIP3    H232815   3.183   1.925  19.353  1.0461  1.4664 -0.0319
 2874TIP3   OH232816   5.957   4.725  20.126 -0.0952 -0.2414 -0.5670
 2874TIP3    H132817   6.007   4.806  20.134 -0.4205  0.1143 -1.8272
 2874TIP3    H232818   5.941   4.716  20.032 -1.4440 -0.9223 -0.3014
 2875TIP3   OH232819   2.720   4.642  18.372  0.0650  0.9305  0.0537
 2875TIP3    H132820   2.759   4.585  18.306 -1.6043  1.1272 -1.1708
 2875TIP3    H232821   2.693   4.720  18.323 -0.3158  1.5202  1.1648
 2876TIP3   OH232822   0.319   2.292  18.517 -0.0405  0.2679  0.2433
 2876TIP3    H132823   0.404   2.300  18.474 -0.3817 -0.3751 -0.5682
 2876TIP3    H232824   0.282   2.381  18.512  0.6947  0.6235  0.8728
 2877TIP3   OH232825   6.472   6.394  19.791  0.2977 -0.5838 -0.6014
 2877TIP3    H132826   6.380   6.421  19.782 -0.1830 -1.3958  1.3346
 2877TIP3    H232827   6.521   6.471  19.763 -1.0184  0.8605  0.8125
 2878TIP3   OH232828   1.578   1.344  19.918 -0.2333 -0.0314  0.2888
 2878TIP3    H132829   1.521   1.272  19.945 -0.6449  0.3644  0.4915
 2878TIP3    H232830   1.641   1.353  19.990  0.2365 -0.6246 -0.0426
 2879TIP3   OH232831   5.856   4.548  18.480  0.7704  0.7090  0.1342
 2879TIP3    H132832   5.918   4.520  18.547  1.2046  1.1350 -0.0821
 2879TIP3    H232833   5.867   4.643  18.475  0.5255  0.7169 -0.3267
 2880TIP3   OH232834   6.159   4.576  18.313 -0.2653  0.1816  0.0257
 2880TIP3    H132835   6.169   4.670  18.327 -0.7056  0.1084  0.8621
 2880TIP3    H232836   6.246   4.540  18.328  0.0749  0.5311 -1.0126
 2881TIP3   OH232837   6.077   4.473  18.647 -0.0868 -0.2953 -0.1446
 2881TIP3    H132838   6.134   4.549  18.634  0.1954 -0.8520 -2.5866
 2881TIP3    H232839   6.137   4.399  18.658 -0.3111 -0.7252 -1.6711
 2882TIP3   OH232840   2.754   3.203  19.917  0.2481  0.0124 -0.3739
 2882TIP3    H132841   2.801   3.141  19.972 -0.2965  0.4878  0.6424
 2882TIP3    H232842   2.699   3.148  19.861  0.6082 -0.4565 -0.2804
 2883TIP3   OH232843   2.574   3.236  18.198 -0.2059  0.4561 -0.4201
 2883TIP3    H132844   2.589   3.173  18.127 -0.8155  1.0919 -1.1198
 2883TIP3    H232845   2.655   3.288  18.201  0.3724 -0.4485  0.2784
 2884TIP3   OH232846   0.287   4.731  17.967  0.4618  0.3335 -0.4628
 2884TIP3    H132847   0.377   4.700  17.974  0.2270 -0.1654  0.6245
 2884TIP3    H232848   0.239   4.656  17.934  0.4364  0.5941 -1.0246
 2885TIP3   OH232849   4.139   5.187  16.990  0.2076  0.2692  0.0868
 2885TIP3    H132850   4.046   5.167  17.000  0.4948 -0.4378  1.6670
 2885TIP3    H232851   4.149   5.274  17.029  0.5793 -0.6725  2.2493
 2886TIP3   OH232852   6.229   6.249  19.038 -0.3513 -0.1320  0.1179
 2886TIP3    H132853   6.180   6.178  18.996 -1.3388  0.8201 -0.3699
 2886TIP3    H232854   6.314   6.210  19.059 -0.2285 -0.9729 -1.7500
 2887TIP3   OH232855   6.152   4.559  16.455 -0.2440  0.0574 -0.4539
 2887TIP3    H132856   6.171   4.563  16.361  1.1672 -1.1537 -0.2553
 2887TIP3    H232857   6.210   4.624  16.494 -0.2224 -0.0319 -0.3382
 2888TIP3   OH232858   2.407   5.687  17.488 -0.0888  0.4363  0.2476
 2888TIP3    H132859   2.330   5.716  17.439 -0.2523 -0.1911  0.1254
 2888TIP3    H232860   2.425   5.599  17.455  0.1292  0.2226  0.9253
 2889TIP3   OH232861   1.613   3.273  17.559 -0.3282  0.2118 -0.2226
 2889TIP3    H132862   1.698   3.249  17.523 -0.7142  0.8916 -1.6630
 2889TIP3    H232863   1.632   3.341  17.624  0.1914  0.6319 -0.8113
 2890TIP3   OH232864   1.857   0.038  18.254  0.2981  0.1330  0.5622
 2890TIP3    H132865   1.952   0.024  18.254  0.3649  0.4802  1.6145
 2890TIP3    H232866   1.823  -0.032  18.199  1.1188 -0.4168  0.7248
 2891TIP3   OH232867   0.412   5.256  19.795  0.1584  0.2632 -0.4625
 2891TIP3    H132868   0.390   5.174  19.841 -1.8943  0.2912 -1.2833
 2891TIP3    H232869   0.328   5.287  19.760  1.5167  0.3952 -3.9829
 2892TIP3   OH232870   5.093   3.874  19.092  0.0127 -0.0212 -0.5130
 2892TIP3    H132871   5.160   3.904  19.153 -0.7796  4.4060 -1.4428
 2892TIP3    H232872   5.020   3.847  19.148  0.7396  0.0248  0.4808
 2893TIP3   OH232873   0.669   3.602  20.139 -0.5944  0.6630  0.0113
 2893TIP3    H132874   0.578   3.603  20.169  0.1865  2.1163  2.5806
 2893TIP3    H232875   0.677   3.519  20.092 -3.0995  0.2654  0.1254
 2894TIP3   OH232876   4.136   0.795  18.132  0.2019  0.0624  0.0338
 2894TIP3    H132877   4.078   0.719  18.137  1.4106 -0.8078  1.2831
 2894TIP3    H232878   4.203   0.771  18.068  0.6174  0.0579  0.4687
 2895TIP3   OH232879   3.249   5.563  19.266 -0.2317  0.3307 -0.5826
 2895TIP3    H132880   3.241   5.553  19.361  0.0241  0.7627 -0.5124
 2895TIP3    H232881   3.257   5.474  19.232 -1.8702  0.0675 -0.3441
 2896TIP3   OH232882   5.726   1.143  17.773 -0.1382  0.1445  0.5644
 2896TIP3    H132883   5.728   1.233  17.805 -0.2493  0.2185  0.3641
 2896TIP3    H232884   5.818   1.114  17.778  0.1545  0.7562 -0.7237
 2897TIP3   OH232885   0.857   2.614  17.684  0.1908  0.4295 -0.4716
 2897TIP3    H132886   0.949   2.611  17.711 -0.2594  0.7529  1.2379
 2897TIP3    H232887   0.847   2.700  17.642  0.7675  0.2134 -1.0491
 2898TIP3   OH232888   4.855   2.449  18.413  0.1033  0.5933 -0.1637
 2898TIP3    H132889   4.868   2.357  18.394  0.2593  0.5960 -0.0717
 2898TIP3    H232890   4.904   2.465  18.494 -0.5893  0.5702  0.2716
 2899TIP3   OH232891   1.156   1.366  17.021  0.3054  0.1968 -0.0628
 2899TIP3    H132892   1.184   1.336  16.934  0.0146  0.5883 -0.2943
 2899TIP3    H232893   1.209   1.444  17.037  0.0814  0.3466 -0.0547
 2900TIP3   OH232894   5.484   2.971  16.888  0.4214  0.0916  0.2799
 2900TIP3    H132895   5.434   3.028  16.829  0.6068 -1.6375 -1.6569
 2900TIP3    H232896   5.508   2.896  16.834 -1.2437 -2.7262  3.1432
 2901TIP3   OH232897   2.662   3.584  17.397  0.3916 -0.5352 -0.0271
 2901TIP3    H132898   2.613   3.663  17.422  0.9236 -0.7290  1.7928
 2901TIP3    H232899   2.638   3.568  17.306  0.1969  1.6871 -0.4264
 2902TIP3   OH232900   0.005   5.715  16.508  0.3632 -0.0533  0.5419
 2902TIP3    H132901   0.033   5.768  16.434 -1.7467  0.8888  0.3422
 2902TIP3    H232902   0.053   5.633  16.499 -0.0101 -0.0541 -2.0229
 2903TIP3   OH232903   1.889   1.750  18.496 -0.1079  0.0632  0.1724
 2903TIP3    H132904   1.869   1.827  18.444  2.7446 -0.2508 -1.6142
 2903TIP3    H232905   1.817   1.690  18.479 -1.5734  1.6817  0.3605
 2904TIP3   OH232906   1.235   4.326  18.955 -0.3384 -0.1247 -0.3772
 2904TIP3    H132907   1.264   4.397  18.898 -0.6380 -0.2823 -0.7343
 2904TIP3    H232908   1.305   4.261  18.951  0.5856  0.7427  1.0519
 2905TIP3   OH232909   4.762   1.871  18.539  0.3451 -0.4615 -0.1516
 2905TIP3    H132910   4.809   1.950  18.566 -0.6051  0.3575 -0.8279
 2905TIP3    H232911   4.670   1.892  18.550  0.0811 -1.8517  0.6126
 2906TIP3   OH232912   3.135   3.816  16.984 -0.5251  0.1525  0.0180
 2906TIP3    H132913   3.066   3.750  16.976 -0.9617  0.6563 -0.4645
 2906TIP3    H232914   3.093   3.898  16.959  0.2246  0.4895 -0.1713
 2907TIP3   OH232915   4.078   6.116  20.158 -0.0054 -0.9371 -0.3331
 2907TIP3    H132916   4.092   6.207  20.134  1.6075 -1.4641 -1.5928
 2907TIP3    H232917   4.160   6.089  20.200 -1.1146 -1.3387  1.7040
 2908TIP3   OH232918   1.942   3.526  20.343  0.1904  0.4029 -0.1674
 2908TIP3    H132919   2.003   3.455  20.362 -0.9549 -0.7321 -0.5429
 2908TIP3    H232920   1.933   3.573  20.425 -0.1224 -0.7686  0.4923
 2909TIP3   OH232921   1.475   5.491  19.319 -0.6369 -0.0066 -0.2956
 2909TIP3    H132922   1.508   5.569  19.362  0.9973 -2.0771  2.5198
 2909TIP3    H232923   1.553   5.446  19.286 -1.3036 -1.3586 -0.1267
 2910TIP3   OH232924   0.115   2.866  18.322 -0.2348  0.1901 -0.0972
 2910TIP3    H132925   0.119   2.896  18.232 -1.0135  1.3662  0.2403
 2910TIP3    H232926   0.089   2.774  18.316  1.6081 -0.3142 -1.1277
 2911TIP3   OH232927   6.526   0.973  19.512  0.0111  0.1686 -0.3003
 2911TIP3    H132928   6.482   0.901  19.559 -1.2172  0.4032 -1.0550
 2911TIP3    H232929   6.545   0.937  19.426  2.1025 -0.1983  0.2568
 2912TIP3   OH232930   3.023   4.265  17.192  0.2914  0.5935  0.2453
 2912TIP3    H132931   3.027   4.360  17.205 -1.9496  0.6159  1.2753
 2912TIP3    H232932   2.948   4.253  17.134  0.8255 -0.5332 -0.2235
 2913TIP3   OH232933   6.324   4.490  17.401  0.2049  0.5115  0.0406
 2913TIP3    H132934   6.276   4.408  17.397 -0.3709  0.7921  1.0617
 2913TIP3    H232935   6.321   4.516  17.493 -0.6741  2.2813 -0.4465
 2914TIP3   OH232936   3.535   2.239  17.503 -0.1888 -0.5094 -0.1708
 2914TIP3    H132937   3.545   2.176  17.432  0.5084 -1.4198  0.6983
 2914TIP3    H232938   3.445   2.229  17.533 -0.1717 -0.8696 -0.2432
 2915TIP3   OH232939   5.778   1.099  19.755  0.3701  0.5927 -0.2586
 2915TIP3    H132940   5.742   1.098  19.666 -1.1029  1.4129  0.2754
 2915TIP3    H232941   5.707   1.136  19.808  0.1125 -2.4263  1.7461
 2916TIP3   OH232942   1.452   2.442  18.983  0.2024  0.0913  0.3009
 2916TIP3    H132943   1.544   2.439  18.956 -0.1034 -0.9257 -0.7125
 2916TIP3    H232944   1.404   2.403  18.909 -1.0356  0.5237  0.8496
 2917TIP3   OH232945   6.423   0.750  19.624  0.4577  0.0447 -0.1678
 2917TIP3    H132946   6.327   0.753  19.616  0.4843  0.6529 -0.2498
 2917TIP3    H232947   6.451   0.690  19.554  0.0724 -0.8508  0.4235
 2918TIP3   OH232948   4.075   5.869  16.793  0.3329 -0.0662  0.2170
 2918TIP3    H132949   3.991   5.909  16.773 -0.2320 -1.8805 -1.3484
 2918TIP3    H232950   4.088   5.805  16.723  2.4659 -0.6491  1.0774
 2919TIP3   OH232951   1.384   3.343  18.598 -0.3628 -0.5301  0.1609
 2919TIP3    H132952   1.374   3.407  18.669 -0.9966 -1.2466  0.7276
 2919TIP3    H232953   1.380   3.258  18.641  0.4144 -0.9636 -0.5980
 2920TIP3   OH232954   0.527   0.353  19.844  0.0737 -0.2830  0.5880
 2920TIP3    H132955   0.573   0.345  19.928  0.9242  0.1775  0.1737
 2920TIP3    H232956   0.476   0.272  19.837  0.8105 -0.7987  1.0627
 2921TIP3   OH232957   1.237   2.713  19.232  0.7069 -0.3073  0.4539
 2921TIP3    H132958   1.256   2.622  19.253  2.4008 -0.1560 -0.2834
 2921TIP3    H232959   1.218   2.713  19.138  0.5385  0.0894  0.4823
 2922TIP3   OH232960   2.841   0.483  17.720  0.5348  0.1009  0.0032
 2922TIP3    H132961   2.798   0.399  17.734  0.0297  0.1476 -1.1970
 2922TIP3    H232962   2.907   0.488  17.789  0.9258 -1.5158 -0.2315
 2923TIP3   OH232963   4.015   1.307  17.156  0.9269 -0.6025 -0.4075
 2923TIP3    H132964   4.016   1.267  17.068 -1.5819 -0.6759 -0.4683
 2923TIP3    H232965   4.016   1.401  17.139  3.3997 -0.5562 -0.3624
 2924TIP3   OH232966   3.865   5.326  19.524  0.6739  0.4303  0.2434
 2924TIP3    H132967   3.796   5.366  19.471 -0.3413 -1.3248  0.1385
 2924TIP3    H232968   3.910   5.267  19.463  0.5788 -0.3664  0.9261
 2925TIP3   OH232969   5.561   1.888  19.851 -0.0844 -0.0189 -0.0060
 2925TIP3    H132970   5.488   1.942  19.820 -0.8572 -1.8767 -1.6744
 2925TIP3    H232971   5.583   1.924  19.936 -3.5463  0.1304  1.0014
 2926TIP3   OH232972   2.734   1.689  19.193 -0.4250  0.1187  0.0067
 2926TIP3    H132973   2.820   1.710  19.229 -1.0336 -1.4019  2.6271
 2926TIP3    H232974   2.693   1.774  19.175  0.5986  0.9188  1.3266
 2927TIP3   OH232975   1.826   4.138  16.865  0.1412 -0.2036  0.8637
 2927TIP3    H132976   1.901   4.162  16.811 -0.3024 -0.5587  0.0612
 2927TIP3    H232977   1.752   4.186  16.827  0.0988  0.7829  2.1517
 2928TIP3   OH232978   2.660   4.853  17.741 -0.0399 -0.5998 -0.4987
 2928TIP3    H132979   2.729   4.907  17.702  0.4541 -1.3594 -0.6947
 2928TIP3    H232980   2.646   4.892  17.828 -0.8631  0.8455 -1.2530
 2929TIP3   OH232981   5.759   1.835  16.777  0.2401  0.5746  0.2340
 2929TIP3    H132982   5.782   1.779  16.702  0.1701 -1.6082  1.7374
 2929TIP3    H232983   5.790   1.922  16.752 -0.2817  0.0740 -2.5536
 2930TIP3   OH232984   6.441   0.158  19.814  0.1462 -0.1192  0.4002
 2930TIP3    H132985   6.461   0.106  19.736 -2.1693 -0.8036  0.1977
 2930TIP3    H232986   6.511   0.138  19.875  0.7748 -1.3479 -0.6795
 2931TIP3   OH232987   5.604   4.483  18.696 -0.4373 -0.2950 -0.2879
 2931TIP3    H132988   5.541   4.459  18.765  0.9547 -0.9453  0.8226
 2931TIP3    H232989   5.652   4.401  18.680 -0.0536  0.1245 -1.2909
 2932TIP3   OH232990   0.035   4.505  18.259  0.1151  0.4915 -0.1998
 2932TIP3    H132991   0.040   4.435  18.195 -0.3826  0.3748 -0.1089
 2932TIP3    H232992   0.106   4.486  18.321  0.1066  0.1813 -0.2869
 2933TIP3   OH232993   3.090   0.328  19.306 -0.1534  0.0336 -0.6815
 2933TIP3    H132994   3.083   0.252  19.363  0.5045  0.2554 -0.2980
 2933TIP3    H232995   3.056   0.401  19.359  0.1148  0.1754 -0.7025
 2934TIP3   OH232996   6.165   1.326  19.966 -0.2280  0.1674 -0.2201
 2934TIP3    H132997   6.138   1.250  19.914  0.2386  1.5393 -2.6137
 2934TIP3    H232998   6.083   1.364  19.998 -0.6677  0.1689 -1.3033
 2935TIP3   OH232999   1.414   1.486  16.653 -0.2028  0.2941  0.1632
 2935TIP3    H133000   1.420   1.538  16.573  0.1871 -0.6967 -0.4762
 2935TIP3    H233001   1.468   1.533  16.716  1.2351 -0.0051 -0.7973
 2936TIP3   OH233002   2.215   6.110  17.371  0.0334 -0.4575  0.0817
 2936TIP3    H133003   2.127   6.099  17.335  0.1236  0.6257 -0.5053
 2936TIP3    H233004   2.272   6.112  17.294  0.6663 -1.7911  0.4797
 2937TIP3   OH233005   3.400   1.300  19.041 -0.3683 -0.3292 -0.1536
 2937TIP3    H133006   3.449   1.265  19.115 -0.0398 -2.8782 -1.4449
 2937TIP3    H233007   3.443   1.383  19.021 -0.1322  0.1617  2.1284
 2938TIP3   OH233008   4.370   4.855  17.584 -0.1079 -0.5227 -0.2647
 2938TIP3    H133009   4.446   4.863  17.642 -1.0446 -0.1588  0.9594
 2938TIP3    H233010   4.405   4.820  17.503  1.2741 -0.9618  0.4919
 2939TIP3   OH233011   3.597   5.559  18.613 -0.2142 -0.0337  0.0638
 2939TIP3    H133012   3.693   5.563  18.620 -0.1641 -2.1349  1.3299
 2939TIP3    H233013   3.582   5.521  18.527  0.1864 -1.3063  0.5286
 2940TIP3   OH233014   0.290   3.217  18.946 -0.4663 -0.5256  0.2994
 2940TIP3    H133015   0.283   3.311  18.932 -1.5948 -0.4024  1.4068
 2940TIP3    H233016   0.355   3.187  18.883 -1.1643  0.7601 -1.0939
 2941TIP3   OH233017   2.937   3.512  17.967 -0.3980  0.2601 -0.4025
 2941TIP3    H133018   2.899   3.596  17.941 -1.7615  0.2870  1.5296
 2941TIP3    H233019   3.024   3.534  17.999 -0.1620  0.7064 -1.3087
 2942TIP3   OH233020   6.150   4.254  20.380  0.1339 -0.2192 -0.1814
 2942TIP3    H133021   6.069   4.305  20.385  0.5391  0.6324 -1.7316
 2942TIP3    H233022   6.187   4.261  20.468 -0.2899  1.3990 -0.0992
 2943TIP3   OH233023   1.258   1.862  18.748 -0.0115 -0.2235  0.5416
 2943TIP3    H133024   1.244   1.956  18.759  0.6467 -0.0405 -0.0893
 2943TIP3    H233025   1.211   1.822  18.821  1.6148  0.7377  2.1949
 2944TIP3   OH233026   6.356   3.114  16.393 -0.2762  0.3148 -0.1193
 2944TIP3    H133027   6.299   3.150  16.326 -0.2425  2.0836  0.7477
 2944TIP3    H233028   6.355   3.020  16.378 -1.0419  0.5879 -1.9654
 2945TIP3   OH233029   3.472   6.047  19.263  0.6985  0.5316 -0.1446
 2945TIP3    H133030   3.379   6.033  19.284  0.2891 -0.9317 -2.4888
 2945TIP3    H233031   3.481   6.142  19.258 -1.2833  0.7152 -1.9832
 2946TIP3   OH233032   0.356   2.286  17.278  0.3145 -0.9674 -0.1354
 2946TIP3    H133033   0.400   2.214  17.324 -0.8727 -2.2355 -0.8905
 2946TIP3    H233034   0.328   2.345  17.348  2.1362 -0.6934  0.4437
 2947TIP3   OH233035   5.468   5.004  18.602  0.3048  0.0454 -0.0200
 2947TIP3    H133036   5.533   5.027  18.669 -0.0941  0.7231  0.1423
 2947TIP3    H233037   5.451   4.911  18.617  0.4064  0.1308  0.6727
 2948TIP3   OH233038   6.278   5.023  18.493 -0.4159  0.0526  0.1213
 2948TIP3    H133039   6.259   4.958  18.426  2.7371 -0.4903 -0.3946
 2948TIP3    H233040   6.200   5.023  18.549 -2.1130 -1.2725 -2.0792
 2949TIP3   OH233041   2.312   2.820  20.343 -0.0808 -0.7406 -0.6280
 2949TIP3    H133042   2.380   2.772  20.295  1.9926  1.9857 -0.6742
 2949TIP3    H233043   2.340   2.818  20.434  1.4924  2.2952 -0.9167
 2950TIP3   OH233044   1.433   0.549  20.036  0.0420 -0.9241 -0.3952
 2950TIP3    H133045   1.367   0.538  19.968 -0.8422 -2.6535  0.6637
 2950TIP3    H233046   1.392   0.605  20.102  0.4584 -0.2130 -0.7337
 2951TIP3   OH233047   5.571   5.902  18.732 -0.0288  0.4123  0.1999
 2951TIP3    H133048   5.570   5.841  18.657 -0.6112  0.6256  0.0216
 2951TIP3    H233049   5.662   5.930  18.740  0.1856 -0.2386  0.0809
 2952TIP3   OH233050   3.571   5.280  17.611 -0.3191  0.1262  0.5137
 2952TIP3    H133051   3.601   5.197  17.575  0.5479  0.5947  0.1134
 2952TIP3    H233052   3.495   5.258  17.665  0.4575 -1.0348  1.1602
 2953TIP3   OH233053   6.341   2.213  18.763 -0.5238 -0.0654 -0.2293
 2953TIP3    H133054   6.334   2.162  18.682  0.5904 -0.2206 -0.2405
 2953TIP3    H233055   6.415   2.175  18.809  0.4292  1.6280 -0.2910
 2954TIP3   OH233056   5.775   1.323  18.004 -0.0772  0.4655 -0.1936
 2954TIP3    H133057   5.833   1.391  18.039  1.1995 -0.1852 -0.9713
 2954TIP3    H233058   5.735   1.362  17.927 -0.2220  0.7079  0.0010
 2955TIP3   OH233059   3.382   6.163  17.153  0.2125 -0.3583 -0.2290
 2955TIP3    H133060   3.369   6.143  17.246 -0.0572  0.6461 -0.0357
 2955TIP3    H233061   3.467   6.123  17.132 -0.5223 -2.0816 -0.0244
 2956TIP3   OH233062   5.066   1.072  18.854  0.1662 -0.6486  0.4151
 2956TIP3    H133063   5.032   1.161  18.854  0.4445 -0.5047 -1.3751
 2956TIP3    H233064   5.161   1.083  18.846  0.2916 -1.1106  1.1246
 2957TIP3   OH233065   6.612   6.001  20.202 -0.1771  0.1813  0.2156
 2957TIP3    H133066   6.684   5.955  20.243  0.3917  1.4119  0.6587
 2957TIP3    H233067   6.653   6.053  20.133 -0.5003  1.5357  1.0098
 2958TIP3   OH233068   2.122   0.252  17.605  0.1712 -0.0183 -0.1194
 2958TIP3    H133069   2.137   0.253  17.699 -1.9547 -0.6148  0.2901
 2958TIP3    H233070   2.027   0.251  17.596  0.2606  1.9906 -2.3228
 2959TIP3   OH233071   6.423   0.573  19.036  0.0877 -0.1481 -0.5376
 2959TIP3    H133072   6.414   0.668  19.024 -1.5010 -0.2644 -0.4626
 2959TIP3    H233073   6.425   0.561  19.131 -0.0821 -0.2203 -0.5428
 2960TIP3   OH233074   6.011   4.722  17.909 -0.3117  0.3182 -0.3157
 2960TIP3    H133075   5.955   4.678  17.973 -0.2704  0.8394  0.0922
 2960TIP3    H233076   6.089   4.668  17.904  0.8112  1.5630  2.0189
 2961TIP3   OH233077   4.399   3.188  19.647 -0.2479  0.1527  0.1136
 2961TIP3    H133078   4.368   3.204  19.737  1.4572 -0.6997  0.8934
 2961TIP3    H233079   4.352   3.253  19.595 -0.2045  1.6851  1.8440
 2962TIP3   OH233080   1.955   3.728  18.168  0.1057  0.2090  0.1627
 2962TIP3    H133081   1.995   3.641  18.175  1.6048  0.7309 -1.1903
 2962TIP3    H233082   1.972   3.755  18.078  1.3042  2.6319  1.0191
 2963TIP3   OH233083   1.965   2.986  16.854  0.4257  0.1211  0.0998
 2963TIP3    H133084   1.994   3.072  16.825 -0.4404 -0.0977 -1.5707
 2963TIP3    H233085   2.015   2.924  16.800 -0.5993 -0.3346 -0.3582
 2964TIP3   OH233086   4.598   1.671  18.068 -0.3915  0.0566 -0.2284
 2964TIP3    H133087   4.589   1.637  17.979 -0.4137  0.3520 -0.3411
 2964TIP3    H233088   4.650   1.605  18.113 -0.1377  0.0366 -0.5393
 2965TIP3   OH233089   0.434   5.702  17.438  0.3293  0.1063 -0.1261
 2965TIP3    H133090   0.460   5.739  17.523 -0.6540  0.7611 -0.0924
 2965TIP3    H233091   0.374   5.767  17.401  1.0758  0.0414 -1.5375
 2966TIP3   OH233092   1.232   0.608  19.853 -0.4595  0.3376 -0.3709
 2966TIP3    H133093   1.180   0.675  19.807  0.0662  0.7996 -0.3020
 2966TIP3    H233094   1.253   0.544  19.785 -0.8484  0.3062 -0.4682
 2967TIP3   OH233095   5.166   0.804  18.693 -0.3020 -0.0586  0.2936
 2967TIP3    H133096   5.239   0.810  18.631 -0.5398 -0.0610  0.0147
 2967TIP3    H233097   5.089   0.829  18.642 -0.9469 -2.7199 -0.1915
 2968TIP3   OH233098   1.138   3.900  17.051 -0.3931 -0.0826 -0.1844
 2968TIP3    H133099   1.151   3.911  17.145  0.6004 -0.3670 -0.2794
 2968TIP3    H233100   1.057   3.849  17.044  0.4540 -1.5975  0.5807
 2969TIP3   OH233101   1.437   1.787  18.149  0.4696 -0.1196  0.1485
 2969TIP3    H133102   1.416   1.880  18.149  0.8606 -0.0282  0.9788
 2969TIP3    H233103   1.352   1.743  18.155  0.2756  0.1746 -0.3868
 2970TIP3   OH233104   6.338   2.602  18.714  0.4343  0.4017  0.4731
 2970TIP3    H133105   6.383   2.686  18.720  2.3337  0.1869 -5.3000
 2970TIP3    H233106   6.409   2.537  18.714 -0.9662 -1.4410  4.4145
 2971TIP3   OH233107   5.432   0.036  18.643  0.2691 -0.3979 -0.2974
 2971TIP3    H133108   5.338   0.052  18.654  0.0510 -1.4090 -0.5762
 2971TIP3    H233109   5.471   0.071  18.723 -0.0930  1.8500 -1.0267
 2972TIP3   OH233110   5.741   6.271  17.515 -0.2522  0.7283  0.4409
 2972TIP3    H133111   5.802   6.273  17.441  1.1089  2.7720  1.5370
 2972TIP3    H233112   5.729   6.178  17.533  2.1954  0.2315 -0.1422
 2973TIP3   OH233113   0.584   3.861  17.316  0.6026  0.0460  0.1414
 2973TIP3    H133114   0.574   3.823  17.229  0.6661  3.6215 -1.6274
 2973TIP3    H233115   0.605   3.787  17.373 -1.2980 -2.7248 -2.4708
 2974TIP3   OH233116   2.020   0.823  19.642 -0.1359 -0.2381  0.2072
 2974TIP3    H133117   2.095   0.865  19.684  2.3723 -1.8109 -2.2949
 2974TIP3    H233118   1.973   0.780  19.714  1.9667 -0.0358  1.8021
 2975TIP3   OH233119   1.211   5.598  19.296 -0.1077  0.7769  0.2588
 2975TIP3    H133120   1.213   5.681  19.343 -0.1521  1.0091 -0.1454
 2975TIP3    H233121   1.285   5.548  19.331 -0.2015  0.9042  0.6452
 2976TIP3   OH233122   5.817   6.244  19.439  0.3847 -0.6877 -0.1722
 2976TIP3    H133123   5.863   6.327  19.452 -2.5377  1.4160 -2.0078
 2976TIP3    H233124   5.761   6.235  19.515  0.1050 -0.5591 -0.3639
 2977TIP3   OH233125   3.958   1.421  19.445  0.0212 -0.1032  0.0207
 2977TIP3    H133126   3.906   1.394  19.370 -1.1412  1.1748  0.3307
 2977TIP3    H233127   3.894   1.437  19.515  1.0174 -0.5829  1.0853
 2978TIP3   OH233128   2.653   6.504  19.538 -0.0262 -0.0179  0.1036
 2978TIP3    H133129   2.741   6.497  19.502  1.1496  0.4090  2.6261
 2978TIP3    H233130   2.657   6.453  19.619 -2.0000  0.2940  0.4320
 2979TIP3   OH233131   4.185   5.365  18.368  0.1491  0.2689 -0.1267
 2979TIP3    H133132   4.182   5.459  18.354  1.3935  0.4275  0.5926
 2979TIP3    H233133   4.197   5.328  18.280 -0.4236  0.7577 -0.4198
 2980TIP3   OH233134   3.827   2.325  16.961 -0.0969 -0.0262  0.0107
 2980TIP3    H133135   3.868   2.363  17.038  1.2698 -0.9862 -0.1992
 2980TIP3    H233136   3.864   2.374  16.887  0.1514 -0.4283 -0.1395
 2981TIP3   OH233137   1.351   5.941  18.475  0.1438  0.3948  0.6002
 2981TIP3    H133138   1.384   6.001  18.542  1.7892 -0.6721  0.8164
 2981TIP3    H233139   1.272   5.902  18.513 -2.7425  4.3697 -0.6381
 2982TIP3   OH233140   5.931   4.004  17.029 -0.1059 -0.3846  0.2407
 2982TIP3    H133141   5.989   4.000  16.953  0.4554 -0.3174  0.6562
 2982TIP3    H233142   5.869   3.932  17.016  0.3704 -0.7601  0.0270
 2983TIP3   OH233143   6.089   1.912  17.015  0.3207 -0.1031 -0.3407
 2983TIP3    H133144   6.027   1.939  16.948  2.1561  1.7348 -1.3962
 2983TIP3    H233145   6.165   1.881  16.966  1.9710  1.9184  0.7987
 2984TIP3   OH233146   1.527   3.731  17.271  0.3071  0.2227  0.1255
 2984TIP3    H133147   1.543   3.647  17.314 -2.8011 -0.7823 -0.4219
 2984TIP3    H233148   1.504   3.790  17.343  2.0432  0.5378  0.4642
 2985TIP3   OH233149   1.757   6.418  18.354 -0.4472 -0.1122  0.2140
 2985TIP3    H133150   1.760   6.483  18.283 -0.2872 -0.6410 -0.2686
 2985TIP3    H233151   1.674   6.373  18.342  0.4603 -1.5616 -0.8715
 2986TIP3   OH233152   1.095   4.255  20.316  0.0524 -0.2143  0.6639
 2986TIP3    H133153   1.055   4.331  20.274  0.9667  0.9918  1.9002
 2986TIP3    H233154   1.024   4.191  20.324 -0.9936  0.9166  0.5524
 2987TIP3   OH233155   5.404   1.658  19.945 -0.2085  0.0556 -0.3028
 2987TIP3    H133156   5.441   1.716  19.878 -0.4300  1.0467  0.4010
 2987TIP3    H233157   5.359   1.589  19.896  0.9447 -0.1111 -1.1735
 2988TIP3   OH233158   3.115   4.236  18.587 -0.0420 -0.1317 -0.4760
 2988TIP3    H133159   3.166   4.160  18.556 -1.0675 -0.5815 -1.1102
 2988TIP3    H233160   3.139   4.244  18.679 -0.4095 -1.6580 -0.2132
 2989TIP3   OH233161   0.071   5.499  16.785  0.5228  0.2686  0.1671
 2989TIP3    H133162   0.041   5.490  16.695 -0.7982  1.1582  0.4932
 2989TIP3    H233163   0.114   5.585  16.787  0.0386  0.5022  0.5244
 2990TIP3   OH233164   3.674   3.790  18.028  0.7741  0.4133 -0.1776
 2990TIP3    H133165   3.616   3.865  18.022  1.0143  0.7135  0.9377
 2990TIP3    H233166   3.627   3.719  17.984  0.8633  1.3754 -1.8871
 2991TIP3   OH233167   3.594   6.413  18.024 -0.2789  0.4387 -0.4043
 2991TIP3    H133168   3.682   6.417  17.986 -0.0033 -1.6441 -0.1263
 2991TIP3    H233169   3.586   6.494  18.075  1.6883  0.4318 -0.0031
 2992TIP3   OH233170   5.033   0.337  18.688  0.3049 -0.0270  0.6634
 2992TIP3    H133171   5.046   0.419  18.640 -0.3791  0.9373  2.0860
 2992TIP3    H233172   5.117   0.321  18.731  0.5402 -0.2649  0.1310
 2993TIP3   OH233173   0.015   3.781  17.586 -0.3945 -0.5115  0.1241
 2993TIP3    H133174   0.008   3.716  17.656  0.9479 -0.6584  0.1480
 2993TIP3    H233175   0.055   3.857  17.627  1.9249 -1.1589 -0.7666
 2994TIP3   OH233176   3.708   0.558  17.554  0.2178  0.0097  0.0386
 2994TIP3    H133177   3.712   0.527  17.644  1.0807 -1.4633 -0.4709
 2994TIP3    H233178   3.634   0.512  17.516  0.5574 -0.2607 -0.3056
 2995TIP3   OH233179   4.655   5.971  18.862 -0.4153  0.3735  0.0846
 2995TIP3    H133180   4.640   5.883  18.895  1.6292 -0.2918 -0.6454
 2995TIP3    H233181   4.641   5.964  18.767 -3.3750  1.6228  0.2945
 2996TIP3   OH233182   1.140   6.149  18.881 -0.0499  0.1666  0.1672
 2996TIP3    H133183   1.233   6.152  18.905 -0.4507  0.8170  1.7182
 2996TIP3    H233184   1.112   6.241  18.884 -0.2258  0.3016 -2.6100
 2997TIP3   OH233185   5.434   6.148  17.087 -0.1706  0.5699  0.5086
 2997TIP3    H133186   5.347   6.134  17.126 -1.5242  0.3258 -2.3055
 2997TIP3    H233187   5.470   6.060  17.077 -1.0463  0.3661 -1.2106
 2998TIP3   OH233188   6.146   1.359  17.667 -0.0704  0.0991  0.6685
 2998TIP3    H133189   6.229   1.351  17.618 -0.4673  0.5610 -0.0922
 2998TIP3    H233190   6.167   1.326  17.754  0.5586 -1.1387  0.0784
 2999TIP3   OH233191   1.354   4.958  17.245 -0.7064  0.3305  0.8887
 2999TIP3    H133192   1.351   4.906  17.166 -0.0850 -0.7893  1.5792
 2999TIP3    H233193   1.345   5.049  17.215 -2.0476 -0.1634 -0.3065
 3000TIP3   OH233194   4.182   5.326  18.081  0.1625 -0.3334 -0.4276
 3000TIP3    H133195   4.268   5.300  18.050 -0.7323 -2.5179 -1.2635
 3000TIP3    H233196   4.126   5.321  18.004 -0.8984  0.1572  0.2839
 3001TIP3   OH233197   5.472   6.403  18.907  0.2399 -0.0073 -0.1581
 3001TIP3    H133198   5.543   6.453  18.866 -0.1900 -0.4974 -1.5712
 3001TIP3    H233199   5.441   6.458  18.978 -0.3559  1.8513 -1.7875
 3002TIP3   OH233200   3.666   3.942  16.922 -0.1307 -0.2945  0.1061
 3002TIP3    H133201   3.585   3.974  16.880 -2.3118 -2.5640  2.2494
 3002TIP3    H233202   3.691   4.012  16.982  1.5993  1.8972 -2.8568
 3003TIP3   OH233203   3.359   0.542  18.924 -0.2153 -0.2043  0.1846
 3003TIP3    H133204   3.283   0.492  18.955 -0.4697  0.0165 -0.0774
 3003TIP3    H233205   3.382   0.501  18.840  0.1086 -0.4248  0.3764
 3004TIP3   OH233206   3.009   3.637  17.667 -0.1349 -0.6107  0.1188
 3004TIP3    H133207   2.974   3.588  17.593 -1.7346  0.9736 -0.2295
 3004TIP3    H233208   2.961   3.603  17.743  0.5361 -1.2779  0.2619
 3005TIP3   OH233209   5.575   5.600  17.803 -0.3157  0.4915 -0.6442
 3005TIP3    H133210   5.501   5.557  17.761 -0.5215  1.0164 -0.8293
 3005TIP3    H233211   5.569   5.691  17.775  0.7505  0.4242 -1.1625
 3006TIP3   OH233212   2.522   5.685  18.119  0.2679 -0.3640 -0.2802
 3006TIP3    H133213   2.491   5.722  18.036 -0.5802  1.5747  0.8379
 3006TIP3    H233214   2.531   5.591  18.101 -0.9639 -0.1747 -2.2528
 3007TIP3   OH233215   3.316   0.835  18.798  0.0298 -0.4470  0.1514
 3007TIP3    H133216   3.362   0.805  18.876  1.3274 -1.4646 -0.9357
 3007TIP3    H233217   3.291   0.754  18.753 -0.4683  0.1140 -0.6054
 3008TIP3   OH233218   0.749   4.621  17.440 -0.4640 -0.3131  0.3845
 3008TIP3    H133219   0.657   4.598  17.442 -0.3350 -0.8147  1.7096
 3008TIP3    H233220   0.795   4.538  17.450  0.1407 -0.0626 -0.1827
 3009TIP3   OH233221   0.886   3.068  17.471 -0.2801 -0.1046 -0.1182
 3009TIP3    H133222   0.940   3.038  17.544  0.6719  0.8644 -0.4001
 3009TIP3    H233223   0.819   3.123  17.512 -2.0884 -2.5559  0.4100
 3010TIP3   OH233224   6.612   1.777  16.407  0.2884  0.3980  0.4191
 3010TIP3    H133225   6.684   1.772  16.344  0.8549  1.4447  0.9597
 3010TIP3    H233226   6.608   1.689  16.446  1.2984  0.3343  0.4022
 3011TIP3   OH233227   4.351   2.305  19.997  0.1200 -0.5801 -0.3972
 3011TIP3    H133228   4.415   2.369  19.966  1.8183 -1.2263  1.6157
 3011TIP3    H233229   4.374   2.224  19.952  0.8820 -0.8624  0.4791
 3012TIP3   OH233230   5.453   5.644  16.933  0.6512  0.3364 -0.3199
 3012TIP3    H133231   5.430   5.591  16.856 -0.0553  1.9956 -1.3025
 3012TIP3    H233232   5.548   5.650  16.930  0.9064 -2.0634  0.6742
 3013TIP3   OH233233   5.440   1.965  17.245 -0.4168 -0.3367  0.7388
 3013TIP3    H133234   5.503   1.904  17.285 -1.9037 -2.6925 -0.2603
 3013TIP3    H233235   5.489   2.004  17.172  0.4209 -0.7938  1.0352
 3014TIP3   OH233236   1.876   2.835  17.567 -0.0278  0.4919 -0.3870
 3014TIP3    H133237   1.932   2.813  17.642 -0.0877 -0.9765 -0.7511
 3014TIP3    H233238   1.848   2.925  17.585  2.3974  1.2950 -0.1700
 3015TIP3   OH233239   3.511   3.274  18.622  0.0098 -0.2636  0.2735
 3015TIP3    H133240   3.444   3.207  18.629 -1.8048  1.4087 -0.0773
 3015TIP3    H233241   3.591   3.233  18.655 -1.5024 -1.8661  2.1507
 3016TIP3   OH233242   5.484   2.569  17.485 -0.3568  0.1416 -0.4627
 3016TIP3    H133243   5.555   2.514  17.519 -0.8913 -0.4049 -0.2162
 3016TIP3    H233244   5.406   2.515  17.494 -0.7827  0.6847 -0.8753
 3017TIP3   OH233245   3.036   3.380  19.715  0.2992  0.1698  0.4742
 3017TIP3    H133246   3.021   3.307  19.654  0.3895  0.3545  0.2312
 3017TIP3    H233247   2.948   3.407  19.741  0.2780 -1.1542  1.9151
 3018TIP3   OH233248   6.321   6.574  19.149 -0.7393  0.3842  0.0953
 3018TIP3    H133249   6.334   6.488  19.109 -1.1835 -0.1479  1.0750
 3018TIP3    H233250   6.402   6.622  19.130 -0.4860 -0.2455 -0.4511
 3019TIP3   OH233251   4.543   2.403  17.791  0.1921  0.0173 -0.1561
 3019TIP3    H133252   4.616   2.417  17.851 -1.0500  0.2864  1.3303
 3019TIP3    H233253   4.574   2.334  17.732  1.2124 -0.7192  1.1826
 3020TIP3   OH233254   5.719   2.182  19.747 -0.0750  0.0365  0.1737
 3020TIP3    H133255   5.703   2.165  19.840  1.6369  0.3105  0.5447
 3020TIP3    H233256   5.666   2.259  19.727  0.3537  0.6297  1.2130
 3021TIP3   OH233257   2.724   5.024  18.973  0.0151  0.4137  0.0378
 3021TIP3    H133258   2.802   5.000  19.022  0.8497  0.5946 -1.1366
 3021TIP3    H233259   2.750   5.104  18.926 -1.1087  0.8667  0.1583
 3022TIP3   OH233260   2.930   1.823  18.988  0.0476 -0.1309  0.3484
 3022TIP3    H133261   2.971   1.797  19.070  0.1665 -0.8548  0.0638
 3022TIP3    H233262   2.919   1.742  18.939  1.9371  0.5004 -1.2577
 3023TIP3   OH233263   0.462   2.720  17.554 -0.3096 -0.5030  0.7387
 3023TIP3    H133264   0.366   2.721  17.561 -0.3650 -1.1846  0.1221
 3023TIP3    H233265   0.493   2.725  17.645 -0.9281 -0.3450  0.9462
 3024TIP3   OH233266   0.236   4.839  19.169  0.5009 -0.6964 -0.5153
 3024TIP3    H133267   0.316   4.809  19.124  0.0024 -2.4123 -0.3025
 3024TIP3    H233268   0.165   4.791  19.126 -0.1740 -0.9870  0.8772
 3025TIP3   OH233269   4.696   0.621  18.554  0.2704  0.3982 -0.2807
 3025TIP3    H133270   4.761   0.669  18.606  1.5898 -2.0126  0.4694
 3025TIP3    H233271   4.748   0.578  18.485 -0.7914 -0.1770 -0.7410
 3026TIP3   OH233272   1.609   3.444  17.789 -0.7009 -0.2274  0.0738
 3026TIP3    H133273   1.524   3.460  17.831  0.0167 -1.5645  2.1976
 3026TIP3    H233274   1.669   3.429  17.862  0.9996 -1.0357 -1.4209
 3027TIP3   OH233275   2.917   6.182  18.539 -0.1297  0.4323 -0.2568
 3027TIP3    H133276   3.000   6.145  18.570  0.0003  0.2994 -0.7498
 3027TIP3    H233277   2.886   6.119  18.473 -0.5962  0.5082 -0.1128
 3028TIP3   OH233278   5.602   2.365  17.627  0.2209  0.3200  0.2245
 3028TIP3    H133279   5.637   2.405  17.707  1.7165 -1.9667  0.8008
 3028TIP3    H233280   5.552   2.290  17.658 -0.2432  0.1361 -0.9387
 3029TIP3   OH233281   4.686   5.373  18.297  0.8563  0.0179 -0.7168
 3029TIP3    H133282   4.650   5.327  18.372  0.3620 -0.8446 -1.4566
 3029TIP3    H233283   4.689   5.465  18.324  1.4217 -0.3764  0.6156
 3030TIP3   OH233284   0.669   4.847  17.656  0.0907 -0.2642  0.5781
 3030TIP3    H133285   0.651   4.814  17.568  1.1533  0.5404  0.0379
 3030TIP3    H233286   0.686   4.768  17.708  1.2710 -0.6707 -0.3727
 3031TIP3   OH233287   4.612   0.730  17.804 -0.5637  0.4383 -0.0060
 3031TIP3    H133288   4.655   0.740  17.719 -1.8064  2.1292 -0.5090
 3031TIP3    H233289   4.661   0.788  17.862 -2.0325  2.4145 -0.5942
 3032TIP3   OH233290   5.690   1.618  20.251  0.4759 -0.9045 -0.1531
 3032TIP3    H133291   5.779   1.642  20.278 -0.2462  0.7733  0.9167
 3032TIP3    H233292   5.640   1.618  20.332 -0.0634 -4.3697 -0.3310
 3033TIP3   OH233293   0.658   0.316  18.706  0.4054  0.3025  0.0898
 3033TIP3    H133294   0.657   0.264  18.786 -1.3408  0.4480  0.2017
 3033TIP3    H233295   0.720   0.387  18.724  2.3686 -1.3292  0.1527
 3034TIP3   OH233296   4.897   3.186  19.572  0.4206  0.3174  0.0735
 3034TIP3    H133297   4.812   3.145  19.584  0.7409 -0.2852  0.3285
 3034TIP3    H233298   4.913   3.182  19.477 -0.4028  1.6169 -0.1499
 3035TIP3   OH233299   3.853   0.780  19.580  0.3559 -0.3242  0.1234
 3035TIP3    H133300   3.865   0.855  19.522  2.9451 -0.5945  0.2002
 3035TIP3    H233301   3.842   0.706  19.520 -1.6807 -0.0140  0.0468
 3036TIP3   OH233302   2.784   5.364  19.272  0.0586  0.2546 -0.4173
 3036TIP3    H133303   2.867   5.317  19.281 -0.7635 -1.0410  0.7759
 3036TIP3    H233304   2.802   5.451  19.309  0.3440 -0.7195  1.9187
 3037TIP3   OH233305   5.864   4.591  19.429 -0.2212 -0.1622 -0.1438
 3037TIP3    H133306   5.896   4.666  19.479  0.3792  0.8859 -2.0067
 3037TIP3    H233307   5.772   4.612  19.410 -0.6796 -0.9325  1.1612
 3038TIP3   OH233308   6.494   0.568  17.936  0.2206 -0.2243 -0.2250
 3038TIP3    H133309   6.577   0.585  17.981  0.4689 -2.3591  0.2276
 3038TIP3    H233310   6.432   0.550  18.006 -0.4005  0.3934 -0.6026
 3039TIP3   OH233311   1.731   1.894  19.694  0.0435 -0.2961  0.1059
 3039TIP3    H133312   1.743   1.810  19.738 -0.1117 -0.2388  0.2574
 3039TIP3    H233313   1.818   1.934  19.694  0.3825 -0.9987 -1.0723
 3040TIP3   OH233314   5.954   2.388  20.083 -0.1789 -0.7957 -0.1542
 3040TIP3    H133315   5.991   2.344  20.159 -0.0466 -0.7849 -0.2124
 3040TIP3    H233316   5.877   2.335  20.059 -1.6714  0.5198  1.4471
 3041TIP3   OH233317   5.056   5.170  18.021 -0.2848 -0.0073 -0.0905
 3041TIP3    H133318   4.996   5.155  18.094  0.6069 -1.0263  0.4540
 3041TIP3    H233319   5.123   5.227  18.057 -0.0271 -0.2297 -0.2152
 3042TIP3   OH233320   1.372   2.705  18.885 -0.0226 -0.0124 -0.1462
 3042TIP3    H133321   1.456   2.752  18.882 -0.6310  1.3411  1.8914
 3042TIP3    H233322   1.396   2.615  18.908  0.8537  0.6326  1.7092
 3043TIP3   OH233323   5.619   3.337  17.372 -0.5368  0.0591  0.4227
 3043TIP3    H133324   5.694   3.313  17.426 -0.0749 -0.4024 -0.4023
 3043TIP3    H233325   5.595   3.425  17.402  0.5792  0.3713  0.4456
 3044TIP3   OH233326   0.117   5.233  18.552 -0.7757  0.5420  0.5582
 3044TIP3    H133327   0.050   5.193  18.498 -0.1019 -0.3138  0.3330
 3044TIP3    H233328   0.198   5.220  18.503 -0.6352  3.0404  0.0108
 3045TIP3   OH233329   3.720   4.421  18.101  0.2916  0.0211 -0.3875
 3045TIP3    H133330   3.665   4.498  18.115 -0.0540 -0.0626 -1.2171
 3045TIP3    H233331   3.770   4.412  18.182  0.5720  1.3047 -0.4017
 3046TIP3   OH233332   6.283   1.082  16.787 -0.3097  0.1171 -0.5724
 3046TIP3    H133333   6.204   1.062  16.836  0.6987 -2.6542  0.1489
 3046TIP3    H233334   6.346   1.110  16.854 -0.2737  0.9986 -0.9641
 3047TIP3   OH233335   0.566   4.752  18.253  0.3169 -0.6638 -0.1081
 3047TIP3    H133336   0.535   4.722  18.168  0.7650  0.2965 -0.6254
 3047TIP3    H233337   0.644   4.698  18.270  0.6723 -0.3417 -0.6739
 3048TIP3   OH233338   1.737   5.098  17.395  0.5557 -0.1815  0.1203
 3048TIP3    H133339   1.767   5.164  17.332 -0.2399 -0.5804 -0.6930
 3048TIP3    H233340   1.704   5.026  17.342  2.1065 -1.6055  0.9819
 3049TIP3   OH233341   5.757   4.767  19.051 -0.8256  0.1016  0.2779
 3049TIP3    H133342   5.852   4.759  19.063 -0.9510  0.5818  1.7142
 3049TIP3    H233343   5.741   4.861  19.042 -1.1734  0.0217  0.0189
 3050TIP3   OH233344   6.477   3.707  18.329 -0.5431  0.5048  0.1552
 3050TIP3    H133345   6.405   3.652  18.362 -1.0274  1.0302 -0.0090
 3050TIP3    H233346   6.441   3.748  18.250  0.3462 -0.1617 -0.6250
 3051TIP3   OH233347   1.101   0.870  20.166  0.4871  0.0757 -0.0227
 3051TIP3    H133348   1.018   0.900  20.128 -0.5747 -0.4586  1.7633
 3051TIP3    H233349   1.138   0.948  20.206 -0.2003 -0.0852  0.9670
 3052TIP3   OH233350   0.469   6.001  18.096 -0.1919 -0.0174  0.2381
 3052TIP3    H133351   0.524   5.979  18.172  0.5802 -0.0669 -0.3229
 3052TIP3    H233352   0.425   5.919  18.074 -1.1530  0.2176  1.2046
 3053TIP3   OH233353   1.654   1.403  18.660  0.4948  0.2364 -0.0816
 3053TIP3    H133354   1.721   1.471  18.671  1.4317 -0.6165 -0.3241
 3053TIP3    H233355   1.610   1.398  18.744 -0.7353  2.2843 -0.5260
 3054TIP3   OH233356   0.928   4.387  17.485  0.3959  0.3046  0.1610
 3054TIP3    H133357   0.946   4.322  17.552 -0.0012 -0.4975 -0.4868
 3054TIP3    H233358   0.867   4.343  17.425  0.3355  1.1778 -0.4343
 3055TIP3   OH233359   4.009   1.997  17.900  0.0315  0.4592 -0.3532
 3055TIP3    H133360   4.062   1.978  17.823  0.0307 -1.8695  0.1581
 3055TIP3    H233361   3.921   1.968  17.876 -0.5605  2.1448 -0.3644
 3056TIP3   OH233362   0.937   2.652  20.354 -0.5895 -0.0142 -0.1910
 3056TIP3    H133363   1.000   2.587  20.323 -0.8681  0.0591 -0.9200
 3056TIP3    H233364   0.991   2.723  20.389 -0.2712 -0.9486  1.3362
 3057TIP3   OH233365   1.219   0.921  17.344 -0.1547  0.0866  0.7062
 3057TIP3    H133366   1.185   1.010  17.353  4.0357  2.1739 -1.2980
 3057TIP3    H233367   1.297   0.920  17.400  2.6655 -0.4526 -2.8757
 3058TIP3   OH233368   1.760   4.606  19.230 -0.2033  0.2266  0.5339
 3058TIP3    H133369   1.749   4.512  19.218 -0.4630  0.3686 -0.4759
 3058TIP3    H233370   1.691   4.646  19.175  0.0711  1.0016  0.7317
 3059TIP3   OH233371   5.160   1.717  18.279  0.0720 -0.4629 -0.3344
 3059TIP3    H133372   5.175   1.682  18.191  0.9517 -2.0302  0.3924
 3059TIP3    H233373   5.248   1.728  18.315 -0.2549  0.8943  0.0997
 3060TIP3   OH233374   4.534   5.747  17.579  0.1730  0.2588 -0.5387
 3060TIP3    H133375   4.588   5.776  17.652 -0.8294 -0.8201  0.6920
 3060TIP3    H233376   4.503   5.828  17.538  0.0184  0.9115  0.8102
 3061TIP3   OH233377   2.820   3.342  18.154 -0.3606 -0.3170  0.1487
 3061TIP3    H133378   2.851   3.343  18.064 -0.9767 -1.0197 -0.0782
 3061TIP3    H233379   2.899   3.353  18.207  0.0445 -0.2537 -0.4664
 3062TIP3   OH233380   2.642   2.661  19.531 -0.3899 -0.1284  0.0918
 3062TIP3    H133381   2.725   2.613  19.528 -0.7432 -0.7347 -0.0435
 3062TIP3    H233382   2.581   2.608  19.480 -0.9893  0.0699  0.5892
 3063TIP3   OH233383   3.184   1.951  19.994 -0.6097 -0.1590  0.3869
 3063TIP3    H133384   3.113   1.916  19.939  0.0903 -2.0747  0.6342
 3063TIP3    H233385   3.261   1.900  19.968  0.9006  2.3100 -0.3563
 3064TIP3   OH233386   3.866   0.264  18.887 -0.2186  0.0187 -0.3954
 3064TIP3    H133387   3.824   0.350  18.896  0.9967  0.6599 -0.7377
 3064TIP3    H233388   3.827   0.227  18.808  1.7563  1.7733 -2.3233
 3065TIP3   OH233389   0.973   0.596  19.976 -0.1448 -0.3367 -0.2744
 3065TIP3    H133390   0.981   0.502  19.958  0.7702 -0.0563 -1.4469
 3065TIP3    H233391   1.057   0.633  19.949  0.3685  0.5320  2.2462
 3066TIP3   OH233392   3.774   5.266  20.042  0.8993 -0.0852 -0.3121
 3066TIP3    H133393   3.714   5.207  19.996 -0.0007 -1.1215  2.0397
 3066TIP3    H233394   3.818   5.209  20.106  1.8012  1.3501  0.3830
 3067TIP3   OH233395   0.774   2.620  18.920  0.1713 -0.3352 -0.1800
 3067TIP3    H133396   0.806   2.699  18.877  1.8608 -1.0035 -0.2130
 3067TIP3    H233397   0.681   2.637  18.936  0.1778  1.0795 -1.4670
 3068TIP3   OH233398   5.001   3.496  18.403 -0.2640 -0.3980 -0.1284
 3068TIP3    H133399   4.934   3.495  18.471  1.5258  0.9093  1.7848
 3068TIP3    H233400   5.050   3.414  18.416  0.3737  0.0678  0.5517
 3069TIP3   OH233401   0.926   2.673  19.408  0.2773  0.1949 -0.1500
 3069TIP3    H133402   0.999   2.633  19.360  0.0134  0.2438 -0.6051
 3069TIP3    H233403   0.952   2.669  19.500 -0.5349 -2.7316  0.0493
 3070TIP3   OH233404   0.886   2.054  18.876 -0.1824  0.0974 -0.1842
 3070TIP3    H133405   0.830   2.008  18.938  0.0904  0.1406  0.1013
 3070TIP3    H233406   0.836   2.057  18.795 -0.7375  0.4393  0.1661
 3071TIP3   OH233407   1.803   1.362  19.491  0.2458 -0.0953  0.2577
 3071TIP3    H133408   1.759   1.446  19.479 -0.3407  0.2059  3.6162
 3071TIP3    H233409   1.879   1.366  19.432 -2.0902  0.8856 -2.9312
 3072TIP3   OH233410   2.045   2.883  20.117 -0.1563 -0.3326  0.4948
 3072TIP3    H133411   2.082   2.811  20.168 -0.6550  0.7671  2.5502
 3072TIP3    H233412   2.082   2.962  20.156 -0.4216  0.5893 -1.0203
 3073TIP3   OH233413   0.913   5.169  17.311 -0.1049 -0.1501  0.0961
 3073TIP3    H133414   0.869   5.191  17.394  1.5806  1.1411  0.7094
 3073TIP3    H233415   0.843   5.170  17.246 -1.2825 -0.0114  1.3185
 3074TIP3   OH233416   2.450   4.246  20.430 -0.1772  0.0541 -0.6578
 3074TIP3    H133417   2.491   4.208  20.507 -1.3678  0.2381  0.0922
 3074TIP3    H233418   2.420   4.171  20.378 -1.8379 -0.0818  0.4412
 3075TIP3   OH233419   3.147   4.064  19.381  0.0874  0.3013 -1.2337
 3075TIP3    H133420   3.077   4.039  19.320  0.5157 -0.4339 -1.4420
 3075TIP3    H233421   3.225   4.019  19.347  0.3216 -0.1885 -0.0984
 3076TIP3   OH233422   2.134   0.176  16.712 -0.5774 -0.3673 -0.5771
 3076TIP3    H133423   2.181   0.224  16.779  0.1914  1.1731 -2.1350
 3076TIP3    H233424   2.041   0.189  16.733 -0.3553  0.7133 -0.2052
 3077TIP3   OH233425   4.455   6.644  18.370 -0.0179  0.1164 -0.0122
 3077TIP3    H133426   4.515   6.684  18.434 -0.3032 -0.0055  0.3312
 3077TIP3    H233427   4.510   6.627  18.293  0.1885  0.8430 -0.0336
 3078TIP3   OH233428   5.351   5.519  17.672 -0.5137  0.8082  0.7193
 3078TIP3    H133429   5.302   5.597  17.646 -2.5303 -0.6484 -0.1234
 3078TIP3    H233430   5.284   5.451  17.682  1.2651 -1.1236  0.2552
 3079TIP3   OH233431   4.594   4.804  19.485 -0.8708  0.1029 -0.0959
 3079TIP3    H133432   4.659   4.832  19.420 -0.6497 -0.4451 -0.1147
 3079TIP3    H233433   4.521   4.866  19.474  0.0912  1.4469  0.7053
 3080TIP3   OH233434   0.472   2.790  20.137 -0.3292 -0.0029  0.2440
 3080TIP3    H133435   0.560   2.751  20.132 -0.1433  0.5437 -1.2951
 3080TIP3    H233436   0.434   2.752  20.216  0.7574 -1.3815  0.1557
 3081TIP3   OH233437   4.656   0.556  16.287  0.2107 -0.0830  0.2918
 3081TIP3    H133438   4.612   0.524  16.208  0.9587 -1.6892  0.4791
 3081TIP3    H233439   4.612   0.509  16.359 -0.4941  1.3981  0.8647
 3082TIP3   OH233440   6.376   3.330  17.328  0.2832  0.1596 -0.3015
 3082TIP3    H133441   6.340   3.255  17.376  1.4671 -0.8387 -0.9244
 3082TIP3    H233442   6.410   3.293  17.247  3.0553  0.9468  0.3868
 3083TIP3   OH233443   2.172   1.913  18.266  0.1852  0.1612 -0.0999
 3083TIP3    H133444   2.106   1.928  18.334  0.8739  0.0373  0.6001
 3083TIP3    H233445   2.125   1.930  18.184  0.0397  3.0057  0.4839
 3084TIP3   OH233446   2.065   0.255  17.020 -0.2214 -0.0199 -0.0857
 3084TIP3    H133447   2.145   0.297  16.988 -1.0073  1.1652 -0.6022
 3084TIP3    H233448   2.014   0.237  16.941 -1.2702  0.9911  0.3220
 3085TIP3   OH233449   5.191   1.937  20.015 -0.5392  0.2381 -0.0509
 3085TIP3    H133450   5.119   1.929  19.952 -0.2472  0.9377 -0.4825
 3085TIP3    H233451   5.270   1.941  19.961 -0.1550 -0.6927  0.4243
 3086TIP3   OH233452   2.411   6.572  17.783  0.2505 -0.3462  0.0576
 3086TIP3    H133453   2.396   6.582  17.689 -1.1617 -2.6796 -0.0619
 3086TIP3    H233454   2.483   6.510  17.789 -0.0469 -0.6581  0.4866
 3087TIP3   OH233455   5.704   1.494  19.302 -0.3860 -0.0786 -0.1495
 3087TIP3    H133456   5.765   1.550  19.350 -1.5410  1.7764 -0.7407
 3087TIP3    H233457   5.756   1.457  19.231  1.0872 -2.0467  1.8238
 3088TIP3   OH233458   4.706   1.525  18.287 -0.0761  0.3348 -0.0489
 3088TIP3    H133459   4.782   1.561  18.333  0.0128 -0.7863  0.7135
 3088TIP3    H233460   4.644   1.505  18.357 -0.1160 -0.9860 -0.4492
 3089TIP3   OH233461   4.024   3.696  19.690 -0.4414 -0.2870  0.1686
 3089TIP3    H133462   4.015   3.752  19.613  0.4077  0.5569  0.6556
 3089TIP3    H233463   3.935   3.671  19.712 -0.8498  0.9040 -0.0626
 3090TIP3   OH233464   3.402   4.852  18.772 -0.1350  0.0199  0.3863
 3090TIP3    H133465   3.493   4.870  18.796  0.4134  1.6205 -2.4333
 3090TIP3    H233466   3.400   4.758  18.753  0.4721 -0.3621  2.0586
 3091TIP3   OH233467   1.960   1.128  19.333  0.1486  0.1658 -0.1879
 3091TIP3    H133468   1.895   1.179  19.284 -0.5103 -0.8939 -0.4499
 3091TIP3    H233469   1.972   1.177  19.414  0.1448  1.1621 -0.7716
 3092TIP3   OH233470   1.776   1.619  17.181 -0.1950  0.0271  0.0307
 3092TIP3    H133471   1.795   1.706  17.145 -0.9024 -0.5031 -1.7013
 3092TIP3    H233472   1.860   1.574  17.182  0.4104  1.0753  2.0481
 3093TIP3   OH233473   4.919   1.641  20.365 -0.3039  0.2387 -0.2647
 3093TIP3    H133474   5.014   1.628  20.355 -0.2793 -0.0602  0.3484
 3093TIP3    H233475   4.880   1.579  20.302 -0.0861  1.1110 -1.2951
 3094TIP3   OH233476   6.294   1.115  17.305 -0.2867 -0.8560 -0.1001
 3094TIP3    H133477   6.335   1.195  17.336  0.7271 -2.0774  1.8754
 3094TIP3    H233478   6.200   1.130  17.317 -0.0361 -0.4320  1.4655
 3095TIP3   OH233479   0.073   3.691  19.078  0.3934 -0.0731  0.0728
 3095TIP3    H133480   0.005   3.758  19.076  1.0288  0.5725 -0.5771
 3095TIP3    H233481   0.126   3.714  19.155 -0.6350 -1.1306  1.1478
 3096TIP3   OH233482   0.042   0.519  19.600  0.7944 -0.7110 -0.1988
 3096TIP3    H133483   0.121   0.521  19.546 -0.2409 -1.0821 -1.8154
 3096TIP3    H233484   0.032   0.609  19.630  1.6623 -0.5981 -0.2181
 3097TIP3   OH233485   0.794   1.629  17.189  0.0348  0.4446  0.4525
 3097TIP3    H133486   0.761   1.715  17.215  1.4644  0.7118  1.5162
 3097TIP3    H233487   0.866   1.649  17.128 -0.3239 -0.0453 -0.1404
 3098TIP3   OH233488   4.235   5.646  18.329  0.7367 -0.3089 -0.1702
 3098TIP3    H133489   4.261   5.701  18.404 -0.4383 -0.2422  0.2090
 3098TIP3    H233490   4.210   5.708  18.261  0.0185 -0.3617  0.0382
 3099TIP3   OH233491   3.619   0.334  18.754  0.2350 -0.3016 -0.5296
 3099TIP3    H133492   3.540   0.350  18.702  0.3076  0.9811 -0.2803
 3099TIP3    H233493   3.633   0.416  18.801  1.7869 -0.4672 -0.6633
 3100TIP3   OH233494   3.075   6.004  18.141  0.1797 -0.1483  0.2135
 3100TIP3    H133495   3.022   5.957  18.076  0.6664  0.4422 -0.6342
 3100TIP3    H233496   3.022   6.004  18.220 -1.0054  0.2454 -0.5578
 3101TIP3   OH233497   3.100   1.107  19.781  0.6639  0.0981  0.0403
 3101TIP3    H133498   3.186   1.093  19.740  1.5054  1.6436  1.1734
 3101TIP3    H233499   3.093   1.202  19.789 -1.7444  0.1044 -1.1742
 3102TIP3   OH233500   2.350   1.193  18.995 -0.0829  0.1663 -0.4395
 3102TIP3    H133501   2.375   1.102  18.976  4.1218 -0.0442  4.2422
 3102TIP3    H233502   2.264   1.185  19.036 -0.6792 -1.3590 -1.8280
 3103TIP3   OH233503   2.791   1.312  17.677  0.6493  0.0186 -1.0070
 3103TIP3    H133504   2.837   1.328  17.760  1.8976 -0.6498 -1.5309
 3103TIP3    H233505   2.862   1.301  17.613 -0.2915  0.3611 -2.1318
 3104TIP3   OH233506   0.540   3.309  18.383  0.3066 -0.0035 -0.1350
 3104TIP3    H133507   0.547   3.404  18.372 -0.6563  0.0119 -0.7464
 3104TIP3    H233508   0.619   3.275  18.341  0.7938  0.5394  0.3276
 3105TIP3   OH233509   3.095   2.871  18.862 -0.6050  0.4125  0.3703
 3105TIP3    H133510   3.133   2.807  18.801  1.0703  0.2912  1.4567
 3105TIP3    H233511   3.005   2.841  18.875 -0.8329  0.1323 -1.5862
 3106TIP3   OH233512   5.234   5.798  17.668  0.1753  0.8268  0.3037
 3106TIP3    H133513   5.155   5.814  17.720 -0.5330 -3.5172  0.9190
 3106TIP3    H233514   5.215   5.837  17.583 -2.8338 -0.2390  0.3565
 3107TIP3   OH233515   1.805   1.002  17.141 -0.1429 -0.1104  0.2340
 3107TIP3    H133516   1.731   0.980  17.084 -0.0572  2.3216 -0.9447
 3107TIP3    H233517   1.764   1.039  17.219 -0.2280  1.5153 -0.5434
 3108TIP3   OH233518   3.418   3.115  16.792  0.0295 -0.6266 -0.1520
 3108TIP3    H133519   3.335   3.071  16.808  0.8119 -2.7311 -1.5028
 3108TIP3    H233520   3.395   3.208  16.784 -2.2445 -1.1929 -0.8401
 3109TIP3   OH233521   6.468   2.522  19.798  0.6231  0.2437 -0.6013
 3109TIP3    H133522   6.529   2.485  19.861 -0.3731 -0.6496 -0.1310
 3109TIP3    H233523   6.415   2.447  19.769 -0.9697  1.1486 -0.1609
 3110TIP3   OH233524   4.081   1.413  18.862 -0.1806  0.0566  0.0854
 3110TIP3    H133525   4.078   1.494  18.810  1.0978 -0.1734 -0.3685
 3110TIP3    H233526   4.058   1.441  18.951  1.3247  1.1475  0.1751
 3111TIP3   OH233527   5.683   5.216  19.746  0.3395  0.0201  0.1475
 3111TIP3    H133528   5.592   5.233  19.771  0.1769  0.9716 -0.9878
 3111TIP3    H233529   5.716   5.155  19.812 -1.1017 -0.2877  0.6067
 3112TIP3   OH233530   4.722   3.849  19.985  0.1459 -0.8697 -0.2882
 3112TIP3    H133531   4.643   3.903  19.991  0.5608 -0.2424 -0.2647
 3112TIP3    H233532   4.794   3.912  19.995  0.6374 -1.5368  0.5038
 3113TIP3   OH233533   4.702   0.933  18.747  0.2480 -0.3131  0.3630
 3113TIP3    H133534   4.612   0.951  18.722  0.2726 -1.1461 -0.3778
 3113TIP3    H233535   4.699   0.846  18.787  0.5986  0.0112  1.1280
 3114TIP3   OH233536   6.080   2.600  20.210  0.2513  0.1030  0.3837
 3114TIP3    H133537   6.028   2.680  20.198 -0.7174 -0.5410  0.1589
 3114TIP3    H233538   6.040   2.536  20.151  1.9216 -0.1591 -0.5240
 3115TIP3   OH233539   1.554   5.230  19.645  0.0080 -0.1715 -0.4287
 3115TIP3    H133540   1.506   5.161  19.599 -0.4753 -0.9361  1.1304
 3115TIP3    H233541   1.620   5.184  19.697  1.2630  0.7402 -1.1613
 3116TIP3   OH233542   1.496   5.884  17.616  0.3499 -0.5853 -0.0601
 3116TIP3    H133543   1.497   5.789  17.619 -0.5253 -0.7436 -2.5234
 3116TIP3    H233544   1.485   5.911  17.707  0.7622 -2.8199  0.7042
 3117TIP3   OH233545   3.115   0.591  17.590  0.1580 -0.0043 -0.4164
 3117TIP3    H133546   3.203   0.575  17.556  0.5342  3.1506 -1.2931
 3117TIP3    H233547   3.092   0.677  17.556 -2.1980  0.4620  2.0021
 3118TIP3   OH233548   1.803   4.525  17.408  0.1558  0.5731  0.5512
 3118TIP3    H133549   1.773   4.509  17.498 -0.6367  0.4146  0.2719
 3118TIP3    H233550   1.812   4.620  17.403 -0.4089  0.6362  0.6210
 3119TIP3   OH233551   0.621   1.666  16.312  0.3227 -0.6147  0.2361
 3119TIP3    H133552   0.578   1.737  16.360 -1.6353 -0.8217 -1.0679
 3119TIP3    H233553   0.558   1.594  16.315  1.3704 -1.5757 -0.2479
 3120TIP3   OH233554   5.695   5.692  19.349 -0.2089 -0.1506  0.2985
 3120TIP3    H133555   5.608   5.729  19.334  0.1305  0.4353 -0.2822
 3120TIP3    H233556   5.734   5.749  19.415  0.6270  1.1029 -1.1911
 3121TIP3   OH233557   6.274   4.209  17.749 -0.3321  0.0466  0.2115
 3121TIP3    H133558   6.212   4.268  17.707 -0.6986 -0.3604  0.1731
 3121TIP3    H233559   6.263   4.225  17.842 -0.6987 -0.2281  0.2157
 3122TIP3   OH233560   5.922   1.363  19.452 -0.2782 -0.5796  0.6906
 3122TIP3    H133561   5.940   1.456  19.468 -0.5992 -0.3584 -0.1771
 3122TIP3    H233562   5.827   1.358  19.444 -0.1870 -0.8040 -0.3075
 3123TIP3   OH233563   2.405   4.398  19.245 -0.0748 -0.1399  0.1064
 3123TIP3    H133564   2.441   4.326  19.195 -0.8279 -0.7710  0.4515
 3123TIP3    H233565   2.422   4.375  19.337 -0.9540 -0.2496  0.2541
 3124TIP3   OH233566   3.332   2.457  17.937 -0.2079 -0.2580 -0.2411
 3124TIP3    H133567   3.367   2.479  18.024  0.4957 -1.0879 -0.3022
 3124TIP3    H233568   3.386   2.509  17.877 -0.3875 -0.0408 -0.2185
 3125TIP3   OH233569   2.974   6.364  18.335  0.1300  0.0997 -0.8194
 3125TIP3    H133570   3.064   6.349  18.307  0.3685  0.2256 -0.1385
 3125TIP3    H233571   2.970   6.327  18.424  0.3389  2.6699  0.3519
 3126TIP3   OH233572   4.136   1.575  19.914  0.4504 -0.2985 -0.0244
 3126TIP3    H133573   4.187   1.610  19.841  0.1302  1.4831  0.5455
 3126TIP3    H233574   4.194   1.581  19.989 -0.0260  0.2011  0.3148
 3127TIP3   OH233575   0.727   4.957  19.328 -0.4346 -0.1639  0.5765
 3127TIP3    H133576   0.671   5.016  19.378 -1.2669 -1.6495  1.4425
 3127TIP3    H233577   0.812   4.963  19.371  0.2180  2.2310 -0.8475
 3128TIP3   OH233578   0.749   0.162  17.678  0.1828 -0.3198  0.2856
 3128TIP3    H133579   0.806   0.155  17.601  0.7904 -0.5809  0.7506
 3128TIP3    H233580   0.714   0.074  17.690 -1.3148  0.1036 -0.7288
 3129TIP3   OH233581   1.387   2.314  18.745  0.6789 -0.2106  0.0723
 3129TIP3    H133582   1.417   2.230  18.711 -0.0568 -0.8906  1.0559
 3129TIP3    H233583   1.308   2.333  18.695  0.1338 -0.7380  0.7218
 3130TIP3   OH233584   0.379   2.594  18.907  0.2583 -0.6582  0.3315
 3130TIP3    H133585   0.410   2.511  18.941  0.1560 -0.2860  1.3735
 3130TIP3    H233586   0.355   2.645  18.984 -2.0840 -0.5761 -0.3749
 3131TIP3   OH233587   0.762   1.809  19.951  0.4184 -0.2219 -0.1212
 3131TIP3    H133588   0.707   1.733  19.972  1.5630 -0.6641  1.4105
 3131TIP3    H233589   0.806   1.784  19.869  2.3831 -2.1947  1.4111
 3132TIP3   OH233590   2.971   5.039  19.901  0.7880  0.0097 -0.2549
 3132TIP3    H133591   3.023   5.092  19.962  0.3483  0.8008 -0.5499
 3132TIP3    H233592   2.890   5.089  19.890 -1.0711 -2.2511  1.9337
 3133TIP3   OH233593   5.157   5.102  17.501  0.3702 -0.1679 -0.1337
 3133TIP3    H133594   5.238   5.148  17.481  0.2315  1.4745  2.5728
 3133TIP3    H233595   5.185   5.018  17.538  0.7664 -0.3810 -0.9126
 3134TIP3   OH233596   5.244   4.514  18.664 -0.1001 -0.3215 -0.5088
 3134TIP3    H133597   5.233   4.472  18.749 -0.5872  1.5033  0.3679
 3134TIP3    H233598   5.164   4.493  18.616  0.2742 -1.5435 -0.6348
 3135TIP3   OH233599   1.886   2.175  18.154  0.0621  0.2945 -0.0672
 3135TIP3    H133600   1.975   2.208  18.148  0.2911 -0.4091 -0.6086
 3135TIP3    H233601   1.833   2.252  18.173  0.6806  0.8425 -0.5366
 3136TIP3   OH233602   3.593   6.529  18.415 -0.2196  0.6523 -0.1739
 3136TIP3    H133603   3.683   6.516  18.385 -0.5596 -0.3777 -0.7923
 3136TIP3    H233604   3.547   6.565  18.339 -0.1039  2.2196  0.4649
 3137TIP3   OH233605   2.984   3.065  17.745  0.4993  0.1871  0.0907
 3137TIP3    H133606   2.974   2.970  17.741 -0.8910  0.3190  0.0423
 3137TIP3    H233607   2.915   3.094  17.805 -1.4758  1.4529 -2.5725
 3138TIP3   OH233608   3.306   1.039  18.369 -0.5558 -0.3647 -0.0169
 3138TIP3    H133609   3.378   1.003  18.420  0.2646  0.9621 -0.1899
 3138TIP3    H233610   3.236   0.975  18.377  1.3686 -2.8673 -1.7387
 3139TIP3   OH233611   0.214   4.536  20.273  0.5427 -0.0630  0.5721
 3139TIP3    H133612   0.266   4.528  20.193 -0.4594  0.1310 -0.1166
 3139TIP3    H233613   0.279   4.538  20.343  1.7672  3.8347 -0.4424
 3140TIP3   OH233614   5.493   3.693  19.445 -0.1227  0.1820  0.3867
 3140TIP3    H133615   5.476   3.741  19.364 -0.1787 -0.2842  0.1190
 3140TIP3    H233616   5.522   3.759  19.507  0.3038  0.4820 -0.1315
 3141TIP3   OH233617   2.909   1.087  18.136 -0.5770  0.0631  0.2461
 3141TIP3    H133618   2.963   1.013  18.108 -1.5001  0.2549 -2.3113
 3141TIP3    H233619   2.953   1.121  18.213  1.0041 -1.8925  0.2943
 3142TIP3   OH233620   3.286   5.037  18.315 -0.1506 -0.3146 -0.4704
 3142TIP3    H133621   3.324   5.067  18.398  0.8615 -0.6784 -0.7864
 3142TIP3    H233622   3.362   5.014  18.262 -0.7780  0.1249 -1.5836
 3143TIP3   OH233623   5.946   6.087  18.029  0.6030 -0.4237  0.3021
 3143TIP3    H133624   5.897   6.006  18.013 -0.8287  0.5479 -0.4118
 3143TIP3    H233625   5.950   6.130  17.944  1.4122  0.2428  0.6623
 3144TIP3   OH233626   2.127   6.384  17.809 -0.1283  0.6672  0.4113
 3144TIP3    H133627   2.123   6.479  17.805  1.3119  0.7095 -0.8498
 3144TIP3    H233628   2.221   6.364  17.808 -0.4186 -0.8009 -0.7044
 3145TIP3   OH233629   1.432   4.105  17.689  0.0135 -0.0452  0.0082
 3145TIP3    H133630   1.390   4.035  17.639 -0.8625 -0.6234  1.5087
 3145TIP3    H233631   1.524   4.101  17.663 -0.2082 -1.1226 -0.6419
 3146TIP3   OH233632   1.403   0.903  17.529 -0.1220 -0.0657 -0.6492
 3146TIP3    H133633   1.467   0.941  17.590 -0.1364  1.0136 -1.2944
 3146TIP3    H233634   1.369   0.826  17.576  0.6207  0.1455  0.2755
 3147TIP3   OH233635   0.108   0.678  17.275  0.2017  0.0520  0.1028
 3147TIP3    H133636   0.108   0.710  17.185 -1.0302  0.0127  0.0603
 3147TIP3    H233637   0.110   0.583  17.267 -0.4205  0.0350  0.0896
 3148TIP3   OH233638   2.927   0.357  19.944  0.0467 -0.3063  0.1718
 3148TIP3    H133639   2.999   0.419  19.939 -0.1095 -0.1965 -1.0306
 3148TIP3    H233640   2.969   0.272  19.956  0.3799 -0.2247 -0.3758
 3149TIP3   OH233641   2.931   2.510  17.652 -0.3207  0.1201 -0.1409
 3149TIP3    H133642   2.959   2.480  17.738  0.0135 -0.6491 -0.5042
 3149TIP3    H233643   3.012   2.518  17.602 -0.2496  2.8775  0.2773
 3150TIP3   OH233644   5.678   1.830  16.502 -0.5511  0.0444 -0.1254
 3150TIP3    H133645   5.748   1.823  16.437 -0.3051 -1.1137  0.2349
 3150TIP3    H233646   5.605   1.781  16.464 -0.6133 -0.1094  0.1868
 3151TIP3   OH233647   6.479   1.840  19.582  0.3470 -0.0918  0.0213
 3151TIP3    H133648   6.423   1.861  19.657  0.5998 -0.2340  0.2524
 3151TIP3    H233649   6.547   1.783  19.618  0.1806 -0.5810 -0.4146
 3152TIP3   OH233650   6.013   0.061  19.155 -0.4020  0.7252  0.6017
 3152TIP3    H133651   6.047  -0.014  19.106 -1.9752  0.1037  0.3989
 3152TIP3    H233652   6.064   0.061  19.236  0.5878  0.3115  0.0033
 3153TIP3   OH233653   3.784   5.549  20.050 -0.5439 -0.3416  0.0977
 3153TIP3    H133654   3.783   5.453  20.048 -0.2722 -0.3333 -1.6282
 3153TIP3    H233655   3.845   5.571  20.120 -0.6480 -1.4209  0.5490
 3154TIP3   OH233656   2.818   6.339  17.256 -0.3007  0.3367  0.6362
 3154TIP3    H133657   2.845   6.314  17.344  1.9936 -0.0012 -0.1150
 3154TIP3    H233658   2.864   6.421  17.239  0.2718 -0.2425 -0.7060
 3155TIP3   OH233659   1.365   3.503  17.566 -0.2874 -0.1552 -0.2047
 3155TIP3    H133660   1.457   3.530  17.574 -0.0293 -0.8394 -0.6897
 3155TIP3    H233661   1.359   3.468  17.477 -0.4663 -2.1044  0.5177
 3156TIP3   OH233662   2.482   5.417  19.007  0.1189  0.4804 -0.3135
 3156TIP3    H133663   2.480   5.377  19.094 -0.7689  1.8248  0.3229
 3156TIP3    H233664   2.461   5.345  18.947 -0.3233 -0.2443  0.6773
 3157TIP3   OH233665   5.271   4.663  18.345  0.5134  0.7897 -0.1337
 3157TIP3    H133666   5.269   4.572  18.316  0.0089  0.6900  0.2135
 3157TIP3    H233667   5.185   4.678  18.384  0.8073  1.2427  0.3484
 3158TIP3   OH233668   0.394   2.780  17.109  0.1125 -0.0008 -0.2288
 3158TIP3    H133669   0.441   2.700  17.130 -0.3611  0.0303  1.0880
 3158TIP3    H233670   0.378   2.776  17.015 -3.1001 -3.2739  0.2530
 3159TIP3   OH233671   1.180   3.083  20.105  0.1549 -0.3049 -0.4649
 3159TIP3    H133672   1.226   3.036  20.036 -0.8151 -0.4062 -1.0619
 3159TIP3    H233673   1.110   3.130  20.059  0.6340  1.1287  0.2072
 3160TIP3   OH233674   6.540   4.294  19.329 -0.7009  0.1220  0.1611
 3160TIP3    H133675   6.614   4.250  19.371  0.4311  2.4397  0.7340
 3160TIP3    H233676   6.463   4.252  19.368  0.2094 -2.7306 -0.8677
 3161TIP3   OH233677   1.487   4.214  19.037  0.0734 -1.0139  0.2292
 3161TIP3    H133678   1.497   4.154  19.111  0.9279 -1.1281  0.0349
 3161TIP3    H233679   1.521   4.166  18.962  2.0531  0.1522  0.3018
 3162TIP3   OH233680   1.226   1.844  19.154 -0.2938  0.1645 -0.0322
 3162TIP3    H133681   1.159   1.809  19.212  1.1558  0.4199  1.9163
 3162TIP3    H233682   1.289   1.885  19.213  1.2558  0.4800 -1.8156
 3163TIP3   OH233683   6.295   1.535  17.109 -0.4723  0.9122  0.2111
 3163TIP3    H133684   6.346   1.531  17.190  1.5935 -2.9782 -1.0084
 3163TIP3    H233685   6.281   1.444  17.085 -2.7396  1.8886 -2.8270
 3164TIP3   OH233686   1.478   1.151  17.154  0.2637  0.0168  0.1896
 3164TIP3    H133687   1.507   1.089  17.087  2.7472  0.2578  0.9399
 3164TIP3    H233688   1.534   1.134  17.229 -1.7226  0.4976  1.8699
 3165TIP3   OH233689   4.283   0.378  18.038  0.0564 -0.0717 -0.0589
 3165TIP3    H133690   4.337   0.449  18.073  1.1040 -0.4756 -0.7924
 3165TIP3    H233691   4.275   0.316  18.111  0.4911  0.0461  0.0933
 3166TIP3   OH233692   3.762   2.156  18.724  0.1358 -0.1574 -0.4216
 3166TIP3    H133693   3.705   2.209  18.781 -1.4402 -0.9598 -1.1772
 3166TIP3    H233694   3.848   2.159  18.767 -0.6851  0.3172  1.2983
 3167TIP3   OH233695   4.708   0.748  17.517 -0.3353 -0.1068 -0.3285
 3167TIP3    H133696   4.730   0.840  17.531  1.7373 -0.9294  3.3495
 3167TIP3    H233697   4.792   0.707  17.494 -0.6666 -1.3866  0.6089
 3168TIP3   OH233698   1.374   3.093  16.684  0.0863 -0.2200  0.1473
 3168TIP3    H133699   1.426   3.053  16.754 -0.2603 -0.1768  0.4348
 3168TIP3    H233700   1.287   3.056  16.695  0.0724 -0.3468 -0.3778
 3169TIP3   OH233701   0.819   0.796  17.178  1.0451  0.0541  0.2321
 3169TIP3    H133702   0.812   0.716  17.125 -0.1108 -0.1920  0.7427
 3169TIP3    H233703   0.826   0.866  17.113  0.4596 -0.3200 -0.2514
 3170TIP3   OH233704   5.428   5.095  18.088 -0.1597 -0.7327 -0.5186
 3170TIP3    H133705   5.368   5.022  18.076  0.3218 -1.3500  0.6731
 3170TIP3    H233706   5.460   5.086  18.178  1.0333  0.0828 -0.8310
 3171TIP3   OH233707   5.458   3.086  18.149  0.6083 -0.0817  0.2458
 3171TIP3    H133708   5.503   3.050  18.226 -0.8659  1.5758  1.9967
 3171TIP3    H233709   5.528   3.127  18.097  1.6651 -1.4179  0.5665
 3172TIP3   OH233710   3.768   3.014  18.440  0.1111 -0.2768  0.0047
 3172TIP3    H133711   3.825   2.950  18.396 -0.2506 -1.1565  0.7791
 3172TIP3    H233712   3.749   2.974  18.525 -0.6573  0.5786  0.2478
 3173TIP3   OH233713   3.922   0.106  17.764  0.2545  0.3547  0.4268
 3173TIP3    H133714   3.965   0.191  17.766 -0.3800  0.6863  0.0591
 3173TIP3    H233715   3.993   0.044  17.748  0.8807  0.6983  1.7523
 3174TIP3   OH233716   2.657   1.917  19.008 -0.7351  0.4117  0.1217
 3174TIP3    H133717   2.745   1.892  18.980 -0.9734 -0.6922  0.3189
 3174TIP3    H233718   2.602   1.845  18.980 -1.1710 -0.2036  2.3584
 3175TIP3   OH233719   2.935   0.635  19.569  0.3466 -0.0614 -0.0608
 3175TIP3    H133720   2.985   0.666  19.493  1.5857  1.5242  1.3185
 3175TIP3    H233721   2.845   0.663  19.551  0.4982 -0.2372 -1.2001
 3176TIP3   OH233722   0.791   1.860  18.040 -0.7404  0.5947  0.4695
 3176TIP3    H133723   0.751   1.808  17.971  1.6413  1.9263 -2.0909
 3176TIP3    H233724   0.848   1.799  18.087 -1.3707 -0.0299  0.4388
 3177TIP3   OH233725   4.002   2.075  18.245  0.5390  0.3185 -0.0476
 3177TIP3    H133726   4.045   1.990  18.234  0.2258  0.4039 -2.5513
 3177TIP3    H233727   3.909   2.057  18.228  0.0913  0.7901  1.6929
 3178TIP3   OH233728   2.898   2.904  19.090 -0.2737 -0.4319  0.1896
 3178TIP3    H133729   2.850   2.822  19.081  0.7441 -1.0409  0.1242
 3178TIP3    H233730   2.990   2.878  19.097  0.0115  0.6675  0.8449
 3179TIP3   OH233731   0.529   2.723  16.585  0.0802  0.1775  0.4240
 3179TIP3    H133732   0.443   2.722  16.628 -0.3162  2.2169 -0.2186
 3179TIP3    H233733   0.527   2.647  16.527 -0.5286 -0.8848  1.7772
 3180TIP3   OH233734   0.784   5.479  19.431  0.7259  0.9893  0.1660
 3180TIP3    H133735   0.709   5.531  19.399  0.6927  1.5279  1.0995
 3180TIP3    H233736   0.774   5.477  19.526  1.6098  0.6103  0.2635
 3181TIP3   OH233737   0.068   5.031  19.702  0.2899  0.2617 -0.1484
 3181TIP3    H133738   0.004   5.002  19.637 -0.0624  1.9604 -0.6089
 3181TIP3    H233739   0.015   5.052  19.780  0.3459  1.0348 -0.3108
 3182TIP3   OH233740   2.449   3.399  18.607  0.6650 -0.1088  0.7147
 3182TIP3    H133741   2.398   3.323  18.579  0.8158  0.3299 -0.7901
 3182TIP3    H233742   2.514   3.412  18.538  2.0959  0.0523  2.0360
 3183TIP3   OH233743   4.563   5.673  16.254  0.3780  0.4784 -0.0550
 3183TIP3    H133744   4.651   5.704  16.233  0.8046 -0.5335  0.2127
 3183TIP3    H233745   4.574   5.581  16.276 -1.2009 -0.6439 -3.3287
 3184TIP3   OH233746   0.980   4.117  19.178 -0.0020 -0.3359  0.3247
 3184TIP3    H133747   1.034   4.049  19.220  0.1610 -0.1576  0.4035
 3184TIP3    H233748   0.932   4.157  19.250 -1.2623 -1.3985  0.1038
 3185TIP3   OH233749   5.873   3.658  19.618 -0.2016  0.4228  0.3710
 3185TIP3    H133750   5.953   3.658  19.565 -0.8176  2.9362 -0.7257
 3185TIP3    H233751   5.808   3.613  19.564 -0.3186  1.2154 -0.1635
 3186TIP3   OH233752   6.152   4.999  18.916 -0.3419 -0.2635  0.3645
 3186TIP3    H133753   6.145   4.998  19.012 -0.2806  0.0424  0.3718
 3186TIP3    H233754   6.216   5.067  18.897  0.0043 -0.6448  0.1274
 3187TIP3   OH233755   5.007   2.495  17.832  0.0963  0.0037 -0.0251
 3187TIP3    H133756   4.947   2.569  17.824  1.0493  0.9048  0.8501
 3187TIP3    H233757   5.084   2.521  17.782  2.2580  1.6210  3.6979
 3188TIP3   OH233758   2.835   4.332  18.346 -0.1087 -0.6393  0.1840
 3188TIP3    H133759   2.847   4.239  18.364  0.2765 -0.6078  0.0997
 3188TIP3    H233760   2.795   4.335  18.259  1.0342 -0.6929 -0.3598
 3189TIP3   OH233761   1.557   2.645  18.282  0.4625 -0.2324  0.6204
 3189TIP3    H133762   1.604   2.563  18.297  0.5193 -0.4826 -0.7996
 3189TIP3    H233763   1.604   2.687  18.210 -0.4738  0.3175  0.3137
 3190TIP3   OH233764   4.178   6.276  17.240  0.2549  0.0895  0.2013
 3190TIP3    H133765   4.186   6.260  17.146  0.4831 -0.7933  0.3590
 3190TIP3    H233766   4.179   6.189  17.279  2.8507  0.5100  1.2445
 3191TIP3   OH233767   2.373   0.271  20.022  0.1857  0.5884  0.4428
 3191TIP3    H133768   2.386   0.240  19.932 -1.1323 -0.5723  0.6257
 3191TIP3    H233769   2.460   0.266  20.062  0.4157 -0.8615 -0.1756
 3192TIP3   OH233770   6.377   0.605  19.394  0.0383 -0.2905  0.1176
 3192TIP3    H133771   6.420   0.665  19.333 -1.2727  0.1429 -0.4006
 3192TIP3    H233772   6.284   0.616  19.377 -0.3231 -0.7193  1.6764
 3193TIP3   OH233773   2.765   5.471  20.160  0.0071  0.0903 -0.0857
 3193TIP3    H133774   2.705   5.426  20.219  0.0155  0.6128  0.3285
 3193TIP3    H233775   2.710   5.499  20.087 -0.5777  1.7741  0.9274
 3194TIP3   OH233776   3.161   5.087  16.972 -0.0399 -0.2488 -0.0618
 3194TIP3    H133777   3.211   5.155  16.926 -0.0330 -0.6871 -0.7202
 3194TIP3    H233778   3.072   5.097  16.939 -0.2353  0.0537  0.5551
 3195TIP3   OH233779   3.193   3.201  19.858 -0.0909  0.0060 -0.2028
 3195TIP3    H133780   3.132   3.127  19.854  0.6265 -0.5445 -2.2914
 3195TIP3    H233781   3.149   3.270  19.808  0.0648  0.3515  0.1343
 3196TIP3   OH233782   3.056   2.270  18.482  0.6023 -0.2071  0.5280
 3196TIP3    H133783   3.029   2.350  18.527  2.7419  0.5651  0.5315
 3196TIP3    H233784   3.036   2.200  18.545 -0.9947  0.3176  0.6506
 3197TIP3   OH233785   3.067   5.779  19.224 -0.2499 -0.3183  0.2492
 3197TIP3    H133786   3.153   5.737  19.230 -0.9494 -1.8638  0.0241
 3197TIP3    H233787   3.075   5.839  19.150  1.0598  0.7015  1.1482
 3198TIP3   OH233788   5.215   6.507  19.600  0.4369 -0.0632 -0.1769
 3198TIP3    H133789   5.282   6.546  19.656 -0.5083  3.3095 -1.1272
 3198TIP3    H233790   5.159   6.458  19.659  1.7288  0.0102  1.1625
 3199TIP3   OH233791   3.929   1.005  17.543  0.4971 -0.0316  0.3092
 3199TIP3    H133792   3.953   1.097  17.528  0.4449  0.2824  2.0165
 3199TIP3    H233793   3.936   0.965  17.456  3.7422  0.8265  0.0426
 3200TIP3   OH233794   5.766   5.480  19.192  0.1277  0.2609 -0.4831
 3200TIP3    H133795   5.760   5.551  19.128  2.7170  0.5010 -0.5452
 3200TIP3    H233796   5.758   5.523  19.277  0.3858  0.4438 -0.5533
 3201TIP3   OH233797   0.510   3.082  17.985 -0.4141  0.5919  0.0556
 3201TIP3    H133798   0.482   3.017  18.049 -0.3344  1.6939  1.2437
 3201TIP3    H233799   0.480   3.047  17.901  0.4804 -1.4390  0.5378
 3202TIP3   OH233800   3.492   2.755  19.098  0.1833  0.1679 -0.3897
 3202TIP3    H133801   3.578   2.763  19.057  0.5737 -2.0323 -0.1028
 3202TIP3    H233802   3.510   2.730  19.189 -0.7390 -0.7932 -0.4452
 3203TIP3   OH233803   2.602   0.139  18.888  0.2349 -0.4638 -0.2556
 3203TIP3    H133804   2.514   0.135  18.925  0.1734 -0.7112 -0.4283
 3203TIP3    H233805   2.644   0.057  18.915  0.1091 -0.7562 -0.9347
 3204TIP3   OH233806   2.018   0.734  19.012  0.3122  0.1240 -0.6227
 3204TIP3    H133807   2.052   0.803  19.068  0.9923  0.7063 -1.7165
 3204TIP3    H233808   2.011   0.774  18.926  2.1092 -1.5423 -1.6370
 3205TIP3   OH233809   5.496   0.554  18.798  0.1329  0.4837 -0.5371
 3205TIP3    H133810   5.576   0.520  18.837  0.5281 -0.3638 -2.0156
 3205TIP3    H233811   5.526   0.616  18.731 -0.5204  1.6998  0.2594
 3206TIP3   OH233812   5.599   3.371  18.795  0.1480 -0.3483  0.0878
 3206TIP3    H133813   5.514   3.404  18.825 -0.5177  0.5536 -2.4888
 3206TIP3    H233814   5.656   3.448  18.795  0.9075 -0.8647  1.3947
 3207TIP3   OH233815   2.408   3.888  19.948  0.2475 -0.3099 -0.1587
 3207TIP3    H133816   2.350   3.837  19.892 -0.3845 -0.3715  0.5403
 3207TIP3    H233817   2.435   3.962  19.894 -1.2442  0.2431 -0.2022
 3208TIP3   OH233818   6.412   1.052  18.243  0.8604 -0.2319  0.2695
 3208TIP3    H133819   6.373   1.096  18.318 -2.0512 -1.6272 -0.2851
 3208TIP3    H233820   6.386   1.105  18.168 -1.2612 -1.8369 -0.2314
 3209TIP3   OH233821   2.856   2.400  18.054 -0.6761  0.2118  0.3081
 3209TIP3    H133822   2.886   2.446  18.132 -0.3995 -1.3227  1.1517
 3209TIP3    H233823   2.934   2.391  18.000 -0.3087 -0.8712  0.9930
 3210TIP3   OH233824   3.718   5.742  17.698 -0.1372 -0.6224  0.4611
 3210TIP3    H133825   3.688   5.827  17.665 -1.4851 -2.0080 -2.1807
 3210TIP3    H233826   3.795   5.721  17.646  0.4838 -0.8186  1.4405
 3211TIP3   OH233827   0.690   2.668  20.241  0.3662  0.2287  0.5817
 3211TIP3    H133828   0.665   2.583  20.205 -0.2363  0.1806  1.1017
 3211TIP3    H233829   0.764   2.650  20.299  0.4753  0.1146  0.4071
 3212TIP3   OH233830   0.359   2.486  19.998 -0.0817  0.5684  0.8535
 3212TIP3    H133831   0.312   2.429  19.937  0.6285  1.4832 -0.5918
 3212TIP3    H233832   0.307   2.567  20.000  1.0788  1.3773 -0.3269
 3213TIP3   OH233833   2.264   0.596  18.903  0.2553  0.2658 -0.6288
 3213TIP3    H133834   2.196   0.627  18.963  1.6778  1.2423  0.5468
 3213TIP3    H233835   2.306   0.523  18.950 -0.0857 -0.4715 -1.4326
 3214TIP3   OH233836   2.128   5.506  17.680 -0.8450  0.2092  0.7332
 3214TIP3    H133837   2.220   5.522  17.660 -1.2692  0.4137 -1.2652
 3214TIP3    H233838   2.080   5.566  17.623 -2.2454 -0.9193  0.6499
 3215TIP3   OH233839   6.574   3.197  17.638  0.0153  0.7168  0.5025
 3215TIP3    H133840   6.489   3.232  17.614  0.1342 -1.3500 -3.9776
 3215TIP3    H233841   6.637   3.260  17.605  0.1815  0.1976 -0.2048
 3216TIP3   OH233842   2.297   3.772  20.197  0.1217 -0.4130 -0.0374
 3216TIP3    H133843   2.338   3.820  20.126  2.3635  0.9354  1.9970
 3216TIP3    H233844   2.349   3.692  20.205  1.1341  0.3072  1.1700
 3217TIP3   OH233845   5.773   2.717  18.397  0.5449  0.3689 -0.2941
 3217TIP3    H133846   5.807   2.707  18.486 -1.8966 -0.7105  0.6049
 3217TIP3    H233847   5.729   2.634  18.379  0.4204  0.8175 -2.2727
 3218TIP3   OH233848   0.680   3.128  19.127  0.8361  0.2117 -0.3667
 3218TIP3    H133849   0.604   3.119  19.186 -0.6980  0.7177 -2.1802
 3218TIP3    H233850   0.661   3.068  19.055  2.7720 -0.5259 -0.3102
 3219TIP3   OH233851   4.096   5.467  18.954  0.2104  0.2615 -0.0061
 3219TIP3    H133852   4.016   5.440  19.000  0.6343  0.3543  0.7982
 3219TIP3    H233853   4.152   5.390  18.954  0.7767  0.6493  0.8922
 3220TIP3   OH233854   2.656   1.962  17.893  0.2382  0.6668  0.1072
 3220TIP3    H133855   2.726   1.923  17.944 -0.8123  0.4646  1.4730
 3220TIP3    H233856   2.577   1.947  17.945 -0.9717  0.1300 -1.7572
 3221TIP3   OH233857   3.161   2.883  18.003 -0.6459 -0.7797 -0.0556
 3221TIP3    H133858   3.219   2.916  17.934 -1.6151  0.7431 -0.2009
 3221TIP3    H233859   3.218   2.866  18.077  0.1564 -0.6175 -0.6245
 3222TIP3   OH233860   2.462   0.649  18.262 -0.4472  0.1027 -0.1219
 3222TIP3    H133861   2.528   0.620  18.324  0.1167  0.3240 -0.6061
 3222TIP3    H233862   2.471   0.744  18.259 -2.3430  0.4149  1.5228
 3223TIP3   OH233863   5.696   2.240  20.025 -0.1725 -0.3480 -0.3802
 3223TIP3    H133864   5.665   2.163  20.072  0.8919 -0.1587  0.6778
 3223TIP3    H233865   5.619   2.295  20.015 -0.4306 -0.4047  1.1329
 3224TIP3   OH233866   4.579   5.189  18.482 -0.1597  0.0786 -0.3249
 3224TIP3    H133867   4.504   5.137  18.453  0.0401  0.3789 -1.4018
 3224TIP3    H233868   4.642   5.124  18.514 -0.6154 -0.2154 -0.0127
 3225TIP3   OH233869   5.386   3.150  18.493 -0.8233 -0.1738  0.3027
 3225TIP3    H133870   5.463   3.202  18.515 -0.6011 -0.4511  0.1827
 3225TIP3    H233871   5.420   3.075  18.445 -1.0893 -0.6883  0.9041
 3226TIP3   OH233872   5.418   4.742  18.671 -0.5109 -0.1010 -0.0845
 3226TIP3    H133873   5.472   4.739  18.750 -0.4618 -1.4164 -0.1508
 3226TIP3    H233874   5.350   4.676  18.685  0.1861 -1.2139 -1.6049
 3227TIP3   OH233875   0.962   6.293  18.655 -0.0020 -0.1005  0.1366
 3227TIP3    H133876   0.955   6.387  18.675 -0.3656 -0.0571 -0.1863
 3227TIP3    H233877   0.962   6.289  18.559  0.0224 -0.4318  0.1496
 3228TIP3   OH233878   0.442   4.162  18.424 -0.0680  0.0738  0.0232
 3228TIP3    H133879   0.354   4.130  18.405 -0.3701  0.5584  0.5928
 3228TIP3    H233880   0.451   4.155  18.519  1.1136 -1.4975 -0.1761
 3229TIP3   OH233881   0.137   3.151  19.191  0.0292  0.7918  0.3840
 3229TIP3    H133882   0.187   3.161  19.110 -0.2364 -0.7359  0.0036
 3229TIP3    H233883   0.104   3.239  19.210  2.8307  1.8761  0.6595
 3230TIP3   OH233884   0.679   1.944  19.457 -1.0149  0.5752  0.4094
 3230TIP3    H133885   0.669   2.005  19.384  0.4016  0.2424 -0.1086
 3230TIP3    H233886   0.694   2.001  19.533  2.3481  1.0027 -0.3859
 3231TIP3   OH233887   5.921   3.931  17.955 -0.4349 -0.1709  0.2093
 3231TIP3    H133888   5.859   3.947  18.026 -0.3101  1.9275 -0.0909
 3231TIP3    H233889   5.874   3.957  17.876  0.8870  1.8596  0.0184
 3232TIP3   OH233890   1.252   1.241  17.609  0.6653  0.0248  0.4717
 3232TIP3    H133891   1.298   1.164  17.640  0.6536  0.3649  1.3779
 3232TIP3    H233892   1.321   1.298  17.573  0.7243 -0.2111  0.2056
 3233TIP3   OH233893   4.768   1.831  19.301  0.0984 -0.4648 -0.3210
 3233TIP3    H133894   4.827   1.786  19.241 -0.7662 -1.3205 -0.5443
 3233TIP3    H233895   4.707   1.763  19.331 -0.5625  0.3260  0.1778
 3234TIP3   OH233896   0.381   5.167  18.450  0.1275  0.2913 -0.0202
 3234TIP3    H133897   0.410   5.172  18.541 -0.2368  2.5571  0.0139
 3234TIP3    H233898   0.427   5.238  18.406 -3.3515  2.4765 -0.4877
 3235TIP3   OH233899   3.278   6.457  18.971 -0.0055  0.5348 -0.2113
 3235TIP3    H133900   3.352   6.398  18.982  0.5232  1.4724  1.7229
 3235TIP3    H233901   3.201   6.403  18.990  0.4668  0.4272  1.5507
 3236TIP3   OH233902   3.329   5.217  17.765  0.1924 -0.7394  0.1697
 3236TIP3    H133903   3.241   5.220  17.725 -1.0649  0.8607  2.8001
 3236TIP3    H233904   3.324   5.145  17.828  0.2899  0.2161  1.2889
 3237TIP3   OH233905   1.272   6.334  17.939  0.3468 -0.0618 -0.2186
 3237TIP3    H133906   1.200   6.377  17.985  0.2532  0.4392 -0.8330
 3237TIP3    H233907   1.277   6.247  17.980 -0.4775 -0.0337 -0.0392
 3238TIP3   OH233908   2.541   1.742  18.790  0.1222  0.0219  0.8106
 3238TIP3    H133909   2.454   1.780  18.800 -0.2621 -0.5960 -0.0061
 3238TIP3    H233910   2.531   1.650  18.814  0.1979 -0.3925 -0.5987
 3239TIP3   OH233911   1.348   5.831  17.195  0.4074  0.0002  0.8586
 3239TIP3    H133912   1.282   5.805  17.259  1.1992 -0.0885  1.6460
 3239TIP3    H233913   1.398   5.751  17.178 -1.0680 -0.5235 -1.4584
 3240TIP3   OH233914   1.973   3.411  20.026 -0.1669 -0.6618  0.2617
 3240TIP3    H133915   2.067   3.401  20.043  0.1622 -1.4059 -1.7366
 3240TIP3    H233916   1.931   3.358  20.093  0.6573  1.5651  2.7190
 3241TIP3   OH233917   2.456   4.679  19.291  0.2027  0.0846  0.4465
 3241TIP3    H133918   2.385   4.714  19.345  0.9029 -1.6987  2.6574
 3241TIP3    H233919   2.416   4.606  19.244  0.6886 -1.4969  2.3744
 3242TIP3   OH233920   0.459   1.302  17.298  0.2479  0.3654 -0.1297
 3242TIP3    H133921   0.442   1.306  17.204  0.4382 -0.2493 -0.1919
 3242TIP3    H233922   0.495   1.214  17.313  1.5251  0.9308  0.2995
 3243TIP3   OH233923   0.076   0.164  20.187  0.1997  0.1597 -0.3127
 3243TIP3    H133924   0.055   0.253  20.159  1.4668  0.3149 -0.8321
 3243TIP3    H233925   0.030   0.108  20.124  0.8452  0.4869 -1.1091
 3244TIP3   OH233926   6.350   2.351  17.670  0.0286  0.3224  0.2685
 3244TIP3    H133927   6.313   2.432  17.634 -1.1178 -1.2181 -2.3263
 3244TIP3    H233928   6.426   2.332  17.616  0.0614 -0.5329  0.5853
 3245TIP3   OH233929   4.965   5.657  18.371  0.3049  0.0521  0.0731
 3245TIP3    H133930   5.024   5.632  18.300  1.5301  0.7906  0.7848
 3245TIP3    H233931   5.014   5.639  18.451 -0.1822  1.2541  0.6825
 3246TIP3   OH233932   1.086   1.535  17.369 -0.1672  0.3543 -0.7641
 3246TIP3    H133933   1.104   1.507  17.459 -1.1048  0.6989 -0.4591
 3246TIP3    H233934   1.147   1.483  17.315 -0.9700 -1.3391 -0.1056
 3247TIP3   OH233935   6.141   3.350  19.530  0.3375 -0.2014 -0.5728
 3247TIP3    H133936   6.109   3.322  19.444 -0.0544  1.4041 -0.9909
 3247TIP3    H233937   6.129   3.445  19.530  2.6064  0.1514  0.3268
 3248TIP3   OH233938   1.041   6.591  17.239  0.1705  0.0930  0.0891
 3248TIP3    H133939   1.026   6.586  17.334 -1.7848  0.6101 -0.1515
 3248TIP3    H233940   0.953   6.592  17.201  0.9246 -0.1827 -1.7528
 3249TIP3   OH233941   0.175   3.017  19.837 -0.2802  0.0333  0.2438
 3249TIP3    H133942   0.115   2.996  19.908 -0.5563 -1.0022 -0.2883
 3249TIP3    H233943   0.162   3.111  19.822  0.3269  0.4417  2.0421
 3250TIP3   OH233944   4.259   5.599  17.318 -0.2318 -0.5140  0.1021
 3250TIP3    H133945   4.182   5.644  17.353  0.1770  0.3872 -0.1225
 3250TIP3    H233946   4.246   5.507  17.342 -0.8828 -0.2164  0.9468
 3251TIP3   OH233947   2.731   4.404  17.659 -0.2277  0.5179  0.8974
 3251TIP3    H133948   2.669   4.458  17.608  0.6488  0.4945 -0.2280
 3251TIP3    H233949   2.675   4.355  17.720 -1.2668  0.9371  0.3112
 3252TIP3   OH233950   1.772   6.518  19.907 -0.3146  0.3508 -0.0911
 3252TIP3    H133951   1.806   6.569  19.981  1.0146 -0.4690 -0.1120
 3252TIP3    H233952   1.796   6.569  19.830  0.3046  0.1033 -0.0676
 3253TIP3   OH233953   3.477   3.800  17.775  0.5874  0.3861  0.4091
 3253TIP3    H133954   3.466   3.719  17.725  2.6143  0.0817  0.3713
 3253TIP3    H233955   3.392   3.814  17.817 -0.4139 -0.6653 -1.1568
 3254TIP3   OH233956   5.010   1.636  19.648  0.1655 -0.4326  0.0791
 3254TIP3    H133957   5.094   1.624  19.603  1.2689 -0.0177  1.9184
 3254TIP3    H233958   4.980   1.547  19.667 -0.3005 -0.6163 -1.3466
 3255TIP3   OH233959   3.146   6.203  17.695  0.1049  0.0070  0.0997
 3255TIP3    H133960   3.092   6.282  17.696 -1.3202 -0.9039 -0.8168
 3255TIP3    H233961   3.180   6.196  17.785 -1.6483  0.3960  0.8254
 3256TIP3   OH233962   1.765   0.149  17.090  0.2672  0.5977  0.9889
 3256TIP3    H133963   1.722   0.191  17.015  1.8592  0.9304  0.2164
 3256TIP3    H233964   1.795   0.064  17.056  1.0642  0.7810  1.2127
 3257TIP3   OH233965   3.154   4.495  17.979 -0.0236 -0.2465 -0.4878
 3257TIP3    H133966   3.091   4.505  17.908  0.1054  1.5563 -0.4043
 3257TIP3    H233967   3.100   4.489  18.059 -0.1257 -0.9556 -0.5990
 3258TIP3   OH233968   5.160   6.554  19.330 -0.4506 -0.3191 -0.0443
 3258TIP3    H133969   5.076   6.599  19.319  0.1416  0.8094 -0.1479
 3258TIP3    H233970   5.176   6.557  19.425 -1.0600 -1.5669  0.1133
 3259TIP3   OH233971   4.087   4.487  19.636 -0.3614  0.0483 -0.1206
 3259TIP3    H133972   3.994   4.501  19.621 -0.5262  1.5512  1.7907
 3259TIP3    H233973   4.120   4.449  19.555 -2.9045 -2.0474 -0.2784
 3260TIP3   OH233974   4.562   3.311  18.725  0.1516 -0.4720  0.1471
 3260TIP3    H133975   4.514   3.235  18.691 -0.3410  0.1417 -0.5635
 3260TIP3    H233976   4.614   3.276  18.797 -0.2199 -1.4468 -0.0401
 3261TIP3   OH233977   1.947   3.145  17.155 -0.1766 -0.6232 -0.3842
 3261TIP3    H133978   2.040   3.154  17.135 -0.2252  0.7466 -0.1085
 3261TIP3    H233979   1.902   3.171  17.075 -0.3277  2.2717  0.5029
 3262TIP3   OH233980   6.547   4.776  18.411  0.0794 -0.5318 -0.1359
 3262TIP3    H133981   6.480   4.826  18.457  1.2091  0.7219  0.2263
 3262TIP3    H233982   6.574   4.709  18.474 -0.6080 -0.8665 -0.1825
 3263TIP3   OH233983   2.859   2.720  20.073 -0.1116 -0.0134  0.4275
 3263TIP3    H133984   2.938   2.672  20.096  1.2718  1.4947 -0.9819
 3263TIP3    H233985   2.813   2.664  20.011  0.4679 -0.3638  0.3128
 3264TIP3   OH233986   0.215   3.774  20.037 -0.2096  0.2001 -0.1268
 3264TIP3    H133987   0.248   3.733  19.956  1.0165 -0.9942  0.9321
 3264TIP3    H233988   0.136   3.723  20.058  0.3410 -0.5184  0.2494
 3265TIP3   OH233989   0.039   6.568  18.483 -0.0433 -0.6388  0.1426
 3265TIP3    H133990  -0.017   6.557  18.406 -2.4587 -1.0645  1.8361
 3265TIP3    H233991   0.053   6.663  18.488 -0.9600 -0.4760 -0.1152
 3266TIP3   OH233992   2.823   3.899  18.481  0.6232 -0.3803 -0.0288
 3266TIP3    H133993   2.869   3.955  18.419  0.4601 -0.2071  0.0066
 3266TIP3    H233994   2.737   3.885  18.442  0.1515  0.5698  0.6366
 3267TIP3   OH233995   3.222   6.224  18.149 -0.2897 -0.5410  0.2597
 3267TIP3    H133996   3.176   6.290  18.097  0.7693 -0.6488 -0.8348
 3267TIP3    H233997   3.167   6.145  18.142 -0.6335 -0.2898  0.0950
 3268TIP3   OH233998   5.256   5.411  17.236 -1.0252 -0.4869 -0.4076
 3268TIP3    H133999   5.228   5.376  17.152 -0.4326  1.2041 -1.3726
 3268TIP3    H234000   5.258   5.506  17.222 -3.0539  0.0555  2.1877
 3269TIP3   OH234001   2.403   4.395  20.190  0.6898  0.3204  0.9903
 3269TIP3    H134002   2.457   4.473  20.179  1.6927 -0.5211 -0.3194
 3269TIP3    H234003   2.401   4.381  20.285  0.3242  2.0198  1.2651
 3270TIP3   OH234004   6.324   5.219  18.993  0.9386  0.4436 -0.8842
 3270TIP3    H134005   6.279   5.303  18.996  3.3775  1.8154 -0.5514
 3270TIP3    H234006   6.414   5.239  19.017  1.5068 -2.3554 -0.3835
 3271TIP3   OH234007   0.588   3.270  19.754 -0.3897  0.2944  0.5366
 3271TIP3    H134008   0.519   3.318  19.708 -0.5326 -0.2470  0.1746
 3271TIP3    H234009   0.555   3.180  19.759  0.6532 -0.1541 -0.3824
 3272TIP3   OH234010   4.319   5.290  18.990 -0.3685 -0.2723  0.1222
 3272TIP3    H134011   4.374   5.253  18.920  0.9757  2.5472 -0.4457
 3272TIP3    H234012   4.377   5.293  19.066 -1.0632 -1.0345  0.6953
 3273TIP3   OH234013   2.163   1.269  19.458  0.1746  0.2678 -0.1417
 3273TIP3    H134014   2.128   1.233  19.539  0.1792  0.5450 -0.0163
 3273TIP3    H234015   2.258   1.265  19.469  0.1839 -0.2510 -0.3790
 3274TIP3   OH234016   0.114   1.013  17.769 -0.8578 -0.2849 -0.5535
 3274TIP3    H134017   0.119   0.968  17.685 -2.2125  0.5714 -1.1280
 3274TIP3    H234018   0.041   0.971  17.814  0.6425 -1.6083  0.7782
 3275TIP3   OH234019   5.359   3.342  17.990 -0.2688  0.0117  0.0459
 3275TIP3    H134020   5.380   3.302  18.074  0.6396  0.3121 -0.0241
 3275TIP3    H234021   5.416   3.418  17.985 -1.1490  0.6609 -0.3383
 3276TIP3   OH234022   5.732   4.780  19.775 -0.7444 -0.4380  0.1203
 3276TIP3    H134023   5.655   4.727  19.753 -1.2371  0.2468  0.1551
 3276TIP3    H234024   5.754   4.824  19.693 -0.9043  0.0105  0.3162
 3277TIP3   OH234025   2.473   0.973  18.230 -0.0681  0.6699 -0.0990
 3277TIP3    H134026   2.455   1.046  18.171 -1.2995  0.0956 -0.4713
 3277TIP3    H234027   2.425   0.994  18.310 -1.3238 -0.1972 -0.5849
 3278TIP3   OH234028   0.413   4.627  19.222 -0.2604 -0.7082  0.1934
 3278TIP3    H134029   0.484   4.654  19.165 -0.7524 -0.5158 -0.3350
 3278TIP3    H234030   0.443   4.650  19.310 -1.0611  2.6080 -0.2701
 3279TIP3   OH234031   1.638   4.251  16.692  0.1746 -0.0441 -0.4756
 3279TIP3    H134032   1.596   4.335  16.713 -0.2116 -0.3309 -0.1047
 3279TIP3    H234033   1.713   4.276  16.637  2.0392  0.8921  2.2518
 3280TIP3   OH234034   4.046   0.750  17.257  0.0246  0.7706  0.3293
 3280TIP3    H134035   4.107   0.698  17.308  0.3885 -0.3407 -1.1665
 3280TIP3    H234036   4.100   0.822  17.222  1.2700 -1.4786 -2.9560
 3281TIP3   OH234037   3.932   3.446  17.980 -0.4153  0.2368  0.2594
 3281TIP3    H134038   3.914   3.537  17.955 -0.0707 -0.1437 -1.4749
 3281TIP3    H234039   3.853   3.398  17.956 -0.3762 -0.0331  0.6453
 3282TIP3   OH234040   4.966   5.130  17.185  0.1425  0.1861  0.2443
 3282TIP3    H134041   4.934   5.133  17.276 -1.3871  2.0378 -0.2987
 3282TIP3    H234042   5.031   5.200  17.180  1.4108 -0.9426  0.2743
 3283TIP3   OH234043   1.210   4.766  18.373 -0.3358 -0.8570 -0.2628
 3283TIP3    H134044   1.227   4.858  18.352 -2.1001 -0.8130 -1.7687
 3283TIP3    H234045   1.273   4.718  18.319 -0.2417 -0.5658 -0.4208
 3284TIP3   OH234046   2.049   1.912  19.026  0.1054 -0.3473  0.3754
 3284TIP3    H134047   1.957   1.926  19.002 -0.0378 -0.4648  0.8339
 3284TIP3    H234048   2.058   1.952  19.112  0.7162  0.4266 -0.0421
 3285TIP3   OH234049   3.382   5.598  17.594 -0.3255 -0.0240  0.1157
 3285TIP3    H134050   3.302   5.650  17.607 -0.1190  0.6894 -1.2012
 3285TIP3    H234051   3.358   5.534  17.527 -0.2602 -0.9318  0.9465
 3286TIP3   OH234052   1.770   0.059  19.693 -0.5934  0.1934  0.7937
 3286TIP3    H134053   1.795   0.148  19.718  1.2809  0.3440 -1.2966
 3286TIP3    H234054   1.688   0.070  19.645 -0.7096  0.7070  1.0971
 3287TIP3   OH234055   4.360   5.640  17.922 -0.2072  0.0795  0.1193
 3287TIP3    H134056   4.369   5.603  17.834  0.2192 -1.0910  0.6305
 3287TIP3    H234057   4.422   5.591  17.975 -1.2287  0.0100  1.3018
 3288TIP3   OH234058   6.339   6.539  18.819  0.5846 -0.4089  0.3339
 3288TIP3    H134059   6.415   6.516  18.873  0.9011  2.0645  1.0502
 3288TIP3    H234060   6.304   6.618  18.859 -0.6745  0.1297 -1.6786
 3289TIP3   OH234061   3.072   5.183  17.666  0.4117  0.1389  0.0452
 3289TIP3    H134062   2.983   5.158  17.691  1.2807 -2.1029  1.1522
 3289TIP3    H234063   3.060   5.241  17.591 -1.9455 -1.7585 -1.2022
 3290TIP3   OH234064   0.633   4.360  18.033  0.4858  0.5803 -0.2420
 3290TIP3    H134065   0.697   4.423  18.066  0.7570  0.3100 -0.2570
 3290TIP3    H234066   0.548   4.397  18.059  0.7152 -0.0282  1.5205
 3291TIP3   OH234067   1.323   5.435  19.981  0.5084 -0.1896  0.0543
 3291TIP3    H134068   1.314   5.340  19.982  1.3053 -0.3304 -2.0071
 3291TIP3    H234069   1.399   5.451  19.925  1.2399  1.6292  1.4571
 3292TIP3   OH234070   3.871   4.705  18.086  0.3090  0.4298 -0.5977
 3292TIP3    H134071   3.877   4.738  18.175  0.5030  0.1566 -0.5098
 3292TIP3    H234072   3.907   4.616  18.090 -1.1341 -0.1858 -0.6319
 3293TIP3   OH234073   3.054   0.587  19.810  0.4870 -0.0216 -0.4989
 3293TIP3    H134074   3.019   0.673  19.833  0.6314  0.2095 -1.1328
 3293TIP3    H234075   3.013   0.566  19.726 -0.3216 -1.0225  0.1205
 3294TIP3   OH234076   5.544   2.838  17.840 -0.5750  0.0715 -0.4469
 3294TIP3    H134077   5.484   2.802  17.774 -0.0451 -3.0947  0.5925
 3294TIP3    H234078   5.500   2.820  17.924 -1.4770  4.4409  0.2289
 3295TIP3   OH234079   1.972   2.001  19.705  0.2819 -0.6296 -0.0485
 3295TIP3    H134080   2.040   1.965  19.649  0.1842 -1.5073  0.3870
 3295TIP3    H234081   2.019   2.055  19.769  0.3837  0.4966 -1.0343
 3296TIP3   OH234082   5.397   4.990  17.647  0.1874  0.1815 -0.6439
 3296TIP3    H134083   5.446   4.910  17.667  0.0556  0.0649 -0.7819
 3296TIP3    H234084   5.385   4.987  17.552 -0.0241  0.2478 -0.6175
 3297TIP3   OH234085   3.688   1.302  18.805 -0.2268  0.1850  0.6646
 3297TIP3    H134086   3.722   1.241  18.871  0.6170 -2.6691 -2.1383
 3297TIP3    H234087   3.614   1.255  18.766  0.3885  0.9514 -1.5498
 3298TIP3   OH234088   4.787   2.147  19.800 -0.2401  0.6094  0.1177
 3298TIP3    H134089   4.723   2.218  19.790 -1.2764 -0.1790  0.9280
 3298TIP3    H234090   4.766   2.107  19.885 -0.3243 -1.2837 -0.7377
 3299TIP3   OH234091   4.522   2.395  18.694 -0.1887 -0.6015  0.1127
 3299TIP3    H134092   4.503   2.368  18.604 -1.7933 -0.6922  0.4337
 3299TIP3    H234093   4.449   2.358  18.745 -0.7270  1.6015  1.0572
 3300TIP3   OH234094   1.658   2.632  17.199 -0.3915  0.4854  0.5662
 3300TIP3    H134095   1.625   2.649  17.111  0.9499 -0.0429 -0.0565
 3300TIP3    H234096   1.645   2.538  17.213  1.5285  0.1096 -0.0056
 3301TIP3   OH234097   1.537   3.666  18.834  0.3740 -0.4533 -0.1488
 3301TIP3    H134098   1.552   3.694  18.743 -0.1724 -1.9376 -0.7358
 3301TIP3    H234099   1.617   3.620  18.858  1.5904  2.0788  1.0822
 3302TIP3   OH234100   0.432   1.971  19.047 -0.0783  0.1480 -0.0100
 3302TIP3    H134101   0.481   1.889  19.054 -0.4649 -0.0829  0.0421
 3302TIP3    H234102   0.378   1.960  18.969 -1.6541 -0.4930  1.1126
 3303TIP3   OH234103   1.570   4.162  20.313 -0.1240 -0.5342 -0.2186
 3303TIP3    H134104   1.517   4.242  20.325  0.3865 -0.2683  0.3017
 3303TIP3    H234105   1.513   4.092  20.344 -1.1478 -0.5769 -2.0435
 3304TIP3   OH234106   6.554   1.498  17.680  0.4655 -0.4075  0.1415
 3304TIP3    H134107   6.468   1.511  17.640 -0.7043 -0.5967  2.4405
 3304TIP3    H234108   6.616   1.503  17.607 -1.3571  1.1387 -1.3870
 3305TIP3   OH234109   4.864   4.479  20.021  0.5223  0.6338  0.1821
 3305TIP3    H134110   4.799   4.409  20.031  0.3465  0.6145 -1.0023
 3305TIP3    H234111   4.933   4.457  20.084  0.4518 -0.5722 -0.1398
 3306TIP3   OH234112   5.652   3.800  18.991  0.1608  0.1988 -0.0193
 3306TIP3    H134113   5.738   3.785  19.029  1.2757  2.0887 -1.5981
 3306TIP3    H234114   5.613   3.868  19.047  0.2349  0.2741 -0.0590
 3307TIP3   OH234115   5.531   1.870  19.069  0.6085  0.3985 -0.7762
 3307TIP3    H134116   5.446   1.888  19.110  0.5481 -0.0374 -0.6945
 3307TIP3    H234117   5.537   1.774  19.070  0.9639  0.4173 -1.0656
 3308TIP3   OH234118   1.394   3.230  18.886  0.1067  0.0550  0.3204
 3308TIP3    H134119   1.360   3.318  18.871  0.8374  0.2742 -0.0898
 3308TIP3    H234120   1.323   3.184  18.930 -0.8021  0.4416 -0.6884
 3309TIP3   OH234121   0.198   4.871  17.488 -0.4055 -0.8225 -0.9606
 3309TIP3    H134122   0.279   4.859  17.536 -1.7333  0.1407  1.7099
 3309TIP3    H234123   0.161   4.783  17.480  1.1344 -1.3849 -2.8727
 3310TIP3   OH234124   6.436   1.308  19.840  0.1010 -0.0935 -0.1066
 3310TIP3    H134125   6.435   1.222  19.880 -1.4633  0.6253  1.5472
 3310TIP3    H234126   6.354   1.349  19.869  0.6013  1.8029 -1.1786
 3311TIP3   OH234127   4.801   3.783  19.501 -0.7316  0.6616 -0.1527
 3311TIP3    H134128   4.738   3.734  19.554  0.7588 -0.7247  0.4453
 3311TIP3    H234129   4.870   3.808  19.563 -0.2060  1.2487 -0.9544
 3312TIP3   OH234130   4.866   3.525  17.556 -0.1843  0.4550  1.1164
 3312TIP3    H134131   4.794   3.515  17.494 -1.0848  1.1751  1.9910
 3312TIP3    H234132   4.940   3.480  17.516 -1.4132 -1.2804  0.6877
 3313TIP3   OH234133   4.592   1.332  18.158  0.1039  0.2965 -0.1231
 3313TIP3    H134134   4.656   1.398  18.182  0.8933  1.3748 -4.3464
 3313TIP3    H234135   4.512   1.381  18.141 -0.5034 -0.4217  0.5843
 3314TIP3   OH234136   2.956   0.622  18.882  0.3727  0.0188 -0.4809
 3314TIP3    H134137   2.933   0.574  18.962  1.2623 -0.9845 -0.8042
 3314TIP3    H234138   2.941   0.559  18.811  0.5857  0.5621 -1.0144
 3315TIP3   OH234139   2.330   4.290  17.090  0.0085 -0.2048 -0.4908
 3315TIP3    H134140   2.320   4.256  17.001  0.6531 -1.0731 -0.2425
 3315TIP3    H234141   2.424   4.284  17.108 -0.1773 -0.4862  0.4197
 3316TIP3   OH234142   4.405   0.124  19.220  0.0999  0.0374  0.0504
 3316TIP3    H134143   4.466   0.062  19.179  0.0123 -0.4889  0.6976
 3316TIP3    H234144   4.334   0.134  19.156  1.2574  1.3424 -1.1034
 3317TIP3   OH234145   5.446   2.775  19.015  0.3849  0.2958 -0.1952
 3317TIP3    H134146   5.485   2.773  19.103 -0.1942 -1.7645  0.0514
 3317TIP3    H234147   5.476   2.858  18.979  1.2636  0.8582  1.6650
 3318TIP3   OH234148   5.217   2.698  16.955  0.6071  0.0895 -0.0844
 3318TIP3    H134149   5.135   2.666  16.992 -0.1051  0.4854 -1.2660
 3318TIP3    H234150   5.228   2.649  16.874  1.6988 -0.1479  0.1791
 3319TIP3   OH234151   0.145   0.360  18.204 -0.2508  0.1535 -0.3596
 3319TIP3    H134152   0.170   0.293  18.141 -1.7642 -0.4952 -0.3146
 3319TIP3    H234153   0.215   0.426  18.199 -0.9266  0.8086 -3.6497
 3320TIP3   OH234154   6.662   2.953  16.602  0.4439 -0.3185 -0.0464
 3320TIP3    H134155   6.681   2.860  16.610  3.1840  0.2965  2.0146
 3320TIP3    H234156   6.643   2.982  16.692 -0.4711  1.1234 -0.6576
 3321TIP3   OH234157   5.082   3.480  17.037 -0.4470 -0.4891  0.6452
 3321TIP3    H134158   5.175   3.468  17.059 -0.4293  0.1427  0.9274
 3321TIP3    H234159   5.076   3.455  16.944  0.9103  3.6158 -0.7698
 3322TIP3   OH234160   4.350   1.442  18.087  0.7255  0.4382  0.2542
 3322TIP3    H134161   4.343   1.534  18.060  1.5106 -0.1858 -2.3213
 3322TIP3    H234162   4.268   1.426  18.135  0.2956  2.3072  0.2520
 3323TIP3   OH234163   3.534   2.580  18.762 -0.1203 -0.8372  0.2853
 3323TIP3    H134164   3.591   2.537  18.825  1.3147 -0.0111 -0.3968
 3323TIP3    H234165   3.558   2.543  18.678 -1.6306 -1.5249  0.1262
 3324TIP3   OH234166   3.573   4.057  17.920 -0.1935 -0.2231 -0.2753
 3324TIP3    H134167   3.651   4.113  17.910  1.0733 -2.0738 -1.3966
 3324TIP3    H234168   3.549   4.034  17.830 -2.1148  0.3420  0.0501
 3325TIP3   OH234169   2.098   5.154  18.353 -0.6717  0.3222 -0.1865
 3325TIP3    H134170   2.117   5.133  18.262 -0.3268  1.3346 -0.3627
 3325TIP3    H234171   2.183   5.146  18.397 -0.8874 -0.4231  0.1079
 3326TIP3   OH234172   3.150   6.137  19.621 -0.2279  0.1760  0.0126
 3326TIP3    H134173   3.240   6.161  19.598  0.2793 -1.1823  0.4819
 3326TIP3    H234174   3.154   6.117  19.715 -0.6955 -1.2271 -0.2460
 3327TIP3   OH234175   5.913   5.569  18.402  0.7841 -0.6416  0.4556
 3327TIP3    H134176   5.888   5.509  18.331  0.2798  0.6703 -0.5161
 3327TIP3    H234177   5.955   5.643  18.358  0.6936  0.0877  1.5438
 3328TIP3   OH234178   2.417   3.359  17.537  0.0831  0.1126 -0.1746
 3328TIP3    H134179   2.480   3.337  17.469 -0.4568 -0.2897 -0.5468
 3328TIP3    H234180   2.351   3.290  17.533  0.2936 -0.1818  1.0765
 3329TIP3   OH234181   5.609   2.003  17.788  0.3200 -0.4365 -0.7053
 3329TIP3    H134182   5.634   1.924  17.836 -1.8198 -1.8257 -1.6834
 3329TIP3    H234183   5.656   1.996  17.705 -0.1539 -0.9258 -0.9436
 3330TIP3   OH234184   4.074   6.095  19.866 -0.3555 -0.0650 -0.1862
 3330TIP3    H134185   4.114   6.091  19.953 -1.2302  1.8410  0.3550
 3330TIP3    H234186   3.992   6.047  19.875  0.3639 -1.3918 -0.4771
 3331TIP3   OH234187   1.186   2.828  18.725  0.0343 -0.0570 -0.0318
 3331TIP3    H134188   1.145   2.766  18.665 -1.2082  0.8459 -0.1654
 3331TIP3    H234189   1.226   2.774  18.793 -0.6767 -1.0171 -0.3591
 3332TIP3   OH234190   5.094   2.423  19.664 -0.1141 -0.1469 -0.0533
 3332TIP3    H134191   5.011   2.437  19.710  0.3212  0.0607  0.6748
 3332TIP3    H234192   5.126   2.339  19.698 -0.0030 -0.2092 -0.3091
 3333TIP3   OH234193   1.372   2.468  17.129 -0.4259  0.5523  0.2096
 3333TIP3    H134194   1.380   2.559  17.102 -0.0021  0.5096  0.1840
 3333TIP3    H234195   1.411   2.418  17.057 -3.0298  0.1680 -1.0587
 3334TIP3   OH234196   0.520   3.593  18.330  0.1704  0.1100  0.1235
 3334TIP3    H134197   0.432   3.556  18.340 -0.0087 -0.2515 -2.2524
 3334TIP3    H234198   0.506   3.686  18.316  0.1211  0.0076 -0.5472
 3335TIP3   OH234199   2.337   3.730  18.021 -0.1056  0.1325 -0.4869
 3335TIP3    H134200   2.261   3.754  17.967 -1.1670  1.2329  1.3897
 3335TIP3    H234201   2.328   3.635  18.033 -1.7117  0.3664  0.4238
 3336TIP3   OH234202   1.420   0.964  17.959  0.1512  0.6999 -0.5753
 3336TIP3    H134203   1.338   0.964  18.008  0.6355 -0.3188  0.2814
 3336TIP3    H234204   1.467   1.041  17.991 -0.2778  1.0514 -0.7671
 3337TIP3   OH234205   1.374   5.915  19.709  0.0085 -0.1394  0.0261
 3337TIP3    H134206   1.466   5.899  19.686 -0.4933 -1.2008 -1.3729
 3337TIP3    H234207   1.333   5.828  19.707 -0.8093  0.1662  1.7497
 3338TIP3   OH234208   2.873   0.513  19.128 -0.0439 -0.3179  0.0733
 3338TIP3    H134209   2.845   0.511  19.220 -0.2665  0.9971  0.0602
 3338TIP3    H234210   2.895   0.422  19.107 -0.4221 -0.7092  1.2940
 3339TIP3   OH234211   6.114   1.312  19.276 -0.2567 -0.4116 -0.3024
 3339TIP3    H134212   6.186   1.366  19.308 -0.5448 -0.7171  0.9204
 3339TIP3    H234213   6.043   1.328  19.337 -0.4067 -2.0092 -0.0134
 3340TIP3   OH234214   5.668   0.768  18.683  0.0136 -0.1019  0.0841
 3340TIP3    H134215   5.720   0.721  18.617 -1.5467 -2.4229  0.3904
 3340TIP3    H234216   5.734   0.801  18.745  1.2720 -1.0535 -0.6818
 3341TIP3   OH234217   0.343   3.632  18.569  0.2171 -0.3306 -0.1174
 3341TIP3    H134218   0.439   3.640  18.568  0.2477 -0.4378 -1.9241
 3341TIP3    H234219   0.316   3.666  18.483 -1.3237 -0.7576  0.1813
 3342TIP3   OH234220   4.490   5.728  17.192 -0.6937 -0.3843 -0.1534
 3342TIP3    H134221   4.410   5.681  17.216 -0.1106 -1.0816  0.4689
 3342TIP3    H234222   4.489   5.807  17.246 -0.8097 -0.5454  0.0809
 3343TIP3   OH234223   1.139   2.179  16.728 -0.0650  0.0183 -0.2456
 3343TIP3    H134224   1.092   2.263  16.738 -0.5408 -0.1916 -0.6504
 3343TIP3    H234225   1.228   2.198  16.756 -0.3506  0.4721  0.3867
 3344TIP3   OH234226   0.453   4.387  18.629  0.1533  0.1454 -0.1861
 3344TIP3    H134227   0.401   4.455  18.672  0.4198 -0.0083  0.3884
 3344TIP3    H234228   0.441   4.309  18.684 -1.4410 -0.7567 -1.6615
 3345TIP3   OH234229   5.413   0.717  19.136  0.1494  0.3798  0.0126
 3345TIP3    H134230   5.499   0.739  19.099  0.1379 -0.9339 -0.8759
 3345TIP3    H234231   5.350   0.746  19.069  0.0546 -0.8309 -0.4475
 3346TIP3   OH234232   6.315   3.843  17.584  0.3850 -0.2539  1.1045
 3346TIP3    H134233   6.322   3.752  17.613 -2.7305 -1.9604 -2.5792
 3346TIP3    H234234   6.239   3.877  17.631  0.3630 -0.2182  1.0433
 3347TIP3   OH234235   6.651   5.105  16.970  0.4827 -0.2569  0.0269
 3347TIP3    H134236   6.670   5.067  17.056 -1.8754 -3.1268 -0.5429
 3347TIP3    H234237   6.681   5.040  16.907  1.4657  1.4475 -1.3531
 3348TIP3   OH234238   2.368   2.782  18.289 -0.2335 -0.5252 -0.1919
 3348TIP3    H134239   2.404   2.699  18.323 -2.1563 -0.8458  1.2598
 3348TIP3    H234240   2.273   2.773  18.300 -0.5003  1.8842 -0.0162
 3349TIP3   OH234241   5.839   3.455  20.233  0.7254 -0.1107 -0.0177
 3349TIP3    H134242   5.846   3.398  20.156 -0.2151  0.1497 -0.3107
 3349TIP3    H234243   5.772   3.415  20.288  2.5160 -1.1709  1.4716
 3350TIP3   OH234244   0.134   1.979  18.018 -0.2255 -0.0542  0.2333
 3350TIP3    H134245   0.181   1.905  18.056 -2.0935 -0.7371  1.3670
 3350TIP3    H234246   0.049   1.978  18.062 -0.4649  2.5089 -0.0645
 3351TIP3   OH234247   2.565   4.496  17.267 -0.1703 -0.2882 -0.0723
 3351TIP3    H134248   2.583   4.429  17.201 -0.6135 -0.2662 -0.2205
 3351TIP3    H234249   2.545   4.448  17.346  1.1962 -0.3055  0.2808
 3352TIP3   OH234250   1.971   0.922  18.222 -0.4026  0.2486  0.4122
 3352TIP3    H134251   1.921   0.855  18.269 -1.1630  1.3408  1.1909
 3352TIP3    H234252   2.033   0.872  18.169 -0.1086 -1.0532  1.9135
 3353TIP3   OH234253   5.486   3.548  19.763  0.4704 -0.4207 -0.1804
 3353TIP3    H134254   5.481   3.578  19.672 -0.5290 -1.6688 -0.5733
 3353TIP3    H234255   5.397   3.519  19.784  0.7224 -0.3218  1.1494
 3354TIP3   OH234256   5.815   5.721  19.051  0.1673  0.2292  0.2651
 3354TIP3    H134257   5.828   5.788  18.983  0.5444  0.2652  0.3670
 3354TIP3    H234258   5.891   5.732  19.108  0.8871 -1.0856 -0.3879
 3355TIP3   OH234259   4.648   3.928  18.753 -0.2092 -0.2912 -0.1127
 3355TIP3    H134260   4.642   4.023  18.741 -0.5272 -0.4267 -1.1608
 3355TIP3    H234261   4.642   3.915  18.848 -1.6859  0.6294 -0.0524
 3356TIP3   OH234262   1.706   4.537  18.689  0.3165 -0.4249 -0.0522
 3356TIP3    H134263   1.682   4.628  18.704  1.4664 -0.1034 -0.0983
 3356TIP3    H234264   1.704   4.527  18.594  2.2582  0.1723 -0.2047
 3357TIP3   OH234265   1.274   4.880  17.503  0.7374 -0.4363 -0.5797
 3357TIP3    H134266   1.242   4.794  17.474 -2.5438  0.5960 -0.4160
 3357TIP3    H234267   1.294   4.926  17.422  1.8899 -1.0909 -0.6925
 3358TIP3   OH234268   2.918   3.189  19.090  0.0424  0.3994  0.0239
 3358TIP3    H134269   2.849   3.226  19.035  1.0086 -0.0084 -1.5205
 3358TIP3    H234270   2.904   3.094  19.085  0.6988  0.3144 -0.2815
 3359TIP3   OH234271   1.604   5.337  18.474  0.4706 -0.6121 -0.3882
 3359TIP3    H134272   1.650   5.335  18.558 -0.8276  0.9380  0.4239
 3359TIP3    H234273   1.610   5.429  18.447 -2.8674 -0.0954  0.2500
 3360TIP3   OH234274   1.274   0.633  18.876  0.1954  0.0070  0.0783
 3360TIP3    H134275   1.294   0.673  18.960 -0.3121  0.1693  0.1238
 3360TIP3    H234276   1.192   0.674  18.849 -0.2431 -0.8820  0.0452
 3361TIP3   OH234277   3.237   6.143  19.882 -0.4935  0.2510 -0.0364
 3361TIP3    H134278   3.277   6.083  19.945 -1.8586 -0.1396  0.4906
 3361TIP3    H234279   3.301   6.213  19.871 -0.8431  1.1619  2.9824
 3362TIP3   OH234280   4.347   3.471  18.817 -0.4609  0.3399  0.6580
 3362TIP3    H134281   4.268   3.508  18.777 -0.8311 -0.5482  0.5625
 3362TIP3    H234282   4.396   3.432  18.745 -0.7337 -0.5495  0.9485
 3363TIP3   OH234283   3.107   0.048  17.408 -0.1095 -0.3720  0.4929
 3363TIP3    H134284   3.165  -0.001  17.465 -0.0281  0.8854  1.5308
 3363TIP3    H234285   3.019   0.031  17.442 -0.1493 -0.3693  0.3942
 3364TIP3   OH234286   5.793   0.230  18.646  0.1174 -0.3094  0.8640
 3364TIP3    H134287   5.829   0.283  18.575  1.2152  0.0029  1.6313
 3364TIP3    H234288   5.815   0.140  18.622  0.9841 -0.1594  1.0807
 3365TIP3   OH234289   3.610   4.421  17.845  0.2395 -0.1814  0.0260
 3365TIP3    H134290   3.606   4.513  17.868 -0.3192 -0.2080  0.0614
 3365TIP3    H234291   3.691   4.389  17.884 -0.1222  0.0370  0.9739
 3366TIP3   OH234292   1.164   5.215  18.087 -0.3749  0.1900 -0.0558
 3366TIP3    H134293   1.189   5.258  18.005 -0.5757  0.8016  0.1956
 3366TIP3    H234294   1.070   5.233  18.096  0.0438  1.9417  1.3543
 3367TIP3   OH234295   5.240   0.595  17.622  0.2683  0.1669  0.1796
 3367TIP3    H134296   5.224   0.546  17.542  1.0915  2.5173 -1.5437
 3367TIP3    H234297   5.334   0.592  17.635  0.0337 -1.5230  2.0700
 3368TIP3   OH234298   6.572   2.154  19.782  0.3054  0.4650  0.3620
 3368TIP3    H134299   6.528   2.192  19.707  0.0871  2.1391  1.3008
 3368TIP3    H234300   6.610   2.073  19.748 -1.4751  0.1455 -1.0460
 3369TIP3   OH234301   4.160   2.601  19.444 -0.4043  0.4233  0.3995
 3369TIP3    H134302   4.200   2.683  19.470 -0.0104  0.3815 -0.0650
 3369TIP3    H234303   4.092   2.586  19.510  1.3157 -0.2712  2.1278
 3370TIP3   OH234304   4.351   0.994  17.708 -0.0331  0.5116  0.3607
 3370TIP3    H134305   4.446   0.998  17.696  0.1835 -1.7215  0.9375
 3370TIP3    H234306   4.336   1.024  17.797  0.4296 -1.4127  1.1281
 3371TIP3   OH234307   1.958   5.882  19.735 -0.3118  0.6519  0.5671
 3371TIP3    H134308   2.006   5.945  19.788 -0.7567  0.5490  1.1044
 3371TIP3    H234309   1.925   5.818  19.798 -0.8005  0.4926  0.1567
 3372TIP3   OH234310   1.673   1.568  19.407 -0.0989 -0.1207 -0.0871
 3372TIP3    H134311   1.697   1.651  19.366  1.4647  0.2410  1.4245
 3372TIP3    H234312   1.602   1.590  19.467 -1.7720 -0.4916 -1.8140
 3373TIP3   OH234313   0.302   0.762  17.626 -0.4924 -0.3040  0.2349
 3373TIP3    H134314   0.255   0.745  17.707  1.7709  0.2090  1.7308
 3373TIP3    H234315   0.304   0.678  17.581 -0.4802 -0.9641  1.4331
 3374TIP3   OH234316   6.659   3.151  17.337  0.1216  0.2475  0.6223
 3374TIP3    H134317   6.631   3.130  17.248 -0.5951 -1.3398  1.1781
 3374TIP3    H234318   6.711   3.230  17.328  1.6681 -0.9023 -1.4920
 3375TIP3   OH234319   2.693   4.763  18.860 -0.5294 -0.2912 -0.0393
 3375TIP3    H134320   2.707   4.851  18.896  0.8329  0.0568 -1.3131
 3375TIP3    H234321   2.599   4.761  18.840 -0.4946  1.0829 -0.4845
 3376TIP3   OH234322   5.119   5.682  19.273  0.6641 -1.0782  0.2894
 3376TIP3    H134323   5.167   5.758  19.240 -2.1903  0.2544 -1.1745
 3376TIP3    H234324   5.058   5.719  19.337  0.5051 -2.4285  0.9354
 3377TIP3   OH234325   2.009   3.734  20.158 -0.1942 -0.1511 -0.3157
 3377TIP3    H134326   2.096   3.749  20.195 -0.2496 -1.0056  0.2040
 3377TIP3    H234327   1.993   3.640  20.172 -1.8219  0.2648  1.0120
 3378TIP3   OH234328   0.355   3.686  19.815 -0.2820  0.4795 -0.7959
 3378TIP3    H134329   0.358   3.591  19.820 -0.6705  0.4711 -0.7205
 3378TIP3    H234330   0.428   3.709  19.757 -0.0981  0.1482 -0.7000
 3379TIP3   OH234331   2.600   6.341  17.771  0.6719 -0.2508  0.1290
 3379TIP3    H134332   2.514   6.307  17.744  0.1748  1.5337 -0.6921
 3379TIP3    H234333   2.649   6.263  17.799 -0.4784 -1.5990 -1.4063
 3380TIP3   OH234334   2.912   2.610  19.462 -0.1252 -0.1537 -0.0736
 3380TIP3    H134335   2.947   2.541  19.519 -1.3036 -1.3615 -0.7689
 3380TIP3    H234336   2.974   2.683  19.472  0.0693 -0.5701  2.2045
 3381TIP3   OH234337   4.014   2.563  19.987  0.6695 -0.7812 -0.4578
 3381TIP3    H134338   3.999   2.657  19.987 -0.2044 -0.9005  0.6780
 3381TIP3    H234339   3.951   2.528  20.050  1.8140 -1.9982  0.0651
 3382TIP3   OH234340   3.271   3.406  19.194  0.4281  0.3266  0.5723
 3382TIP3    H134341   3.223   3.437  19.271  1.8141  1.7870  0.8932
 3382TIP3    H234342   3.339   3.472  19.180  0.7547 -0.3747 -1.3880
 3383TIP3   OH234343   3.694   0.187  16.944  0.2551  0.5293  0.1183
 3383TIP3    H134344   3.769   0.213  16.890  0.5963  2.6487  1.5276
 3383TIP3    H234345   3.624   0.247  16.919 -0.4975 -0.3837 -0.0163
 3384TIP3   OH234346   6.627   3.964  18.328  0.1590 -0.0466  0.4671
 3384TIP3    H134347   6.555   3.906  18.351 -0.5028  0.0019 -1.2963
 3384TIP3    H234348   6.592   4.016  18.255  1.5147  0.9469  0.5021
 3385TIP3   OH234349   6.058   4.438  19.348  0.4717 -0.8041  0.1720
 3385TIP3    H134350   6.049   4.413  19.256 -2.3605  0.0315  0.1287
 3385TIP3    H234351   5.985   4.498  19.364  1.9544  0.5389  2.5140
 3386TIP3   OH234352   2.261   6.132  18.201 -0.4591  0.2155  0.2288
 3386TIP3    H134353   2.238   6.088  18.120  2.7024 -1.7100  0.1987
 3386TIP3    H234354   2.196   6.202  18.210 -1.3383  0.0965 -3.5502
 3387TIP3   OH234355   1.891   4.853  20.271  0.3030 -0.0333  0.2640
 3387TIP3    H134356   1.896   4.769  20.227 -0.1749 -0.0666  0.2733
 3387TIP3    H234357   1.978   4.865  20.310  1.1442  0.5836 -1.7175
 3388TIP3   OH234358   0.461   1.347  18.763  0.0123 -0.4337  0.4646
 3388TIP3    H134359   0.537   1.327  18.818  0.0782 -0.7316  0.2691
 3388TIP3    H234360   0.387   1.307  18.810  0.0603 -0.6399  0.3662
 3389TIP3   OH234361   2.338   4.923  17.132  0.3268  0.3979 -0.1434
 3389TIP3    H134362   2.343   4.907  17.226 -0.5653 -2.1116 -0.4514
 3389TIP3    H234363   2.270   4.990  17.123  0.0611  0.3014  0.9684
 3390TIP3   OH234364   6.516   5.619  20.189 -0.1737 -0.0249  0.7876
 3390TIP3    H134365   6.474   5.699  20.219  0.3159  0.3236  0.5445
 3390TIP3    H234366   6.607   5.643  20.173  0.0730 -0.7188  1.0833
 3391TIP3   OH234367   4.832   0.685  19.916 -0.5019  0.2098 -0.1945
 3391TIP3    H134368   4.789   0.767  19.893 -1.9506 -0.5254 -0.2176
 3391TIP3    H234369   4.873   0.656  19.834 -2.3914 -0.4753 -0.9453
 3392TIP3   OH234370   4.472   6.574  16.638 -0.1768  0.2263 -0.1721
 3392TIP3    H134371   4.555   6.615  16.615 -0.2014  0.0636 -0.5634
 3392TIP3    H234372   4.484   6.481  16.615  0.2618 -0.2161  1.6894
 3393TIP3   OH234373   6.423   1.195  17.990  0.3410  0.5703 -0.4036
 3393TIP3    H134374   6.439   1.174  17.898  0.0382  0.2396 -0.3800
 3393TIP3    H234375   6.395   1.287  17.988  0.9925  0.7745 -0.5690
 3394TIP3   OH234376   5.599   0.205  17.760 -0.0217 -0.0027 -0.5211
 3394TIP3    H134377   5.670   0.219  17.697  1.1847 -0.2701  0.7566
 3394TIP3    H234378   5.633   0.142  17.823 -1.0968  0.4719  0.5903
 3395TIP3   OH234379   3.288   1.337  16.592 -0.5439  0.0009 -0.8229
 3395TIP3    H134380   3.264   1.266  16.652 -0.5264  0.6768  0.0193
 3395TIP3    H234381   3.355   1.300  16.535 -0.0931 -0.4874  0.0068
 3396TIP3   OH234382   3.799   5.899  18.721 -0.0020  0.3819 -0.2407
 3396TIP3    H134383   3.812   5.830  18.655  0.1684 -0.3119  0.4999
 3396TIP3    H234384   3.876   5.893  18.777  0.0920  1.3008 -0.2600
 3397TIP3   OH234385   3.593   4.182  18.530  0.2718 -0.0455 -0.4764
 3397TIP3    H134386   3.684   4.207  18.514  0.4135 -1.2545 -1.7882
 3397TIP3    H234387   3.544   4.226  18.461 -0.0594  0.1109 -0.1428
 3398TIP3   OH234388   1.377   2.432  19.275 -0.3772 -0.1098  0.2181
 3398TIP3    H134389   1.415   2.412  19.190  0.0725 -0.7919  0.5690
 3398TIP3    H234390   1.448   2.416  19.337 -0.9684 -0.5057  0.8049
 3399TIP3   OH234391   5.458   6.468  19.502 -0.4123  0.6098  0.0344
 3399TIP3    H134392   5.364   6.485  19.495 -0.3477  0.9208 -0.0799
 3399TIP3    H234393   5.469   6.382  19.461 -0.6490  0.5667  0.0592
 3400TIP3   OH234394   5.467   0.293  18.471 -0.1154  0.1136  0.2334
 3400TIP3    H134395   5.515   0.372  18.493  2.6383 -1.1718 -0.6639
 3400TIP3    H234396   5.486   0.232  18.542 -0.5903 -0.3832 -0.0474
 3401TIP3   OH234397   2.192   5.331  17.115 -0.0694  0.3903  0.1793
 3401TIP3    H134398   2.137   5.300  17.044 -3.0117  0.0216  2.4305
 3401TIP3    H234399   2.210   5.253  17.168  0.5102  0.9433  0.8288
 3402TIP3   OH234400   1.504   5.226  18.179 -0.1202  0.2339 -0.2636
 3402TIP3    H134401   1.504   5.275  18.261 -0.6235  0.4904 -0.4155
 3402TIP3    H234402   1.594   5.233  18.147 -0.1006  0.7556 -0.1057
 3403TIP3   OH234403   3.899   2.422  18.601  0.0547  0.1508  0.3237
 3403TIP3    H134404   3.939   2.471  18.529 -2.2325  1.0326 -0.4484
 3403TIP3    H234405   3.861   2.345  18.559 -4.0569  2.1876 -0.2104
 3404TIP3   OH234406   4.941   2.501  16.733  0.1552  0.3335  0.2187
 3404TIP3    H134407   5.029   2.474  16.705 -0.6112 -3.4766  0.8535
 3404TIP3    H234408   4.883   2.467  16.665 -0.9268  1.7323  0.4054
 3405TIP3   OH234409   3.844   3.660  17.806 -0.0202  0.1543 -0.3287
 3405TIP3    H134410   3.912   3.719  17.775 -0.5034  0.3195 -1.1180
 3405TIP3    H234411   3.769   3.717  17.822  0.2252  0.0797  1.2279
 3406TIP3   OH234412   3.953   1.876  19.715 -0.1238 -0.6112  0.1974
 3406TIP3    H134413   3.878   1.921  19.754 -0.1717  1.0907 -1.7046
 3406TIP3    H234414   4.029   1.928  19.741  0.3157 -1.6716  1.1497
 3407TIP3   OH234415   2.425   4.053  18.877 -0.0421 -0.0221  0.0440
 3407TIP3    H134416   2.515   4.084  18.885  0.2823  0.1647 -2.9743
 3407TIP3    H234417   2.374   4.108  18.936  1.7144  0.2341  1.3840
 3408TIP3   OH234418   6.580   4.572  18.585  0.2219 -0.1085  0.4344
 3408TIP3    H134419   6.651   4.512  18.608 -0.3247 -0.3933  1.4292
 3408TIP3    H234420   6.554   4.611  18.669  1.5605  2.6697 -0.3295
 3409TIP3   OH234421   4.197   5.038  19.946  0.1966 -0.2767  0.4077
 3409TIP3    H134422   4.237   4.955  19.973 -0.7286 -1.4143 -1.5718
 3409TIP3    H234423   4.117   5.044  19.999  0.3586 -0.5342  0.6895
 3410TIP3   OH234424   3.817   2.680  17.931  0.4104  0.4561  0.2206
 3410TIP3    H134425   3.885   2.668  17.998  1.6050  1.1458 -0.8210
 3410TIP3    H234426   3.843   2.623  17.859 -1.3307 -0.9386  0.6179
 3411TIP3   OH234427   0.378   2.436  19.544 -0.3279 -0.2463 -0.1663
 3411TIP3    H134428   0.296   2.485  19.550 -0.7123 -0.6692 -1.4734
 3411TIP3    H234429   0.445   2.504  19.534 -0.2717  0.1829  2.5205
 3412TIP3   OH234430   1.982   1.759  16.988 -0.3989 -0.4271 -0.1086
 3412TIP3    H134431   2.018   1.765  16.900 -0.8658  3.7909 -0.2000
 3412TIP3    H234432   1.887   1.767  16.975 -0.6286 -1.4454  0.7563
 3413TIP3   OH234433   3.282   2.394  18.390 -0.1302 -0.9556  0.0679
 3413TIP3    H134434   3.257   2.455  18.320  3.1232  0.4214 -0.0665
 3413TIP3    H234435   3.199   2.354  18.417 -2.1832  1.9675 -1.2791
 3414TIP3   OH234436   5.865   6.240  18.809 -0.1356  0.5552  0.4957
 3414TIP3    H134437   5.939   6.300  18.810  0.0362  0.3696 -0.1742
 3414TIP3    H234438   5.788   6.296  18.805  0.0503  0.7638 -1.2080
 3415TIP3   OH234439   5.484   0.885  17.527  0.3980  0.0667 -0.4050
 3415TIP3    H134440   5.389   0.875  17.530  0.4731 -1.4395 -1.6620
 3415TIP3    H234441   5.514   0.855  17.613 -0.1096 -2.2974 -0.9684
 3416TIP3   OH234442   5.411   1.949  18.719 -0.4693 -0.4231  0.0190
 3416TIP3    H134443   5.488   1.932  18.774  0.1982 -0.7136 -0.9622
 3416TIP3    H234444   5.353   1.874  18.734 -0.5120 -0.2544  0.6887
 3417TIP3   OH234445   5.877   2.808  18.115 -0.6379  0.4533  0.4016
 3417TIP3    H134446   5.833   2.772  18.038 -0.5229  0.0619  0.5129
 3417TIP3    H234447   5.819   2.784  18.188  0.4380 -1.3126  0.7194
 3418TIP3   OH234448   4.871   0.853  20.339  0.1567  0.6872 -0.1489
 3418TIP3    H134449   4.899   0.875  20.428  1.1486 -0.4577 -0.1609
 3418TIP3    H234450   4.821   0.930  20.311 -0.5924  0.8832  1.5612
 3419TIP3   OH234451   1.739   5.929  17.827  0.4041 -0.3088  0.0804
 3419TIP3    H134452   1.716   6.003  17.884  2.6803 -0.4797  1.3635
 3419TIP3    H234453   1.660   5.876  17.823 -0.5546  0.9693  1.1119
 3420TIP3   OH234454   0.043   6.389  17.869  0.9280 -0.3981 -0.1247
 3420TIP3    H134455   0.123   6.397  17.818  0.4796 -0.3666 -0.8330
 3420TIP3    H234456  -0.024   6.430  17.815  1.1250  3.3909  2.1658
 3421TIP3   OH234457   1.074   1.211  18.138 -0.2909  0.3282 -0.6384
 3421TIP3    H134458   1.102   1.249  18.055  0.5241  1.4211  0.1016
 3421TIP3    H234459   1.098   1.277  18.204 -0.2693 -0.8080  0.5380
 3422TIP3   OH234460   1.948   4.693  18.885 -0.5353  0.3543 -0.4844
 3422TIP3    H134461   1.960   4.782  18.852  1.9881  0.8767  1.4871
 3422TIP3    H234462   2.007   4.639  18.832  0.2829  0.4461  0.3063
 3423TIP3   OH234463   6.167   0.203  17.239  0.0180  0.0378  0.1464
 3423TIP3    H134464   6.152   0.143  17.165 -0.9084 -1.4108  1.4343
 3423TIP3    H234465   6.099   0.180  17.302  2.9522 -1.4174  3.0628
 3424TIP3   OH234466   2.394   2.078  18.797 -0.1535 -0.2170  0.3286
 3424TIP3    H134467   2.381   2.021  18.872 -0.7531  1.3361  1.4411
 3424TIP3    H234468   2.461   2.140  18.825  0.1054 -0.0145 -0.6739
 3425TIP3   OH234469   5.144   2.746  16.500 -0.1853 -0.1779 -0.0050
 3425TIP3    H134470   5.097   2.694  16.435 -0.0761 -1.7878  1.1302
 3425TIP3    H234471   5.142   2.835  16.466 -1.4374 -0.7119 -1.4516
 3426TIP3   OH234472   3.258   3.299  19.505  0.3539  0.2405  0.0067
 3426TIP3    H134473   3.352   3.312  19.507  0.3381  0.3346  0.2399
 3426TIP3    H234474   3.222   3.388  19.508  0.2645  0.2387 -0.8391
 3427TIP3   OH234475   4.669   1.059  17.181  0.3863 -0.1562  0.5659
 3427TIP3    H134476   4.635   1.022  17.100  0.3828  0.2368  0.3850
 3427TIP3    H234477   4.726   0.992  17.217 -1.5547 -1.3817  1.5369
 3428TIP3   OH234478   0.868   5.791  17.381 -0.0238  0.3258 -0.0460
 3428TIP3    H134479   0.778   5.798  17.348 -0.8768 -3.2464  1.1576
 3428TIP3    H234480   0.859   5.765  17.472  2.1660 -1.7324 -0.3026
 3429TIP3   OH234481   0.700   0.361  17.421 -0.3446 -0.4629 -0.1807
 3429TIP3    H134482   0.713   0.327  17.510 -1.8213  1.6829  0.9572
 3429TIP3    H234483   0.614   0.328  17.395 -0.5990  0.1677 -0.1581
 3430TIP3   OH234484   6.055   1.007  17.001  0.6625  0.0710 -0.1984
 3430TIP3    H134485   5.993   0.943  16.967  0.5327  0.0914 -0.0043
 3430TIP3    H234486   6.117   0.956  17.053  1.0033  0.0100 -0.6643
 3431TIP3   OH234487   4.748   1.753  17.223  0.2433  0.0898  0.5360
 3431TIP3    H134488   4.697   1.672  17.221 -1.6781  1.2238  1.1476
 3431TIP3    H234489   4.723   1.798  17.143  0.6955  0.4261  0.5855
 3432TIP3   OH234490   2.942   3.635  17.001  0.2078 -0.2837 -0.3084
 3432TIP3    H134491   2.944   3.565  17.066 -0.4970  0.7266  0.8335
 3432TIP3    H234492   2.939   3.590  16.917  0.8257 -1.6166  0.3570
 3433TIP3   OH234493   5.799   0.715  17.745  0.1836 -0.4282  0.3584
 3433TIP3    H134494   5.740   0.783  17.778  1.4323  0.5054  0.7454
 3433TIP3    H234495   5.814   0.738  17.654 -0.2664 -0.8316  0.1796
 3434TIP3   OH234496   5.107   3.994  19.529 -0.1430 -0.2617 -0.7168
 3434TIP3    H134497   5.102   3.948  19.612  1.1241  1.1558  0.1967
 3434TIP3    H234498   5.129   4.084  19.552  2.3835 -0.2520 -2.6380
 3435TIP3   OH234499   0.257   5.966  18.660 -0.7054 -0.1054  0.2362
 3435TIP3    H134500   0.202   5.897  18.621  0.4787 -1.4446  0.8469
 3435TIP3    H234501   0.346   5.931  18.654 -0.0639  1.4165  0.5259
 3436TIP3   OH234502   3.813   6.003  19.866 -0.2519 -0.3359  0.1424
 3436TIP3    H134503   3.750   6.060  19.823 -1.8573 -0.3702  2.3067
 3436TIP3    H234504   3.785   5.914  19.842 -0.5496 -0.3317  0.4764
 3437TIP3   OH234505   4.368   4.202  18.430  0.0284  0.0084 -0.0549
 3437TIP3    H134506   4.390   4.120  18.475  0.0329  0.0075 -0.0575
 3437TIP3    H234507   4.393   4.186  18.339 -0.5899 -0.2255 -0.1878
 3438TIP3   OH234508   1.665   0.565  17.283  0.2714  0.8693  0.5517
 3438TIP3    H134509   1.755   0.537  17.266 -0.6612 -1.2915 -1.5328
 3438TIP3    H234510   1.629   0.497  17.339 -0.9621 -0.2608 -1.4674
 3439TIP3   OH234511   4.944   2.438  18.690  0.0099  0.3946  0.6957
 3439TIP3    H134512   5.035   2.410  18.704  0.0326 -0.2210 -0.5123
 3439TIP3    H234513   4.891   2.365  18.721 -0.0949  0.8437  1.6031
 3440TIP3   OH234514   1.417   5.070  16.970  0.0767 -0.2025  0.2937
 3440TIP3    H134515   1.413   5.030  16.883  1.5662  0.8971 -0.3245
 3440TIP3    H234516   1.497   5.035  17.009 -0.3281 -0.3148  1.0575
 3441TIP3   OH234517   2.652   1.362  19.825  0.7524 -0.0006 -0.3297
 3441TIP3    H134518   2.615   1.290  19.877  0.8594  0.5808  0.5496
 3441TIP3    H234519   2.725   1.322  19.778  0.3723 -0.6350 -0.3985
 3442TIP3   OH234520   4.432   0.721  18.371 -0.0383  0.1953  0.1182
 3442TIP3    H134521   4.400   0.800  18.328 -3.3471  0.3602  2.4953
 3442TIP3    H234522   4.448   0.748  18.461  2.5031 -1.0845  0.1416
 3443TIP3   OH234523   5.654   4.078  19.395  0.8971 -0.0871 -0.2370
 3443TIP3    H134524   5.613   4.040  19.473  2.3367  0.0258  0.6095
 3443TIP3    H234525   5.661   4.172  19.414  0.7244  0.0327 -0.7488
 3444TIP3   OH234526   5.892   0.131  20.344  0.8604  0.4882  0.2114
 3444TIP3    H134527   5.921   0.206  20.397 -1.3655  1.0460  0.7195
 3444TIP3    H234528   5.846   0.169  20.270 -0.4654 -0.3682  0.5677
 3445TIP3   OH234529   5.293   1.078  19.367  0.1972  0.1187  0.4467
 3445TIP3    H134530   5.324   1.137  19.298  0.6288 -1.4475 -0.7673
 3445TIP3    H234531   5.198   1.076  19.355  0.3340 -0.7432 -0.6511
 3446TIP3   OH234532   4.697   0.487  16.634 -0.6899 -0.4532  0.4167
 3446TIP3    H134533   4.651   0.513  16.714 -1.0555 -1.1741  0.4429
 3446TIP3    H234534   4.632   0.440  16.582 -1.0288  1.6561 -1.2021
 3447TIP3   OH234535   0.419   4.875  16.932 -0.0130  0.1792 -0.2023
 3447TIP3    H134536   0.339   4.835  16.966  0.4835 -0.6721 -0.0193
 3447TIP3    H234537   0.465   4.803  16.889  0.2051  0.8689 -1.1433
 3448TIP3   OH234538   4.720   4.652  18.359  0.0029  0.6279  0.2764
 3448TIP3    H134539   4.690   4.603  18.283  1.4321  1.3313 -0.7703
 3448TIP3    H234540   4.685   4.603  18.434 -0.1422 -0.9452 -0.7734
 3449TIP3   OH234541   5.987   0.363  20.499 -0.4708  0.1498 -0.4827
 3449TIP3    H134542   6.060   0.424  20.508 -0.2358 -0.1275 -0.4961
 3449TIP3    H234543   5.972   0.331  20.587 -0.0241 -0.4278 -0.6127
 3450TIP3   OH234544   3.057   1.541  19.732 -0.2449 -0.1122 -0.3307
 3450TIP3    H134545   3.118   1.481  19.774 -0.2606  0.1994  0.1440
 3450TIP3    H234546   2.978   1.489  19.719 -0.0995 -0.3302 -0.3535
 3451TIP3   OH234547   3.624   2.919  17.610 -0.1633 -0.2581 -0.1774
 3451TIP3    H134548   3.664   2.885  17.530 -0.0347 -0.8540  0.1299
 3451TIP3    H234549   3.533   2.891  17.606 -0.2465  0.0299 -0.2911
 3452TIP3   OH234550   1.826   2.750  20.062 -0.1992 -0.4092 -0.0239
 3452TIP3    H134551   1.883   2.821  20.091 -0.5600 -0.5417  1.0498
 3452TIP3    H234552   1.850   2.736  19.970  0.9985  0.0084  0.2060
 3453TIP3   OH234553   1.632   6.311  19.195 -0.0090 -0.6134 -0.2186
 3453TIP3    H134554   1.717   6.354  19.191  1.5100 -2.9981  2.4994
 3453TIP3    H234555   1.586   6.357  19.265 -0.0722 -0.7392 -0.1778
 3454TIP3   OH234556   4.749   0.777  16.514 -0.1533  0.8684  0.0343
 3454TIP3    H134557   4.757   0.723  16.593  0.0066  1.3801  0.3679
 3454TIP3    H234558   4.824   0.753  16.461 -0.6801 -0.0540 -0.3219
 3455TIP3   OH234559   3.400   1.862  17.870  0.2703  0.0724  0.2340
 3455TIP3    H134560   3.422   1.771  17.893 -1.8625 -0.3981  0.6740
 3455TIP3    H234561   3.409   1.910  17.952  1.1744  0.2130  0.0546
 3456TIP3   OH234562   2.162   4.516  20.139  0.0076 -0.5054 -0.2544
 3456TIP3    H134563   2.228   4.448  20.154 -0.5547 -0.9040  0.4453
 3456TIP3    H234564   2.078   4.471  20.148 -0.4314  0.6687  2.3452
 3457TIP3   OH234565   0.621   3.872  19.421  0.7537 -0.5353 -0.2520
 3457TIP3    H134566   0.574   3.946  19.382  1.9537  0.1737 -0.4273
 3457TIP3    H234567   0.687   3.848  19.355  1.1971 -0.9275  0.3220
 3458TIP3   OH234568   0.628   4.645  19.530  0.1569  0.0646  0.3803
 3458TIP3    H134569   0.567   4.689  19.590 -1.5065 -2.0832  0.3910
 3458TIP3    H234570   0.714   4.660  19.568 -0.7374 -0.2238  2.6945
 3459TIP3   OH234571   5.893   4.476  18.899  0.1953 -0.3445 -0.0634
 3459TIP3    H134572   5.938   4.557  18.877  0.5045 -0.1904  1.0824
 3459TIP3    H234573   5.910   4.418  18.825  1.0765  0.1941 -0.2920
 3460TIP3   OH234574   5.860   4.961  17.885 -0.1198  0.0979  0.1766
 3460TIP3    H134575   5.908   4.879  17.873 -0.1335  0.0368  0.5280
 3460TIP3    H234576   5.769   4.934  17.898  0.3789 -0.1750  4.3718
 3461TIP3   OH234577   0.983   6.064  17.416 -0.2373  0.0459 -0.1561
 3461TIP3    H134578   0.933   5.983  17.417 -1.6812  0.8876  0.4124
 3461TIP3    H234579   0.917   6.132  17.401  1.0319  1.0541 -1.4887
 3462TIP3   OH234580   6.238   2.049  16.703 -0.1528 -0.1664  0.2338
 3462TIP3    H134581   6.283   1.973  16.667  0.9940  0.4730  0.2775
 3462TIP3    H234582   6.208   2.098  16.626  0.3338  0.0464  0.1740
 3463TIP3   OH234583   2.475   2.540  17.801  0.4427 -1.0379  0.1606
 3463TIP3    H134584   2.450   2.617  17.852  0.4401 -0.5592 -0.5450
 3463TIP3    H234585   2.555   2.567  17.756 -0.1320 -1.0796 -0.9079
 3464TIP3   OH234586   5.187   3.065  18.101  0.5479  0.2125 -0.5532
 3464TIP3    H134587   5.280   3.068  18.120  0.2695 -1.2027  1.3070
 3464TIP3    H234588   5.180   3.013  18.021  1.1998 -3.3587  1.5032
 3465TIP3   OH234589   1.123   5.399  17.271 -0.3175  0.5330  0.3530
 3465TIP3    H134590   1.036   5.364  17.289 -0.3224  0.1066 -0.4971
 3465TIP3    H234591   1.172   5.326  17.234  0.5301  0.6583  1.1710
 3466TIP3   OH234592   5.195   4.425  16.453 -0.2750  0.2922 -0.0038
 3466TIP3    H134593   5.173   4.350  16.398 -1.1043  0.4201  0.1461
 3466TIP3    H234594   5.153   4.407  16.537 -0.2414  0.7889  0.1261
 3467TIP3   OH234595   0.755   2.513  19.759  0.4638  0.0160  0.6603
 3467TIP3    H134596   0.836   2.554  19.728  0.9805 -1.3037  0.1399
 3467TIP3    H234597   0.761   2.422  19.727 -1.2415 -0.1086  0.5877
 3468TIP3   OH234598   4.413   0.751  19.045 -0.3778 -0.0653 -0.4672
 3468TIP3    H134599   4.469   0.702  18.984  0.4500 -0.7609  0.8085
 3468TIP3    H234600   4.475   0.801  19.099 -1.1200  0.8999 -0.4808
 3469TIP3   OH234601   6.237   4.962  16.615 -0.4166 -0.3951  0.1333
 3469TIP3    H134602   6.279   5.047  16.609 -1.7423  0.3037  0.3297
 3469TIP3    H234603   6.276   4.910  16.545  0.0801  0.5159 -0.2768
 3470TIP3   OH234604   5.926   4.231  17.539 -0.2049  0.2779 -0.5898
 3470TIP3    H134605   6.006   4.266  17.579  0.3134  0.3006 -1.6157
 3470TIP3    H234606   5.895   4.166  17.602 -0.3598  1.4980  0.6467
 3471TIP3   OH234607   3.962   0.075  19.381  0.0727 -0.2135 -0.2377
 3471TIP3    H134608   3.962   0.167  19.410  0.9630 -0.5077  0.7438
 3471TIP3    H234609   3.920   0.077  19.295 -0.4567  1.0331  0.0305
 3472TIP3   OH234610   2.392   4.821  17.378 -0.1676  0.4789 -0.2229
 3472TIP3    H134611   2.349   4.748  17.334 -0.3945  0.3318  0.2400
 3472TIP3    H234612   2.484   4.814  17.353  0.2651 -1.3294  1.6086
 3473TIP3   OH234613   5.245   5.931  19.260 -0.0527 -0.2144  0.1253
 3473TIP3    H134614   5.269   5.963  19.346  2.0634  0.0653 -0.5144
 3473TIP3    H234615   5.228   6.010  19.209  0.4987 -0.2811 -0.1770
 3474TIP3   OH234616   5.441   6.143  18.923  0.1930 -0.4479 -0.1347
 3474TIP3    H134617   5.507   6.132  18.990 -1.4028 -0.0210  1.5983
 3474TIP3    H234618   5.451   6.233  18.892  0.3108 -0.3331  0.2452
 3475TIP3   OH234619   3.465   3.981  19.816  0.0001  0.1436 -0.1800
 3475TIP3    H134620   3.399   3.990  19.747 -0.5654 -0.4884  0.2631
 3475TIP3    H234621   3.447   4.053  19.876 -1.7389 -1.2438  1.0921
 3476TIP3   OH234622   2.937   6.410  19.380 -0.1263  0.0441 -0.0762
 3476TIP3    H134623   2.906   6.447  19.297  0.9141  1.9789  0.3408
 3476TIP3    H234624   3.032   6.424  19.378  0.0474 -0.8447  0.9893
 3477TIP3   OH234625   3.458   1.137  19.291 -0.1783  0.0067  0.3979
 3477TIP3    H134626   3.431   1.097  19.373 -0.8064 -1.5139 -0.5147
 3477TIP3    H234627   3.464   1.231  19.310 -3.2512  0.0812  1.4268
 3478TIP3   OH234628   4.690   5.635  18.400 -0.9748 -0.1807 -0.6432
 3478TIP3    H134629   4.783   5.658  18.409 -0.9451 -0.3666 -0.4618
 3478TIP3    H234630   4.644   5.712  18.435 -0.9065  0.1917 -1.3534
 3479TIP3   OH234631   2.699   4.985  19.671 -0.1278  0.5393  0.3418
 3479TIP3    H134632   2.747   4.930  19.733 -1.6641  0.8109  1.8796
 3479TIP3    H234633   2.661   4.923  19.609  0.0366  0.0724  0.6980
 3480TIP3   OH234634   4.141   2.841  17.948 -0.1160  0.1632  0.1082
 3480TIP3    H134635   4.111   2.855  17.859  0.5525  2.4737  0.1914
 3480TIP3    H234636   4.128   2.747  17.963  1.1415 -0.6149 -2.9092
 3481TIP3   OH234637   4.561   3.275  17.434 -0.2365 -0.0107  0.0728
 3481TIP3    H134638   4.592   3.305  17.349 -0.9177 -2.2141 -1.0076
 3481TIP3    H234639   4.485   3.331  17.452 -0.9999 -0.4906 -1.4940
 3482TIP3   OH234640   1.552   0.210  17.717 -0.1384  0.4155  0.4124
 3482TIP3    H134641   1.472   0.254  17.686  0.6411  1.5055 -0.1234
 3482TIP3    H234642   1.570   0.144  17.649  0.6768  1.7338 -0.7189
 3483TIP3   OH234643   2.571   2.852  19.711 -0.5674  0.0358  0.5233
 3483TIP3    H134644   2.538   2.783  19.769  0.2051 -0.3051  0.5706
 3483TIP3    H234645   2.610   2.806  19.638  0.3426  0.3985  0.7632
 3484TIP3   OH234646   4.796   0.275  19.774 -0.0895 -0.4562  0.2366
 3484TIP3    H134647   4.730   0.234  19.718  0.0664  1.1105 -1.2011
 3484TIP3    H234648   4.878   0.266  19.726 -0.1279  1.8647 -0.4228
 3485TIP3   OH234649   5.525   0.740  18.279  0.4347  1.0728 -0.0830
 3485TIP3    H134650   5.566   0.820  18.311 -0.3247  0.9923  1.1776
 3485TIP3    H234651   5.443   0.734  18.328 -0.6218  0.7104 -1.8195
 3486TIP3   OH234652   4.847   2.937  19.220 -0.1757  0.6248  0.1253
 3486TIP3    H134653   4.882   2.860  19.176 -0.3500  0.6407 -0.0409
 3486TIP3    H234654   4.753   2.923  19.222 -0.1530  0.5084  0.7132
 3487TIP3   OH234655   5.386   6.447  17.951  0.5788 -0.0693 -0.2476
 3487TIP3    H134656   5.480   6.430  17.940  0.7751  0.6142  0.3101
 3487TIP3    H234657   5.380   6.497  18.033 -0.3344 -0.6100  0.0208
 3488TIP3   OH234658   1.188   0.903  18.084  0.0458  0.2728 -0.1380
 3488TIP3    H134659   1.164   0.981  18.133 -2.6714 -0.9285  0.6696
 3488TIP3    H234660   1.113   0.888  18.026  0.0402 -2.1904  0.3988
 3489TIP3   OH234661   5.708   6.517  18.805  0.4717  0.1859 -0.1818
 3489TIP3    H134662   5.771   6.542  18.872  0.3645  0.7727 -0.2912
 3489TIP3    H234663   5.753   6.534  18.722 -0.3741  2.1592 -0.2903
 3490TIP3   OH234664   1.840   6.079  18.857  0.0674 -0.5731  0.0393
 3490TIP3    H134665   1.830   5.993  18.898 -0.7087 -1.5318 -2.0078
 3490TIP3    H234666   1.935   6.092  18.850  0.2329 -0.2645  2.2237
 3491TIP3   OH234667   3.110   4.332  17.464 -0.4299 -0.6546  0.6138
 3491TIP3    H134668   3.159   4.267  17.515 -0.3077  0.5900  2.1790
 3491TIP3    H234669   3.167   4.355  17.392  1.4062  0.8144  2.4259
 3492TIP3   OH234670   1.592   6.636  17.286  0.2792  0.0768 -0.1414
 3492TIP3    H134671   1.613   6.575  17.216 -0.5215  0.7286 -0.9833
 3492TIP3    H234672   1.529   6.589  17.341  1.6767 -0.8121  0.7540
 3493TIP3   OH234673   0.578   3.725  19.656  0.9384 -0.1792  0.5280
 3493TIP3    H134674   0.665   3.691  19.676  2.0905  2.8354  1.1492
 3493TIP3    H234675   0.591   3.784  19.582 -0.3514  1.1097  1.2555
 3494TIP3   OH234676   1.695   5.551  17.871 -0.1316 -0.1947 -0.5794
 3494TIP3    H134677   1.748   5.610  17.925  1.9550  0.8196 -3.4770
 3494TIP3    H234678   1.688   5.471  17.923  1.0455  0.9555  1.5005
 3495TIP3   OH234679   3.842   6.388  17.883  0.1617  0.3267 -0.2883
 3495TIP3    H134680   3.848   6.379  17.788  0.6220  0.3234 -0.2619
 3495TIP3    H234681   3.932   6.407  17.911 -0.0648  0.8443  0.0917
 3496TIP3   OH234682   4.640   5.072  19.780  0.3434 -0.0615  0.4177
 3496TIP3    H134683   4.606   5.135  19.844 -0.1072  0.4730 -0.3225
 3496TIP3    H234684   4.608   4.987  19.810  0.1493  0.1804  0.9071
 3497TIP3   OH234685   3.881   6.502  19.007  0.3629  0.7045 -0.0108
 3497TIP3    H134686   3.838   6.526  18.925 -1.0817  1.8307  1.0206
 3497TIP3    H234687   3.873   6.580  19.062 -1.3034 -0.9227  2.2249
 3498TIP3   OH234688   1.782   3.369  19.348  0.6379 -0.3151 -0.1143
 3498TIP3    H134689   1.691   3.351  19.324  0.9120 -0.2651 -1.2386
 3498TIP3    H234690   1.804   3.449  19.301  1.2353 -0.2736  0.2277
 3499TIP3   OH234691   2.913   3.439  17.459  0.3434  0.2992 -0.2138
 3499TIP3    H134692   2.827   3.479  17.471 -0.5066 -2.1795  4.1049
 3499TIP3    H234693   2.894   3.354  17.417  0.7291 -0.0276  0.2678
 3500TIP3   OH234694   0.301   5.741  17.145 -0.0692  0.1844 -0.2136
 3500TIP3    H134695   0.329   5.769  17.058  0.2041 -0.2965 -0.2843
 3500TIP3    H234696   0.260   5.656  17.131  1.4389 -0.6699  0.3257
 3501TIP3   OH234697   3.333   3.970  19.144  0.8435 -0.2121 -0.4889
 3501TIP3    H134698   3.333   3.930  19.057  1.8677  1.3218 -1.2506
 3501TIP3    H234699   3.345   4.063  19.127 -3.4832  0.8221  1.0890
 3502TIP3   OH234700   4.872   6.033  18.535 -0.5985 -0.2660 -0.2943
 3502TIP3    H134701   4.918   6.116  18.539 -0.9274  0.0773 -2.3562
 3502TIP3    H234702   4.917   5.984  18.466  0.2799 -2.2992  1.5795
 3503TIP3   OH234703   5.670   1.979  20.118 -0.0268  0.1314  0.4192
 3503TIP3    H134704   5.579   1.956  20.135  0.2894 -0.2992  1.6036
 3503TIP3    H234705   5.709   1.992  20.204  1.2117 -0.3851 -0.0302
 3504TIP3   OH234706   0.048   3.269  19.551 -0.4305 -0.5014  0.4067
 3504TIP3    H134707   0.006   3.288  19.467 -1.0254 -0.4571  0.7095
 3504TIP3    H234708   0.035   3.175  19.563 -0.1043 -0.5591  0.3227
 3505TIP3   OH234709   1.122   3.303  19.512 -0.0224  0.2231 -0.1412
 3505TIP3    H134710   1.166   3.381  19.476 -1.5616  0.7243 -1.0207
 3505TIP3    H234711   1.033   3.308  19.478  0.0071 -2.2947 -0.7906
 3506TIP3   OH234712   5.744   5.528  19.997  0.2954  0.5580 -0.1551
 3506TIP3    H134713   5.764   5.436  19.977 -1.0622 -0.0176  0.9414
 3506TIP3    H234714   5.815   5.556  20.056 -0.3925 -0.4923  1.2437
 3507TIP3   OH234715   2.045   4.181  19.560 -0.7172  0.0977  0.3127
 3507TIP3    H134716   2.024   4.141  19.645  1.3856  0.2840  0.9999
 3507TIP3    H234717   2.035   4.275  19.575  1.7236  0.3071  1.0982
 3508TIP3   OH234718   2.252   1.624  19.650  0.7087 -0.0181  0.0835
 3508TIP3    H134719   2.156   1.623  19.648  0.6969 -2.0798 -1.0802
 3508TIP3    H234720   2.276   1.541  19.691  2.0320  1.1013  1.7104
 3509TIP3   OH234721   2.537   6.362  18.838 -0.0615 -0.4027 -0.2717
 3509TIP3    H134722   2.475   6.362  18.911 -1.1632  0.3720 -1.1769
 3509TIP3    H234723   2.483   6.380  18.761  1.2631  0.0198 -1.1263
 3510TIP3   OH234724   5.446   0.405  16.627 -0.2088 -0.4054  0.9571
 3510TIP3    H134725   5.393   0.385  16.549 -1.9894  0.3621  1.9130
 3510TIP3    H234726   5.436   0.329  16.683  1.2199 -1.0338  0.4167
 3511TIP3   OH234727   4.988   2.920  19.660 -0.0892 -0.3359  0.4163
 3511TIP3    H134728   4.997   2.901  19.567  1.0578 -2.0240  0.8359
 3511TIP3    H234729   5.017   3.011  19.669  1.7774 -0.7898 -0.5930
 3512TIP3   OH234730   5.410   4.449  18.928  0.0933 -0.0577 -0.2098
 3512TIP3    H134731   5.353   4.444  19.005  1.6509  0.6219  1.0374
 3512TIP3    H234732   5.488   4.401  18.953  1.2379  1.4128 -0.8048
 3513TIP3   OH234733   4.760   2.345  18.976  0.0368  0.0798 -0.1868
 3513TIP3    H134734   4.686   2.305  19.021  0.8352 -1.0680  0.1278
 3513TIP3    H234735   4.721   2.381  18.896 -0.6720 -1.6680 -0.6856
 3514TIP3   OH234736   0.471   4.831  19.680  0.7421 -0.5084  0.4726
 3514TIP3    H134737   0.551   4.833  19.733  0.2646 -1.2176  1.2404
 3514TIP3    H234738   0.468   4.917  19.638 -0.3757  1.2346  3.8142
 3515TIP3   OH234739   3.939   4.413  19.133 -0.5124  0.1068 -0.1781
 3515TIP3    H134740   3.861   4.363  19.110 -0.5402  0.3907 -0.7216
 3515TIP3    H234741   3.933   4.493  19.080  0.5845 -0.2626 -0.8926
 3516TIP3   OH234742   1.166   6.321  17.497 -0.1299 -0.1849  0.1587
 3516TIP3    H134743   1.111   6.252  17.459 -0.4971 -0.9603  2.0172
 3516TIP3    H234744   1.250   6.277  17.513 -0.5886 -0.4491  2.0195
 3517TIP3   OH234745   0.934   0.124  17.483 -0.1074  1.1186 -0.3581
 3517TIP3    H134746   0.899   0.036  17.467  0.2818  0.6974  0.9753
 3517TIP3    H234747   1.028   0.111  17.490  0.0755  1.8357 -1.2427
 3518TIP3   OH234748   2.634   5.672  19.090 -0.2122 -0.1654  0.2286
 3518TIP3    H134749   2.567   5.606  19.075 -0.9028  0.9891 -2.4737
 3518TIP3    H234750   2.711   5.624  19.121 -1.3005 -1.9178  0.2876
 3519TIP3   OH234751   0.100   6.454  19.976  0.1036 -0.1483 -0.0129
 3519TIP3    H134752   0.010   6.447  19.947  0.0469 -1.0099  0.3320
 3519TIP3    H234753   0.133   6.534  19.935 -1.3579  1.2012  1.3373
 3520TIP3   OH234754   4.916   1.922  17.366  0.0265 -0.1091 -0.2234
 3520TIP3    H134755   4.869   1.859  17.312 -1.0863 -0.4470  1.0775
 3520TIP3    H234756   4.864   1.928  17.447  2.1524 -0.4134  1.2402
 3521TIP3   OH234757   0.241   1.080  20.056 -0.1589 -0.3757 -0.1990
 3521TIP3    H134758   0.149   1.052  20.054  0.1067 -1.2582 -0.2858
 3521TIP3    H234759   0.241   1.153  20.118 -0.7665 -0.9845  0.5573
 3522TIP3   OH234760   2.870   4.808  19.801  0.0887 -0.2457 -0.0869
 3522TIP3    H134761   2.923   4.816  19.722 -1.0664  0.1551 -0.8272
 3522TIP3    H234762   2.897   4.883  19.855 -0.9996  1.0086 -1.2382
 3523TIP3   OH234763   6.085   3.996  17.729 -0.4937  0.0851 -0.0773
 3523TIP3    H134764   6.161   4.050  17.749 -1.1268  1.2577 -0.7138
 3523TIP3    H234765   6.053   3.967  17.815  0.8794 -0.7676  0.1782
 3524TIP3   OH234766   3.842   3.519  17.033 -0.2702  0.0932  0.2321
 3524TIP3    H134767   3.814   3.600  17.074  0.6355  0.3848  0.3132
 3524TIP3    H234768   3.832   3.452  17.100 -1.1982  0.1006  0.1048
 3525TIP3   OH234769   4.268   3.918  19.395 -0.3403  0.0464 -0.5642
 3525TIP3    H134770   4.275   3.850  19.328 -1.8043 -1.3130  0.5781
 3525TIP3    H234771   4.340   3.900  19.455 -0.2932 -0.0544 -0.6511
 3526TIP3   OH234772   5.357   4.721  18.985 -0.3903 -0.3524  0.1367
 3526TIP3    H134773   5.384   4.654  18.922 -0.5586 -0.4551  0.1738
 3526TIP3    H234774   5.428   4.724  19.048  0.3706  0.6166 -0.7212
 3527TIP3   OH234775   6.164   0.734  19.260  0.3594 -0.4366 -0.0701
 3527TIP3    H134776   6.115   0.736  19.343  1.4943 -2.2149  0.7087
 3527TIP3    H234777   6.143   0.818  19.218 -2.2316 -0.5394  0.8302
 3528TIP3   OH234778   5.619   5.200  17.561 -0.2029 -0.2478 -0.4260
 3528TIP3    H134779   5.550   5.218  17.496  0.8524  3.4158 -0.7633
 3528TIP3    H234780   5.576   5.213  17.646 -0.2953  0.7395 -0.6065
 3529TIP3   OH234781   3.383   2.867  18.189 -0.1478 -0.7118  0.1927
 3529TIP3    H134782   3.460   2.921  18.173 -2.1564  1.9854 -1.2332
 3529TIP3    H234783   3.359   2.885  18.280  0.9900 -1.8037  0.7417
 3530TIP3   OH234784   0.718   1.338  17.868 -0.1766 -0.1686  0.0001
 3530TIP3    H134785   0.644   1.299  17.823  0.3911 -0.4163 -0.7376
 3530TIP3    H234786   0.713   1.432  17.847  2.2742 -0.7063 -3.9862
 3531TIP3   OH234787   2.521   3.691  17.781 -0.0264  0.2805 -0.4868
 3531TIP3    H134788   2.436   3.646  17.775 -0.2686  0.7119 -0.3278
 3531TIP3    H234789   2.517   3.757  17.712 -0.5232  1.4534  0.6309
 3532TIP3   OH234790   2.948   5.214  17.256  0.2436  0.2747  0.8066
 3532TIP3    H134791   2.910   5.139  17.303 -1.9767 -0.1302 -1.4187
 3532TIP3    H234792   3.040   5.190  17.244 -0.0925 -1.4898  1.3685
 3533TIP3   OH234793   2.130   6.093  18.745 -0.0221 -0.0443  0.7778
 3533TIP3    H134794   2.169   6.011  18.717 -1.3855 -0.3919 -0.2578
 3533TIP3    H234795   2.108   6.138  18.663  1.5474  1.8081  1.3056
 3534TIP3   OH234796   5.137   1.320  17.725 -0.1265 -0.2147 -0.2827
 3534TIP3    H134797   5.049   1.283  17.734 -0.6801  1.2131  0.4366
 3534TIP3    H234798   5.173   1.278  17.647 -0.8857 -1.8920  0.2251
 3535TIP3   OH234799   2.589   2.590  18.106 -0.1110  0.3806 -0.0810
 3535TIP3    H134800   2.505   2.545  18.111 -0.6220  1.3196  0.1248
 3535TIP3    H234801   2.648   2.537  18.159 -1.2202  1.0497  1.9413
 3536TIP3   OH234802   5.561   5.900  19.695 -0.3661  0.2139 -0.3974
 3536TIP3    H134803   5.559   5.976  19.637  0.1826  0.4100 -0.1621
 3536TIP3    H234804   5.484   5.849  19.670 -1.6523  1.6266  0.5191
 3537TIP3   OH234805   0.128   6.359  18.133 -0.3002  0.0602  0.1222
 3537TIP3    H134806   0.104   6.378  18.042 -0.0420 -0.4862 -0.0664
 3537TIP3    H234807   0.175   6.276  18.128  0.2819  0.3483  0.6794
 3538TIP3   OH234808   3.487   6.501  16.685 -0.3076  0.4490  0.6024
 3538TIP3    H134809   3.456   6.411  16.679 -2.4036  1.1547  0.1939
 3538TIP3    H234810   3.524   6.520  16.599 -2.1675  0.7509 -0.1633
 3539TIP3   OH234811   3.567   3.919  18.388 -0.2231 -0.0556  0.4061
 3539TIP3    H134812   3.574   3.965  18.472  2.4107  0.9398 -0.2501
 3539TIP3    H234813   3.539   3.987  18.326  1.0129  0.0578 -0.0660
 3540TIP3   OH234814   4.239   2.568  19.010 -0.1121 -0.0051  0.0185
 3540TIP3    H134815   4.179   2.529  19.074 -1.8736  2.8440  0.2877
 3540TIP3    H234816   4.193   2.560  18.927 -0.6233  1.6224  0.1206
 3541TIP3   OH234817   3.007   3.152  18.490 -0.0917 -0.1568  0.1740
 3541TIP3    H134818   3.049   3.144  18.576  1.3370  0.1633 -0.4547
 3541TIP3    H234819   3.072   3.118  18.429 -0.5733  0.8070 -0.9048
 3542TIP3   OH234820   4.692   3.325  18.438 -0.6537 -0.0258 -0.0260
 3542TIP3    H134821   4.710   3.311  18.531 -0.7742 -1.4490 -0.1885
 3542TIP3    H234822   4.615   3.270  18.420 -0.4473 -0.0046 -1.0297
 3543TIP3   OH234823   1.079   0.419  19.421  0.2855  0.6089 -0.4487
 3543TIP3    H134824   0.988   0.424  19.393  0.0479  0.1724  0.2199
 3543TIP3    H234825   1.100   0.507  19.452 -0.1720  0.5038  0.1759
 3544TIP3   OH234826   0.205   0.591  16.292 -0.3380 -0.0613 -0.1381
 3544TIP3    H134827   0.140   0.530  16.257 -1.7007  0.5572  1.1989
 3544TIP3    H234828   0.202   0.577  16.387  1.2454  0.2281 -0.0236
 3545TIP3   OH234829   1.998   0.413  18.708 -0.0907  0.2235  0.2403
 3545TIP3    H134830   1.942   0.415  18.630 -0.0502  0.6683  0.2204
 3545TIP3    H234831   2.072   0.469  18.686  0.0647  0.1182  0.4907
 3546TIP3   OH234832   5.579   2.040  19.533  0.3989  0.0195 -0.1076
 3546TIP3    H134833   5.642   2.057  19.603  1.3502 -1.5149 -0.5263
 3546TIP3    H234834   5.499   2.012  19.579  0.7565 -0.1973  0.3949
 3547TIP3   OH234835   0.194   3.247  18.033  0.4564 -0.1366 -0.0688
 3547TIP3    H134836   0.282   3.282  18.043  0.5141 -0.2318 -0.2373
 3547TIP3    H234837   0.137   3.324  18.031  0.4830 -0.0979  0.5710
 3548TIP3   OH234838   3.722   4.243  17.644  0.3756 -0.4244 -0.0743
 3548TIP3    H134839   3.650   4.188  17.615 -0.3990  0.4752  0.1069
 3548TIP3    H234840   3.734   4.220  17.736 -0.9995  0.7910  0.4464
 3549TIP3   OH234841   3.722   2.420  18.104  0.0773  0.6137 -0.1011
 3549TIP3    H134842   3.648   2.479  18.122 -1.0171 -0.7281 -0.0751
 3549TIP3    H234843   3.721   2.411  18.009 -1.2664 -1.1784  0.0307
 3550TIP3   OH234844   0.407   0.170  18.333 -0.4271  0.7749  0.3720
 3550TIP3    H134845   0.455   0.237  18.382  0.1700  0.2669  0.4897
 3550TIP3    H234846   0.322   0.165  18.377 -0.1850  0.8972  0.8601
 3551TIP3   OH234847   1.854   4.306  16.528 -0.0773 -0.2504 -0.1630
 3551TIP3    H134848   1.918   4.251  16.573 -0.5528 -0.0038  0.8379
 3551TIP3    H234849   1.824   4.253  16.454  1.9528 -0.0185 -1.2496
 3552TIP3   OH234850   5.280   6.504  18.211 -0.0389 -0.4172 -0.3005
 3552TIP3    H134851   5.185   6.508  18.220 -0.2853  0.6591 -2.6624
 3552TIP3    H234852   5.313   6.578  18.262 -0.6071  0.1819 -0.7975
 3553TIP3   OH234853   0.639   2.091  19.220  0.1998 -0.5435 -0.1058
 3553TIP3    H134854   0.657   2.172  19.173  1.5515 -0.0714  1.1386
 3553TIP3    H234855   0.563   2.054  19.177  1.6490 -0.4081 -2.9880
 3554TIP3   OH234856   0.823   3.233  18.290  0.1971  0.7437  0.3555
 3554TIP3    H134857   0.874   3.178  18.230 -0.0233 -1.2520  1.8816
 3554TIP3    H234858   0.854   3.208  18.377 -0.8783  2.1029  1.1700
 3555TIP3   OH234859   6.300   1.636  17.624 -0.2801 -0.2211 -0.3565
 3555TIP3    H134860   6.254   1.567  17.671  1.1366 -0.1716  1.1833
 3555TIP3    H234861   6.259   1.717  17.656  0.1203 -0.2258  0.1824
 3556TIP3   OH234862   2.791   5.464  18.217 -0.3885 -0.7325  0.3273
 3556TIP3    H134863   2.830   5.396  18.273  0.5422  0.1888  0.8292
 3556TIP3    H234864   2.818   5.440  18.128  1.7385  0.1096  0.7024
 3557TIP3   OH234865   4.131   2.024  18.643 -0.2059 -0.0641  0.0774
 3557TIP3    H134866   4.194   2.075  18.695 -0.7922  1.0911 -0.2984
 3557TIP3    H234867   4.176   2.009  18.560 -0.9030  2.0284 -0.7443
 3558TIP3   OH234868   1.313   3.722  20.132 -0.7230 -0.6931  0.1924
 3558TIP3    H134869   1.240   3.743  20.074 -0.9814 -1.9156  0.0664
 3558TIP3    H234870   1.298   3.776  20.210 -1.9361 -1.1652  0.3053
 3559TIP3   OH234871   1.605   3.192  16.566 -0.1288  0.8007 -0.5023
 3559TIP3    H134872   1.612   3.282  16.599  2.3563 -0.3266  2.5714
 3559TIP3    H234873   1.525   3.158  16.607 -0.9821  1.4632 -1.5372
 3560TIP3   OH234874   2.980   5.001  19.612 -0.1604 -0.0383  0.4404
 3560TIP3    H134875   2.888   5.022  19.593  0.0932  1.9904  1.1591
 3560TIP3    H234876   2.992   5.029  19.703  1.7130  1.8902 -0.3310
 3561TIP3   OH234877   2.417   6.094  19.200 -0.3404 -0.4149 -0.1624
 3561TIP3    H134878   2.358   6.116  19.128 -1.2391 -0.3182  0.5874
 3561TIP3    H234879   2.487   6.044  19.159  0.0551  1.0714 -1.3931
 3562TIP3   OH234880   1.888   5.248  16.320  0.1908  0.1879  0.1597
 3562TIP3    H134881   1.904   5.154  16.326  0.1876  0.2071  0.4731
 3562TIP3    H234882   1.975   5.287  16.312  0.1238 -0.0128 -2.6491
 3563TIP3   OH234883   0.491   3.900  18.786 -0.0084  0.0829 -0.0342
 3563TIP3    H134884   0.411   3.872  18.741  0.4340 -0.1918 -0.6714
 3563TIP3    H234885   0.469   3.897  18.879 -0.1613 -1.8893 -0.0850
 3564TIP3   OH234886   5.202   5.758  20.028 -0.0234 -0.0173  0.1784
 3564TIP3    H134887   5.277   5.817  20.038 -0.4179  0.2038  2.6961
 3564TIP3    H234888   5.223   5.684  20.086 -3.2457  1.8134  4.2008
 3565TIP3   OH234889   5.682   0.467  16.773  0.5763  0.4373  0.1963
 3565TIP3    H134890   5.674   0.559  16.800  0.7123  0.6571 -0.4838
 3565TIP3    H234891   5.603   0.451  16.721  1.5076  0.7988 -1.4135
 3566TIP3   OH234892   4.387   3.881  18.255 -0.1060 -0.0393 -0.4695
 3566TIP3    H134893   4.465   3.828  18.242 -0.3284 -0.4600 -0.1347
 3566TIP3    H234894   4.414   3.970  18.234  1.0720  0.1995  1.7299
 3567TIP3   OH234895   1.360   3.226  19.415  0.3605 -0.2549 -0.1627
 3567TIP3    H134896   1.292   3.186  19.469 -0.4090  1.0346 -0.1416
 3567TIP3    H234897   1.432   3.162  19.416  0.4790 -0.1924  2.5757
 3568TIP3   OH234898   3.087   0.086  19.478 -0.3172 -0.2213 -0.4777
 3568TIP3    H134899   3.109   0.153  19.542  0.9197 -0.8183 -0.2599
 3568TIP3    H234900   3.001   0.054  19.505 -1.4137  1.9268 -1.1542
 3569TIP3   OH234901   2.302   6.460  16.839 -0.5040 -0.1523 -0.0809
 3569TIP3    H134902   2.228   6.428  16.890 -0.7636  0.7536  0.1191
 3569TIP3    H234903   2.272   6.458  16.748 -1.1924  1.2745  0.0917
 3570TIP3   OH234904   3.782   2.259  19.168  0.2732  0.1333  0.8241
 3570TIP3    H134905   3.711   2.200  19.196  0.8292 -0.0690  1.8827
 3570TIP3    H234906   3.807   2.305  19.248  1.0643  0.4915  0.3800
 3571TIP3   OH234907   0.644   2.577  17.161  0.0868 -0.0634 -0.2857
 3571TIP3    H134908   0.686   2.648  17.210  0.5034  0.2384 -1.0460
 3571TIP3    H234909   0.715   2.515  17.144  0.0685  0.0665 -0.8928
 3572TIP3   OH234910   6.361   3.215  16.673 -0.5403  0.2733  0.0532
 3572TIP3    H134911   6.301   3.149  16.709  1.2910 -1.9231 -0.7064
 3572TIP3    H234912   6.376   3.187  16.582  2.1605  0.2846  0.4163
 3573TIP3   OH234913   3.954   4.221  19.583 -0.0681 -0.3504 -0.4521
 3573TIP3    H134914   3.889   4.161  19.620 -0.3336 -0.4610 -1.0870
 3573TIP3    H234915   3.978   4.181  19.499  1.3076 -0.6510  0.0595
 3574TIP3   OH234916   1.507   4.462  19.168  0.2405 -0.4462 -0.5694
 3574TIP3    H134917   1.496   4.526  19.097  1.9006  0.2651 -0.2310
 3574TIP3    H234918   1.499   4.377  19.124 -0.5881 -0.0270 -1.2752
 3575TIP3   OH234919   1.587   3.478  18.460 -0.3281 -0.1178  0.3053
 3575TIP3    H134920   1.520   3.422  18.499 -0.0087 -1.0185 -0.3951
 3575TIP3    H234921   1.655   3.483  18.526 -0.2352 -0.8077  0.2745
 3576TIP3   OH234922   0.591   1.666  17.985 -0.3735 -0.2197 -0.2357
 3576TIP3    H134923   0.543   1.617  17.919 -0.1680 -0.2216 -0.3848
 3576TIP3    H234924   0.617   1.601  18.050  0.5563 -0.4356 -0.8190
 3577TIP3   OH234925   5.320   1.336  19.674 -0.4378 -0.3976  0.1276
 3577TIP3    H134926   5.329   1.415  19.621  1.9383  0.4693  1.6421
 3577TIP3    H234927   5.279   1.366  19.755  1.4463 -0.4063  1.1491
 3578TIP3   OH234928   5.953   2.040  16.817  0.4609  0.2801 -0.1288
 3578TIP3    H134929   6.009   2.035  16.740  1.1309  0.8306  0.3092
 3578TIP3    H234930   5.971   2.127  16.853  1.6779 -0.7043  1.7932
 3579TIP3   OH234931   0.455   5.722  18.716  0.3061  0.6770  0.2437
 3579TIP3    H134932   0.509   5.649  18.686  1.5708  0.9455  1.7202
 3579TIP3    H234933   0.453   5.712  18.811 -2.7796  0.3658  0.2407
 3580TIP3   OH234934   2.685   2.615  17.668 -0.4805 -0.5701  0.0854
 3580TIP3    H134935   2.776   2.593  17.685  0.0757  0.9976 -0.6596
 3580TIP3    H234936   2.689   2.691  17.611 -2.2683 -0.9016 -0.5541
 3581TIP3   OH234937   4.929   2.899  18.737  0.5662 -0.2363 -0.2935
 3581TIP3    H134938   4.868   2.908  18.664 -0.8814  0.5726  0.9625
 3581TIP3    H234939   4.896   2.825  18.787 -0.2198  1.0100  1.1157
 3582TIP3   OH234940   6.328   5.387  17.942  0.0169  0.6674 -0.7571
 3582TIP3    H134941   6.268   5.313  17.955  0.6829 -0.0325 -1.5343
 3582TIP3    H234942   6.282   5.444  17.881 -0.1683  0.4922 -0.7836
 3583TIP3   OH234943   6.262   0.139  20.093 -0.0919  0.2391 -0.0858
 3583TIP3    H134944   6.252   0.180  20.007  0.7772  3.5511  1.2312
 3583TIP3    H234945   6.205   0.190  20.151 -2.0859 -3.0269  1.1091
 3584TIP3   OH234946   1.389   1.548  17.888  0.1041  0.1809  0.6408
 3584TIP3    H134947   1.364   1.549  17.980  0.2834 -2.2198  0.7841
 3584TIP3    H234948   1.468   1.493  17.885  0.4852  0.7623 -0.8713
 3585TIP3   OH234949   2.792   0.038  19.874 -0.8039  0.2084  0.2474
 3585TIP3    H134950   2.835  -0.046  19.860  0.3207  0.9124 -0.6611
 3585TIP3    H234951   2.708   0.030  19.828 -1.9209 -1.3097  2.3519
 3586TIP3   OH234952   6.256   1.415  20.223  0.1417 -0.0795  0.4927
 3586TIP3    H134953   6.234   1.414  20.129  0.1912 -1.9879  0.4520
 3586TIP3    H234954   6.350   1.432  20.226 -0.1383  1.6473  0.3130
 3587TIP3   OH234955   0.485   1.232  18.077 -0.3649 -0.0774 -0.7698
 3587TIP3    H134956   0.554   1.175  18.043 -0.8163  0.0168 -1.8671
 3587TIP3    H234957   0.419   1.235  18.008 -2.0024 -1.0190  0.6745
 3588TIP3   OH234958   6.538   3.617  18.008 -0.1758 -0.0879  0.4034
 3588TIP3    H134959   6.632   3.600  18.010 -0.4439 -1.6066  0.9449
 3588TIP3    H234960   6.497   3.536  18.037 -1.6877  0.4103 -0.1956
 3589TIP3   OH234961   4.067   2.320  18.376  0.1187  0.0241  0.6371
 3589TIP3    H134962   4.030   2.252  18.319  0.0758  1.2190 -0.8363
 3589TIP3    H234963   4.145   2.280  18.414  0.9140 -0.4403 -1.3302
 3590TIP3   OH234964   2.241   3.658  20.513 -0.3219 -0.1210  0.6191
 3590TIP3    H134965   2.273   3.737  20.469 -3.1740  0.2407 -1.0179
 3590TIP3    H234966   2.263   3.587  20.453  1.6162 -0.5851  1.7736
 3591TIP3   OH234967   5.602   4.744  17.344  0.1087  0.2209  0.1173
 3591TIP3    H134968   5.604   4.793  17.262 -0.3936  0.5629  0.3048
 3591TIP3    H234969   5.637   4.658  17.322 -0.6737  0.0822 -0.6038
 3592TIP3   OH234970   3.600   6.452  19.622 -0.1926 -0.1606 -0.2084
 3592TIP3    H134971   3.553   6.533  19.604 -0.0540 -0.4769 -2.2583
 3592TIP3    H234972   3.687   6.465  19.583  0.6624 -0.4420  1.5128
 3593TIP3   OH234973   5.837   6.578  19.690 -0.6079 -0.7508  0.2610
 3593TIP3    H134974   5.811   6.490  19.720 -2.0679 -0.3430  0.3045
 3593TIP3    H234975   5.755   6.616  19.657  0.1461  0.3487 -0.3776
 3594TIP3   OH234976   5.739   1.910  17.052  0.0630 -0.2524 -0.2066
 3594TIP3    H134977   5.765   1.887  16.963 -1.4481  1.0792 -1.0372
 3594TIP3    H234978   5.700   1.997  17.045  2.6392  1.2959  2.2596
 3595TIP3   OH234979   2.093   2.761  18.294  0.0304 -0.2703  0.3660
 3595TIP3    H134980   2.053   2.844  18.322 -0.2480 -0.2509 -0.0706
 3595TIP3    H234981   2.061   2.749  18.204  1.5209  0.0692 -0.2331
 3596TIP3   OH234982   1.411   0.113  16.823 -0.1070 -0.1059  0.1034
 3596TIP3    H134983   1.504   0.136  16.824 -0.2874  0.7648  2.4320
 3596TIP3    H234984   1.366   0.194  16.798 -0.3777  0.4776  2.2607
 3597TIP3   OH234985   2.402   3.488  20.325  0.0831  0.2412 -0.3039
 3597TIP3    H134986   2.481   3.518  20.279  0.0005 -1.3550 -1.5391
 3597TIP3    H234987   2.422   3.398  20.350 -1.4472 -0.2594 -0.8335
 3598TIP3   OH234988   5.806   0.013  18.328 -0.3385  0.0285 -0.2749
 3598TIP3    H134989   5.863   0.029  18.403  0.1911 -0.3818 -0.5872
 3598TIP3    H234990   5.721  -0.009  18.366 -0.2305  0.4123  0.1941
 3599TIP3   OH234991   4.727   3.594  16.403  0.1286 -0.1898 -0.7474
 3599TIP3    H134992   4.674   3.519  16.375  0.7360 -1.3654  1.0665
 3599TIP3    H234993   4.809   3.584  16.354 -0.0766 -0.2679 -1.0802
 3600TIP3   OH234994   0.789   0.943  17.753  0.4044  0.3423 -0.3950
 3600TIP3    H134995   0.714   0.884  17.740 -0.0570  0.5085  1.3561
 3600TIP3    H234996   0.802   0.984  17.667 -1.1617 -0.0992 -0.8735
 3601TIP3   OH234997   6.515   2.595  19.027 -0.5972  0.4326 -0.1895
 3601TIP3    H134998   6.590   2.653  19.014  0.9053 -1.7253 -1.9120
 3601TIP3    H234999   6.448   2.629  18.969 -0.1323  1.0686 -0.3611
 3602TIP3   OH235000   5.830   1.443  19.046  0.1616  0.0608 -0.3301
 3602TIP3    H135001   5.858   1.497  18.971 -0.4022 -0.3243 -0.8196
 3602TIP3    H235002   5.841   1.353  19.016  0.3262 -0.1025  0.2068
 3603TIP3   OH235003   5.560   6.635  19.123 -0.1839  0.2005  0.4586
 3603TIP3    H135004   5.512   6.641  19.041  0.1415  0.3503  0.2759
 3603TIP3    H235005   5.630   6.572  19.105  0.2762  0.7147  0.4261
 3604TIP3   OH235006   3.770   3.688  18.425  0.0476  0.3139 -0.3696
 3604TIP3    H135007   3.758   3.613  18.367 -1.5167 -1.6898  2.3108
 3604TIP3    H235008   3.685   3.734  18.422  0.2280  0.6563 -0.2538
 3605TIP3   OH235009   5.611   0.514  17.339 -0.1005  0.1498 -0.7593
 3605TIP3    H135010   5.517   0.523  17.351 -0.0637  1.9441 -1.5828
 3605TIP3    H235011   5.622   0.496  17.245  0.4117  0.6638 -0.8037
 3606TIP3   OH235012   2.751   0.220  18.397 -0.0367 -0.5519 -0.1215
 3606TIP3    H135013   2.744   0.301  18.347  3.1444  0.3186  0.5933
 3606TIP3    H235014   2.709   0.240  18.481 -2.9216 -1.1186 -1.3106
 3607TIP3   OH235015   4.274   6.195  17.805  0.4297 -0.2515 -0.1355
 3607TIP3    H135016   4.202   6.181  17.744  0.3695 -1.0498  0.1084
 3607TIP3    H235017   4.304   6.107  17.827  0.8345  0.0476  0.5323
 3608TIP3   OH235018   5.889   3.091  18.599 -0.6828  0.1220 -0.8316
 3608TIP3    H135019   5.823   3.032  18.636  1.2259 -2.0657 -0.7086
 3608TIP3    H235020   5.949   3.034  18.552  1.6193  1.8752 -0.2251
 3609TIP3   OH235021   4.511   0.964  16.949  0.3666 -0.0526  0.2471
 3609TIP3    H135022   4.515   0.962  16.854 -1.6426  0.9101  0.0843
 3609TIP3    H235023   4.459   0.887  16.973  1.0398 -0.4085  0.6008
 3610TIP3   OH235024   6.184   0.473  19.157 -0.7050 -0.0844 -0.2807
 3610TIP3    H135025   6.213   0.497  19.069 -2.5862 -0.4468 -1.0665
 3610TIP3    H235026   6.184   0.555  19.206  1.9183 -0.1334 -0.0852
 3611TIP3   OH235027   1.857   3.115  18.140 -0.0584 -0.2008  0.2964
 3611TIP3    H135028   1.929   3.057  18.164  0.1566 -0.0612  0.0025
 3611TIP3    H235029   1.847   3.175  18.214  1.4638  1.0704 -0.4690
 3612TIP3   OH235030   5.803   3.551  18.777 -0.8567  0.1279  0.2128
 3612TIP3    H135031   5.844   3.606  18.710 -0.3710 -0.0693  0.3438
 3612TIP3    H235032   5.802   3.605  18.856  1.8725 -0.8413  1.0284
 3613TIP3   OH235033   6.492   1.008  18.628 -0.1525 -0.1707  0.0064
 3613TIP3    H135034   6.417   1.062  18.606 -2.1622 -2.1415  1.5513
 3613TIP3    H235035   6.505   0.953  18.551  0.4192  0.8703 -0.6631
 3614TIP3   OH235036   2.703   2.801  17.966  0.0015  0.5010  0.0537
 3614TIP3    H135037   2.700   2.779  17.873 -0.8554 -1.5152  0.5152
 3614TIP3    H235038   2.664   2.726  18.010  0.0082  1.5891  2.0307
 3615TIP3   OH235039   5.201   5.998  17.991  0.4450  0.9440 -0.8449
 3615TIP3    H135040   5.196   6.090  18.017 -3.1533  0.8130 -0.5401
 3615TIP3    H235041   5.217   5.951  18.073  0.3460  1.1985 -0.6754
 3616TIP3   OH235042   2.182   2.592  19.908  0.1115  0.0765 -0.3857
 3616TIP3    H135043   2.234   2.629  19.979  1.4256  0.1070 -1.3219
 3616TIP3    H235044   2.239   2.526  19.868  0.0383  1.1340 -2.3804
 3617TIP3   OH235045   1.263   5.025  18.289 -0.0457  0.5702  0.3456
 3617TIP3    H135046   1.213   5.087  18.236 -0.2266  0.9564  0.9577
 3617TIP3    H235047   1.355   5.046  18.270 -0.0906  1.4908  1.0536
 3618TIP3   OH235048   3.475   5.947  18.499 -0.2350 -0.3553 -0.6529
 3618TIP3    H135049   3.455   5.926  18.590  0.5938  0.4438 -0.2621
 3618TIP3    H235050   3.471   6.043  18.495  1.1900 -0.2852 -1.0678
 3619TIP3   OH235051   6.120   5.632  19.324 -0.3560 -0.1769  0.1502
 3619TIP3    H135052   6.063   5.706  19.305  1.4019  1.3932  0.6801
 3619TIP3    H235053   6.209   5.668  19.317  0.7855 -3.0736 -3.1749
 3620TIP3   OH235054   6.499   4.241  16.215 -0.4652 -0.3494  0.0545
 3620TIP3    H135055   6.447   4.288  16.149 -0.4966  0.4974  0.6613
 3620TIP3    H235056   6.453   4.159  16.229 -1.1052 -0.0267 -0.1328
 3621TIP3   OH235057   3.968   4.143  16.973 -0.0579 -0.1459 -0.4008
 3621TIP3    H135058   3.970   4.047  16.978  1.0531 -0.1099  0.2079
 3621TIP3    H235059   4.060   4.169  16.974 -0.3358  0.9122 -1.0941
 3622TIP3   OH235060   6.446   1.904  18.851  0.2848 -0.3165  0.5075
 3622TIP3    H135061   6.481   1.857  18.927  1.2446 -0.4246  0.0151
 3622TIP3    H235062   6.464   1.996  18.869 -2.1049 -0.0134  1.7391
 3623TIP3   OH235063   4.329   5.539  18.721 -0.3451  0.1317 -0.6620
 3623TIP3    H135064   4.344   5.540  18.816  1.2368  2.6361 -0.8533
 3623TIP3    H235065   4.384   5.467  18.689  0.4329  0.3390  0.1485
 3624TIP3   OH235066   2.839   0.439  18.694 -0.0514  0.0914 -0.1821
 3624TIP3    H135067   2.870   0.351  18.714 -3.0569 -0.7635  1.2150
 3624TIP3    H235068   2.751   0.443  18.731 -0.4436  3.3457 -1.1490
 3625TIP3   OH235069   4.310   1.324  17.723 -0.6845  0.0841 -0.7640
 3625TIP3    H135070   4.384   1.358  17.672 -0.4254  1.7118  0.5874
 3625TIP3    H235071   4.350   1.270  17.791 -0.7829  0.2733 -0.5514
 3626TIP3   OH235072   1.005   3.939  19.768  0.1524  0.2637 -0.8084
 3626TIP3    H135073   1.000   4.000  19.695 -1.2537  0.6746 -0.3899
 3626TIP3    H235074   0.916   3.932  19.801  0.3130 -1.8341 -0.6780
 3627TIP3   OH235075   2.631   2.821  17.438  0.6699 -1.0286 -0.0791
 3627TIP3    H135076   2.570   2.802  17.367  0.4684  2.5341 -1.0657
 3627TIP3    H235077   2.703   2.869  17.396  0.0017  2.2405  2.0874
 3628TIP3   OH235078   2.264   4.152  18.014 -0.1138  0.2957 -0.2650
 3628TIP3    H135079   2.313   4.234  18.023  1.6974 -0.8728  0.8946
 3628TIP3    H235080   2.226   4.137  18.101 -0.2101 -0.2474 -0.3986
 3629TIP3   OH235081   3.988   4.865  18.722  0.5113 -0.3318  0.4820
 3629TIP3    H135082   3.980   4.883  18.628 -2.0760 -0.6741  0.5587
 3629TIP3    H235083   3.946   4.940  18.764  0.4695 -0.8084  1.3031
 3630TIP3   OH235084   5.883   2.825  16.492  0.4928 -0.0813 -0.4019
 3630TIP3    H135085   5.902   2.808  16.584  0.2262 -2.2195 -0.7093
 3630TIP3    H235086   5.819   2.896  16.494  0.1388 -0.4181  1.0720
 3631TIP3   OH235087   5.392   6.167  17.446 -0.2091  0.6607  0.1032
 3631TIP3    H135088   5.364   6.247  17.402 -0.1970  1.9715  2.3435
 3631TIP3    H235089   5.487   6.165  17.433 -0.2814  0.6835 -0.4586
 3632TIP3   OH235090   4.372   3.502  17.518  0.1349  0.4467  0.8270
 3632TIP3    H135091   4.395   3.572  17.458 -1.3404  0.9151  0.7673
 3632TIP3    H235092   4.334   3.547  17.594  0.7893 -0.2018  1.5598
 3633TIP3   OH235093   6.016   6.368  19.145  0.0335  0.3077  0.3065
 3633TIP3    H135094   5.995   6.425  19.071  0.2056  0.9049  0.7074
 3633TIP3    H235095   6.098   6.325  19.120  0.7078  1.3730  0.6116
 3634TIP3   OH235096   1.831   0.493  18.918 -0.0642  0.0444 -0.4062
 3634TIP3    H135097   1.858   0.447  18.838 -1.9057 -0.8479 -0.5599
 3634TIP3    H235098   1.813   0.582  18.889  3.1469  0.8968 -0.1814
 3635TIP3   OH235099   4.608   1.555  19.145 -0.0719 -0.3382  0.7618
 3635TIP3    H135100   4.557   1.599  19.077 -0.4379  1.0096  1.8649
 3635TIP3    H235101   4.544   1.532  19.212  0.4370 -0.6430  1.1511
 3636TIP3   OH235102   1.084   0.056  17.785  0.0024  0.1278 -0.0611
 3636TIP3    H135103   1.066  -0.035  17.764 -1.6723 -0.4370  3.2145
 3636TIP3    H235104   1.151   0.053  17.853 -0.8891  1.2026  0.9239
 3637TIP3   OH235105   2.983   6.256  20.013 -0.9431 -0.0711  0.2786
 3637TIP3    H135106   3.067   6.211  20.008 -1.1074 -0.4652  0.8745
 3637TIP3    H235107   2.921   6.187  20.036 -1.1143  0.5414  1.7527
 3638TIP3   OH235108   5.637   6.116  19.873  0.2531  0.1349 -0.6338
 3638TIP3    H135109   5.595   6.057  19.810 -1.0222  1.5638 -1.1806
 3638TIP3    H235110   5.566   6.171  19.906  1.2826  0.8962  0.3942
 3639TIP3   OH235111   2.772   0.964  18.979  0.1590 -0.2166  0.2429
 3639TIP3    H135112   2.737   0.954  19.068 -1.7754  0.4621 -0.3904
 3639TIP3    H235113   2.746   1.052  18.953  0.1258 -0.6468 -1.2335
 3640TIP3   OH235114   0.915   4.232  18.231 -0.0117 -0.3756  0.0739
 3640TIP3    H135115   0.863   4.252  18.309 -0.9017  2.1463 -1.0911
 3640TIP3    H235116   0.931   4.137  18.238  0.8210 -0.1350  3.8069
 3641TIP3   OH235117   0.368   0.562  18.266 -0.8017 -0.5120  0.2013
 3641TIP3    H135118   0.423   0.629  18.306  0.2462 -0.2328 -1.6181
 3641TIP3    H235119   0.333   0.513  18.340 -0.1791  0.9254  1.5064
 3642TIP3   OH235120   5.001   2.428  19.124  0.1605 -0.0928  0.2789
 3642TIP3    H135121   4.927   2.419  19.063 -0.0479  0.8156  0.3762
 3642TIP3    H235122   5.060   2.490  19.082  0.8187 -0.7182  0.2625
 3643TIP3   OH235123   1.844   2.761  19.077  0.2986  0.3616  0.0306
 3643TIP3    H135124   1.884   2.680  19.045  0.9350  0.6501  0.0826
 3643TIP3    H235125   1.914   2.804  19.126  0.2483  1.3882 -0.7730
 3644TIP3   OH235126   1.396   3.792  18.071 -0.2263 -0.0700 -0.6550
 3644TIP3    H135127   1.375   3.873  18.026  2.4559  0.7207 -0.6093
 3644TIP3    H235128   1.468   3.753  18.021  2.3218  0.4354  2.2844
 3645TIP3   OH235129   0.656   5.145  19.510  0.2813 -0.5004  0.3161
 3645TIP3    H135130   0.607   5.137  19.592  1.4774  2.3599  1.4631
 3645TIP3    H235131   0.616   5.219  19.465  2.1256  0.5847  0.3272
 3646TIP3   OH235132   1.841   2.185  18.543  0.6474  0.0316 -0.5495
 3646TIP3    H135133   1.796   2.255  18.496  0.5460 -0.6105 -1.4306
 3646TIP3    H235134   1.877   2.228  18.621  0.1760  0.9571 -0.8268
 3647TIP3   OH235135   0.933   0.039  18.056 -0.0521 -0.1138 -0.5150
 3647TIP3    H135136   0.947   0.073  17.967  0.8248 -0.2658 -0.4383
 3647TIP3    H235137   0.906   0.116  18.106 -0.5268 -0.0206 -0.9011
 3648TIP3   OH235138   1.742   4.318  18.914 -0.0689  0.0475  0.7268
 3648TIP3    H135139   1.776   4.310  19.003 -0.6242 -0.2651  0.9201
 3648TIP3    H235140   1.724   4.411  18.903 -2.9369 -0.2279  2.0935
 3649TIP3   OH235141   5.427   1.536  19.362 -0.1130 -0.2745  0.3055
 3649TIP3    H135142   5.518   1.506  19.360  0.1348  0.4044  0.9977
 3649TIP3    H235143   5.383   1.484  19.294 -0.1118 -3.5147  2.5126
 3650TIP3   OH235144   3.955   4.851  18.429  0.3930  0.6760 -0.4892
 3650TIP3    H135145   3.892   4.923  18.434 -0.7042 -0.3382  0.7748
 3650TIP3    H235146   4.034   4.892  18.393 -0.8396  2.0552 -1.8033
 3651TIP3   OH235147   2.151   4.996  20.376  0.0562  0.1955 -0.1056
 3651TIP3    H135148   2.165   4.902  20.366  0.6923  0.2915 -0.1636
 3651TIP3    H235149   2.202   5.020  20.453  1.5568  0.8443 -1.2467
 3652TIP3   OH235150   0.963   1.294  17.706  0.1560 -0.3662 -0.2747
 3652TIP3    H135151   0.899   1.228  17.731  2.0933 -1.7614  1.2521
 3652TIP3    H235152   1.012   1.254  17.634  1.5464 -0.7903  0.8624
 3653TIP3   OH235153   1.933   5.020  17.610 -0.1033 -0.1027  0.0687
 3653TIP3    H135154   2.002   5.082  17.588 -0.9473  0.6413 -0.5310
 3653TIP3    H235155   1.853   5.060  17.578 -0.8988 -0.6900  1.2461
 3654TIP3   OH235156   1.975   0.824  17.307 -0.1388  0.1858 -0.2763
 3654TIP3    H135157   1.881   0.832  17.323 -0.4297 -1.4028 -1.0298
 3654TIP3    H235158   2.012   0.800  17.392 -0.0837  2.7182  0.5121
 3655TIP3   OH235159   4.426   4.536  18.946  0.9735  0.0232 -0.3256
 3655TIP3    H135160   4.419   4.554  19.040 -1.7247 -0.5355 -0.3178
 3655TIP3    H235161   4.345   4.572  18.910  0.6256 -2.2255 -1.9756
 3656TIP3   OH235162   3.395   0.602  18.414  0.1301  0.5010  0.2261
 3656TIP3    H135163   3.439   0.649  18.342 -0.1985  0.1796 -0.1891
 3656TIP3    H235164   3.304   0.632  18.409  0.5965  2.4336  2.1151
 3657TIP3   OH235165   1.173   5.665  17.961  0.2165 -0.7766 -0.4342
 3657TIP3    H135166   1.261   5.696  17.938  1.0008 -0.9857  1.9645
 3657TIP3    H235167   1.134   5.738  18.010 -0.0055 -1.5566  0.5846
 3658TIP3   OH235168   5.519   4.270  17.547  0.4969 -0.4608 -0.2184
 3658TIP3    H135169   5.515   4.224  17.631 -0.7224  0.2632  0.1477
 3658TIP3    H235170   5.427   4.289  17.526  0.8480  0.0701 -1.3180
 3659TIP3   OH235171   1.314   4.902  19.268  0.1185  0.1974 -0.6838
 3659TIP3    H135172   1.381   4.920  19.202  0.2972 -0.8977 -0.8139
 3659TIP3    H235173   1.362   4.897  19.351  0.1213 -0.0504 -0.7013
 3660TIP3   OH235174   1.025   4.441  18.663  0.0526  0.1717 -0.5587
 3660TIP3    H135175   0.934   4.413  18.662  0.3022 -0.7073  0.0771
 3660TIP3    H235176   1.035   4.489  18.745 -0.1909  1.5709 -1.3160
 3661TIP3   OH235177   0.515   5.069  16.186 -0.1218  0.6277 -0.2989
 3661TIP3    H135178   0.421   5.076  16.168 -0.4955  0.2013  1.2670
 3661TIP3    H235179   0.540   4.982  16.154 -0.4001  0.5201 -0.2275
 3662TIP3   OH235180   1.133   2.197  19.599 -0.4589 -0.8088 -0.1233
 3662TIP3    H135181   1.228   2.185  19.593 -0.3920 -0.8813  0.9058
 3662TIP3    H235182   1.120   2.244  19.682 -1.2467  0.0847 -0.7352
 3663TIP3   OH235183   5.895   3.325  19.836  0.5779  0.1312  0.1043
 3663TIP3    H135184   5.827   3.383  19.869  0.2087 -0.9223  1.2899
 3663TIP3    H235185   5.976   3.358  19.874  0.2070 -0.8416  1.8740
 3664TIP3   OH235186   1.023   1.381  16.412 -0.3534 -0.4363 -0.1783
 3664TIP3    H135187   1.042   1.336  16.330 -1.0770  0.2369 -0.7296
 3664TIP3    H235188   1.055   1.322  16.480 -2.3817 -2.3999 -0.8104
 3665TIP3   OH235189   3.590   1.466  18.293 -0.3320 -0.6158 -0.1329
 3665TIP3    H135190   3.518   1.523  18.265 -0.2483 -1.1192 -1.4064
 3665TIP3    H235191   3.638   1.519  18.357  0.0347  0.9626 -1.6383
 3666TIP3   OH235192   6.061   6.322  20.378 -0.1622  0.0256  0.0383
 3666TIP3    H135193   6.075   6.374  20.299 -1.1564 -0.5358 -0.5315
 3666TIP3    H235194   6.071   6.384  20.450  1.1691  0.4559 -0.4928
 3667TIP3   OH235195   1.982   3.487  19.477  0.1963 -0.4543 -0.1281
 3667TIP3    H135196   1.969   3.449  19.564 -0.2377 -0.3024 -0.1263
 3667TIP3    H235197   1.924   3.436  19.420 -0.7610  0.5000 -0.0439
 3668TIP3   OH235198   2.102   0.731  19.379  0.5738  0.3841 -0.3260
 3668TIP3    H135199   2.136   0.646  19.351 -1.0013 -0.0560 -0.9875
 3668TIP3    H235200   2.088   0.721  19.473  0.5105 -0.0496 -0.3797
 3669TIP3   OH235201   2.760   2.514  19.892 -0.1011  0.3510  0.2619
 3669TIP3    H135202   2.774   2.449  19.960  0.6744  1.5349  1.2927
 3669TIP3    H235203   2.834   2.503  19.832 -0.5456 -0.4016 -0.1549
 3670TIP3   OH235204   1.131   5.516  19.013  0.1734  0.0789 -0.9909
 3670TIP3    H135205   1.146   5.537  19.106 -0.8673  0.0708 -0.8058
 3670TIP3    H235206   1.215   5.535  18.971  0.3474  1.1342 -0.2306
 3671TIP3   OH235207   5.361   1.999  19.705 -0.0981  0.1814  0.1708
 3671TIP3    H135208   5.316   2.078  19.735 -0.5914 -0.3304  0.8356
 3671TIP3    H235209   5.303   1.962  19.638  0.0231  0.2658  0.0204
 3672TIP3   OH235210   1.090   5.340  16.280 -1.2428 -0.5585  0.2729
 3672TIP3    H135211   1.089   5.270  16.215 -3.9732 -0.3802  0.0273
 3672TIP3    H235212   1.181   5.370  16.280 -0.4524 -2.6856 -1.1110
 3673TIP3   OH235213   4.813   5.720  18.097 -0.6177 -0.1161  0.2297
 3673TIP3    H135214   4.829   5.641  18.148 -0.3211  0.6902  1.4443
 3673TIP3    H235215   4.746   5.767  18.146 -2.3121 -0.5426 -1.5600
 3674TIP3   OH235216   2.415   0.239  18.330 -0.0644 -0.2033 -0.5114
 3674TIP3    H135217   2.449   0.151  18.312  0.1646  0.1130 -1.7486
 3674TIP3    H235218   2.449   0.261  18.416  0.9060 -0.8502 -0.7097
 3675TIP3   OH235219   0.434   6.563  17.252  0.4087  0.1329 -0.3260
 3675TIP3    H135220   0.384   6.574  17.172  1.2139  2.5795 -0.5570
 3675TIP3    H235221   0.461   6.471  17.251 -2.1479 -0.6901 -1.2629
 3676TIP3   OH235222   5.822   1.051  18.131 -0.4369 -0.7861 -0.2612
 3676TIP3    H135223   5.805   1.124  18.072 -2.1816 -0.3806  0.6622
 3676TIP3    H235224   5.876   0.991  18.080  1.6241  1.3936 -0.8209
 3677TIP3   OH235225   4.424   6.317  19.205 -0.1969 -0.3279  0.0216
 3677TIP3    H135226   4.478   6.268  19.144 -2.9190 -0.6783 -2.3013
 3677TIP3    H235227   4.390   6.251  19.266 -0.9781 -0.7738 -0.8715
 3678TIP3   OH235228   5.097   1.390  18.269  0.0704  0.2068 -0.2981
 3678TIP3    H135229   5.096   1.474  18.224  4.5074  0.1359 -0.9665
 3678TIP3    H235230   5.088   1.412  18.361 -0.6527  1.1817 -0.5789
 3679TIP3   OH235231   4.446   3.809  19.582  0.2502 -0.3702 -0.2385
 3679TIP3    H135232   4.375   3.755  19.617  0.5838 -0.6101  0.0679
 3679TIP3    H235233   4.525   3.757  19.596  0.5536  0.1290 -0.0824
 3680TIP3   OH235234   0.745   6.392  19.482  0.2565 -0.8674 -0.0902
 3680TIP3    H135235   0.795   6.473  19.485  1.2452 -1.3838 -1.5718
 3680TIP3    H235236   0.709   6.383  19.570  0.7178  0.7974  0.2997
 3681TIP3   OH235237   5.327   4.454  19.830 -0.0388 -0.0941  0.3092
 3681TIP3    H135238   5.363   4.366  19.813  1.5026  0.1469  1.9366
 3681TIP3    H235239   5.288   4.447  19.917  0.2977  0.8846  0.5515
 3682TIP3   OH235240   1.261   3.659  17.776 -0.1245 -0.0531 -0.4863
 3682TIP3    H135241   1.258   3.615  17.861  0.6513  0.6265 -0.0911
 3682TIP3    H235242   1.307   3.597  17.719  0.7509  0.1348  0.0023
 3683TIP3   OH235243   4.306   0.609  17.254  0.3632 -0.2166 -0.4899
 3683TIP3    H135244   4.323   0.517  17.233 -2.9676 -1.0336 -0.1164
 3683TIP3    H235245   4.374   0.632  17.317  2.3670 -1.8178 -1.9492
 3684TIP3   OH235246   3.766   3.437  18.813  1.0415  0.1835 -0.1251
 3684TIP3    H135247   3.807   3.482  18.740  3.0149  1.0275  1.4105
 3684TIP3    H235248   3.778   3.344  18.794 -0.6391  0.3022 -1.9977
 3685TIP3   OH235249   0.997   3.239  20.440 -0.4513 -0.3166 -0.1886
 3685TIP3    H135250   1.049   3.262  20.362  0.0897 -1.4418 -0.1698
 3685TIP3    H235251   1.050   3.270  20.513  0.1944 -1.4158 -0.1711
 3686TIP3   OH235252   5.564   1.643  17.189 -0.4770 -0.0671  0.0673
 3686TIP3    H135253   5.586   1.665  17.099 -0.7406 -1.6861 -0.4193
 3686TIP3    H235254   5.582   1.723  17.239 -0.3578  0.8536 -1.4141
 3687TIP3   OH235255   2.894   5.760  20.141  0.3638  0.3328  0.2540
 3687TIP3    H135256   2.895   5.676  20.186  2.1407  0.4492  0.4914
 3687TIP3    H235257   2.938   5.744  20.057  1.0985  1.0993  0.4755
 3688TIP3   OH235258   0.085   4.967  17.177  0.1823 -0.8480  0.0987
 3688TIP3    H135259   0.171   5.009  17.184  0.7083 -1.8217 -0.3516
 3688TIP3    H235260   0.043   4.985  17.262  1.2695 -1.3078  0.7578
 3689TIP3   OH235261   3.261   5.712  18.410  0.0426 -0.3928 -0.3969
 3689TIP3    H135262   3.342   5.754  18.441 -0.6370  0.8892 -0.2993
 3689TIP3    H235263   3.222   5.676  18.489  0.0903 -0.2565 -0.3105
 3690TIP3   OH235264   6.311   4.333  19.012 -0.1544  0.0870  0.3551
 3690TIP3    H135265   6.316   4.426  19.032  1.8298 -0.2982  1.9692
 3690TIP3    H235266   6.220   4.309  19.031 -0.0618  1.1901  2.4316
 3691TIP3   OH235267   0.637   5.841  17.240 -0.4225 -0.7691 -0.2698
 3691TIP3    H135268   0.656   5.911  17.177  0.3565 -1.2780 -0.6270
 3691TIP3    H235269   0.542   5.840  17.248 -0.3846  1.3463  0.9196
 3692TIP3   OH235270   1.130   5.112  16.794  0.1774  0.4525 -0.2757
 3692TIP3    H135271   1.157   5.027  16.761  0.8022  0.5013  0.0923
 3692TIP3    H235272   1.060   5.140  16.734 -0.1593 -0.3891 -0.2889
 3693TIP3   OH235273   5.672   2.241  17.951 -0.3407  0.1054 -0.3017
 3693TIP3    H135274   5.640   2.173  17.892 -0.2860 -0.8101  0.6921
 3693TIP3    H235275   5.677   2.198  18.037  1.6340  0.7701 -0.0298
 3694TIP3   OH235276   3.668   1.792  17.129  0.0661 -0.2045 -0.1039
 3694TIP3    H135277   3.733   1.822  17.065 -0.2370  0.2529 -0.2072
 3694TIP3    H235278   3.631   1.712  17.091  0.2315 -0.2018 -0.2705
 3695TIP3   OH235279   4.995   1.007  19.110  0.1515 -0.0679  0.2626
 3695TIP3    H135280   5.073   0.992  19.056  0.0592 -0.0690  0.1276
 3695TIP3    H235281   4.923   1.012  19.046  0.0085 -0.2999  0.4040
 3696TIP3   OH235282   4.133   3.503  20.055 -0.4548 -0.1549 -0.2282
 3696TIP3    H135283   4.069   3.458  20.001  0.9852 -0.0451 -2.1108
 3696TIP3    H235284   4.193   3.434  20.084 -0.6607 -0.0634  0.4348
 3697TIP3   OH235285   1.978   5.301  18.617  0.3616 -0.1540 -0.5110
 3697TIP3    H135286   1.980   5.218  18.568  0.0799 -0.0702 -0.6648
 3697TIP3    H235287   2.065   5.308  18.655  0.7101 -0.0386 -1.3072
 3698TIP3   OH235288   0.162   2.616  19.309  0.3144 -0.4232  0.2589
 3698TIP3    H135289   0.125   2.531  19.287  1.0859 -0.4753 -0.9186
 3698TIP3    H235290   0.109   2.647  19.383 -0.8066 -1.3379 -0.1306
 3699TIP3   OH235291   0.390   3.896  16.783  0.1422 -0.1336  0.3157
 3699TIP3    H135292   0.468   3.911  16.729  1.6749 -0.8283  2.2282
 3699TIP3    H235293   0.317   3.913  16.724  1.6158 -3.5708 -2.8711
 3700TIP3   OH235294   3.723   2.085  17.040  0.2089 -0.2465  0.6100
 3700TIP3    H135295   3.763   2.160  16.997  0.0996 -0.5398 -0.0126
 3700TIP3    H235296   3.769   2.009  17.003 -1.0896 -0.6044 -0.3244
 3701TIP3   OH235297   5.227   6.132  20.190 -0.0490  0.2721 -0.7025
 3701TIP3    H135298   5.311   6.145  20.234  0.2161  0.7710 -1.3304
 3701TIP3    H235299   5.242   6.062  20.127 -1.2088 -2.6123  1.9590
 3702TIP3   OH235300   2.591   1.603  17.329 -0.1196  0.2534  0.2329
 3702TIP3    H135301   2.636   1.602  17.414  0.0905 -1.9820  0.1574
 3702TIP3    H235302   2.662   1.606  17.265 -0.1944 -0.1804  0.1290
 3703TIP3   OH235303   3.505   6.466  18.702 -0.0652 -0.3443  0.5380
 3703TIP3    H135304   3.547   6.453  18.617  1.3345  1.2654  0.9369
 3703TIP3    H235305   3.456   6.548  18.693  2.0015  1.1403  1.9107
 3704TIP3   OH235306   0.616   4.894  19.980 -0.2894  0.4224 -0.0045
 3704TIP3    H135307   0.643   4.978  19.944  0.0796  0.0357 -0.6309
 3704TIP3    H235308   0.576   4.916  20.064 -1.5483  1.3776 -0.8229
 3705TIP3   OH235309   2.839   6.024  18.330 -0.3272  0.3973  0.2128
 3705TIP3    H135310   2.884   5.953  18.376 -0.3574 -1.1792 -2.0358
 3705TIP3    H235311   2.774   5.980  18.275 -1.8871  2.3480  0.3911
 3706TIP3   OH235312   2.388   3.209  18.401  0.4455 -0.3340  0.5615
 3706TIP3    H135313   2.403   3.135  18.459  2.0595 -0.1591  0.4174
 3706TIP3    H235314   2.451   3.198  18.330  0.1120  0.7034  0.0743
 3707TIP3   OH235315   2.182   5.910  20.167 -0.6614  0.0972 -0.1117
 3707TIP3    H135316   2.155   5.860  20.245  0.6903 -1.2802 -0.4678
 3707TIP3    H235317   2.192   5.843  20.099 -2.3450  1.3348 -1.6682
 3708TIP3   OH235318   5.160   5.881  17.062 -0.2865  0.8726  0.1758
 3708TIP3    H135319   5.139   5.953  17.122 -0.9954 -0.4867  1.6325
 3708TIP3    H235320   5.156   5.920  16.975 -1.0689  2.4959  0.9005
 3709TIP3   OH235321   1.952   3.845  19.902 -0.6184  0.1030 -0.4080
 3709TIP3    H135322   1.860   3.820  19.910 -0.7062  0.0349 -1.4546
 3709TIP3    H235323   1.992   3.819  19.985 -1.1445 -1.6039 -0.6559
 3710TIP3   OH235324   0.624   3.715  18.621 -0.2200 -0.3967 -0.2116
 3710TIP3    H135325   0.681   3.665  18.680  0.4611 -0.1004 -0.6016
 3710TIP3    H235326   0.591   3.787  18.675 -1.6370 -1.5351  0.5054
 3711TIP3   OH235327   3.860   3.710  18.687  0.2928 -0.3104  0.0544
 3711TIP3    H135328   3.865   3.805  18.686  0.7587 -0.3232  0.7428
 3711TIP3    H235329   3.835   3.686  18.598  0.4050  0.4428 -0.1801
 3712TIP3   OH235330   6.386   3.560  19.013  0.6143 -0.3796  0.0211
 3712TIP3    H135331   6.448   3.511  18.959  1.7299 -0.6385  1.4752
 3712TIP3    H235332   6.303   3.515  19.000  1.2616 -1.6223 -0.0137
 3713TIP3   OH235333   3.740   2.294  18.361  0.0727  0.4011 -0.3847
 3713TIP3    H135334   3.747   2.310  18.267 -1.9399 -1.0119 -0.8489
 3713TIP3    H235335   3.686   2.215  18.368  0.8070  0.0093  1.9544
 3714TIP3   OH235336   0.679   5.484  17.795 -0.5094  0.2437 -0.1076
 3714TIP3    H135337   0.605   5.431  17.764 -0.3382  0.3215 -0.6601
 3714TIP3    H235338   0.643   5.535  17.867 -0.8642 -0.0955 -0.0404
 3715TIP3   OH235339   0.356   6.534  20.358  0.0073 -0.4936 -0.6329
 3715TIP3    H135340   0.315   6.469  20.301 -0.6472 -0.4910 -0.1724
 3715TIP3    H235341   0.373   6.488  20.440  0.5801 -0.3875 -0.6873
 3716TIP3   OH235342   4.361   1.591  17.288  0.0534 -0.2830 -0.0154
 3716TIP3    H135343   4.321   1.591  17.202 -1.6022 -2.3439  0.6442
 3716TIP3    H235344   4.317   1.520  17.335  0.8311  0.7953  2.5609
 3717TIP3   OH235345   4.399   3.365  19.066  0.1962  0.1617  0.1285
 3717TIP3    H135346   4.485   3.394  19.095  1.8424 -1.9417 -2.2200
 3717TIP3    H235347   4.392   3.397  18.976  0.0184 -2.3473 -0.8458
 3718TIP3   OH235348   3.715   0.198  17.619  0.4033 -0.1167 -0.5074
 3718TIP3    H135349   3.799   0.167  17.653  1.1047  0.1833 -1.8889
 3718TIP3    H235350   3.682   0.125  17.565  0.4775  0.2961 -1.1236
 3719TIP3   OH235351   1.455   2.635  18.594 -0.3306  0.1422 -0.0653
 3719TIP3    H135352   1.370   2.661  18.628  0.0654  0.0419  1.0227
 3719TIP3    H235353   1.517   2.695  18.635  0.3702 -1.1839  0.8859
 3720TIP3   OH235354   0.104   2.614  19.890 -0.3480  0.6392  0.2507
 3720TIP3    H135355   0.055   2.684  19.932 -2.7450 -0.1062 -1.1038
 3720TIP3    H235356   0.055   2.535  19.910  0.5329 -0.2241 -0.8337
 3721TIP3   OH235357   0.282   5.987  17.776  0.0441  0.4691 -0.3432
 3721TIP3    H135358   0.320   6.031  17.852 -0.5216  0.4374 -0.0380
 3721TIP3    H235359   0.191   6.015  17.775  0.0623  0.5154 -1.0487
 3722TIP3   OH235360   0.591   1.204  16.838 -0.3675  0.6428 -0.2219
 3722TIP3    H135361   0.674   1.250  16.829 -0.4101  0.5223 -1.4252
 3722TIP3    H235362   0.615   1.117  16.870  0.0322  0.4656 -0.9722
 3723TIP3   OH235363   0.741   2.867  19.392 -0.0113 -0.0577  0.2376
 3723TIP3    H135364   0.810   2.802  19.377  0.0420  0.0481  0.0117
 3723TIP3    H235365   0.772   2.917  19.468  0.3243  0.2052 -0.0700
 3724TIP3   OH235366   5.755   2.049  17.573  0.1552  0.1963  0.1999
 3724TIP3    H135367   5.766   2.052  17.478  0.1679 -0.7307  0.1662
 3724TIP3    H235368   5.837   2.085  17.608 -0.1940  1.3663 -0.1341
 3725TIP3   OH235369   2.644   2.417  16.968  0.3869 -0.2442  0.5359
 3725TIP3    H135370   2.629   2.509  16.944 -2.8238 -0.4293  1.3446
 3725TIP3    H235371   2.734   2.415  16.999  1.1120  2.2435 -1.0808
 3726TIP3   OH235372   5.534   5.765  17.268  0.3585 -0.1001 -0.1558
 3726TIP3    H135373   5.492   5.699  17.324 -0.5470  0.9125  0.3903
 3726TIP3    H235374   5.626   5.764  17.296 -0.0441  0.2807  1.2756
 3727TIP3   OH235375   0.544   2.669  18.683 -0.3602 -0.0404  0.2014
 3727TIP3    H135376   0.491   2.638  18.609  1.1117 -3.2246  0.3152
 3727TIP3    H235377   0.492   2.648  18.760 -0.5360  0.3523  0.1915
 3728TIP3   OH235378   6.592   4.448  19.755 -0.3456  0.5365  0.0713
 3728TIP3    H135379   6.611   4.356  19.739 -2.5397 -0.1769  1.1392
 3728TIP3    H235380   6.642   4.470  19.833 -0.0291  0.1645 -0.0258
 3729TIP3   OH235381   3.154   0.200  17.959  0.5433  1.0805 -0.8495
 3729TIP3    H135382   3.161   0.237  17.871  0.6440  2.5016 -0.2636
 3729TIP3    H235383   3.086   0.252  18.002  0.2339  0.1664 -0.1906
 3730TIP3   OH235384   4.119   5.765  17.754 -0.6139  0.2912 -0.0641
 3730TIP3    H135385   4.181   5.699  17.725 -0.2853  0.8467 -0.6610
 3730TIP3    H235386   4.055   5.717  17.806 -0.4549 -0.5098 -0.5877
 3731TIP3   OH235387   5.915   5.835  17.604  0.2470  0.3069  0.4382
 3731TIP3    H135388   5.975   5.902  17.636 -0.0639  1.0320 -0.4279
 3731TIP3    H235389   5.832   5.882  17.590 -0.3466 -0.5386  1.0284
 3732TIP3   OH235390   1.574   2.871  18.960  0.1394  0.4110  0.1353
 3732TIP3    H135391   1.570   2.966  18.968  1.2017  0.4638  0.2487
 3732TIP3    H235392   1.586   2.840  19.049 -0.2231  0.1621  0.1015
 3733TIP3   OH235393   5.293   1.638  19.564  0.4483 -0.1457  0.1095
 3733TIP3    H135394   5.348   1.588  19.503  2.1077  0.6202  0.9147
 3733TIP3    H235395   5.355   1.683  19.621 -1.0363  0.9234  0.9532
 3734TIP3   OH235396   3.175   4.815  17.652 -0.0854  0.3376  0.3013
 3734TIP3    H135397   3.133   4.764  17.583  0.5412 -0.6550  0.6253
 3734TIP3    H235398   3.221   4.885  17.606 -0.2266  0.0909 -0.2265
 3735TIP3   OH235399   0.859   5.682  17.686 -0.1561  0.1486 -0.3743
 3735TIP3    H135400   0.892   5.598  17.654 -0.3882  0.5549 -1.7796
 3735TIP3    H235401   0.780   5.660  17.736  0.1557 -0.5126 -0.1740
 3736TIP3   OH235402   1.007   1.229  18.736  0.6556 -0.0799 -0.6155
 3736TIP3    H135403   1.050   1.210  18.820 -0.2220  0.9585  0.1020
 3736TIP3    H235404   1.067   1.288  18.691  0.4000  0.6929  0.0195
 3737TIP3   OH235405   0.175   4.872  18.639  0.7104 -0.8043  0.2779
 3737TIP3    H135406   0.253   4.881  18.584  1.4615 -1.2450  1.2433
 3737TIP3    H235407   0.102   4.884  18.579  1.4389 -3.5308 -1.3142
 3738TIP3   OH235408   0.126   0.248  18.992  0.2182  0.1402 -0.0531
 3738TIP3    H135409   0.199   0.267  19.052  0.6269  0.1896 -0.5625
 3738TIP3    H235410   0.063   0.319  19.007  0.0509 -0.1557  0.7305
 3739TIP3   OH235411   0.393   5.845  19.661  0.4834 -0.2288 -0.0470
 3739TIP3    H135412   0.379   5.752  19.676  0.5533 -0.1584  0.4581
 3739TIP3    H235413   0.311   5.886  19.685  0.5320 -0.1344 -0.0427
 3740TIP3   OH235414   6.123   3.514  18.686 -0.1413  0.3686  0.4470
 3740TIP3    H135415   6.118   3.425  18.651  0.8952 -0.3588  2.0096
 3740TIP3    H235416   6.176   3.562  18.622  0.2013 -0.4335  0.1100
 3741TIP3   OH235417   6.320   4.942  19.324  0.1001 -0.9993  0.3400
 3741TIP3    H135418   6.298   4.851  19.343 -2.3337 -0.9977 -1.8046
 3741TIP3    H235419   6.237   4.981  19.296  1.7461  0.8173 -2.5755
 3742TIP3   OH235420   4.409   0.939  18.809 -0.4098  0.1380  0.1362
 3742TIP3    H135421   4.343   0.993  18.766 -0.9808 -0.8565 -0.2693
 3742TIP3    H235422   4.379   0.931  18.899 -1.0861 -0.6788 -0.1577
 3743TIP3   OH235423   5.007   6.383  17.104  0.4041  0.4466  0.1332
 3743TIP3    H135424   5.069   6.316  17.076  2.6298  0.9283  3.3216
 3743TIP3    H235425   4.957   6.342  17.174 -0.5831  1.1087 -0.1651
 3744TIP3   OH235426   3.938   0.227  17.303  0.4741 -0.3984  0.2328
 3744TIP3    H135427   3.971   0.310  17.338  0.9619 -0.6569  0.4049
 3744TIP3    H235428   3.843   0.235  17.308  0.5073  0.2933 -0.1025
 3745TIP3   OH235429   3.422   4.521  18.714  0.1407 -0.0109  0.1445
 3745TIP3    H135430   3.382   4.515  18.628 -0.4085  0.5052  0.3541
 3745TIP3    H235431   3.511   4.489  18.702 -0.6336 -2.1967 -0.1125
 3746TIP3   OH235432   4.114   3.752  18.934 -0.2788 -0.0259  0.4087
 3746TIP3    H135433   4.122   3.843  18.904  0.3859  0.0192  0.6995
 3746TIP3    H235434   4.114   3.700  18.853 -0.6092  0.2297  0.2430
 3747TIP3   OH235435   3.265   3.770  18.623 -0.1982 -0.1789 -0.3434
 3747TIP3    H135436   3.338   3.715  18.652  0.4824  0.9605  0.1701
 3747TIP3    H235437   3.196   3.754  18.687  0.6335  0.8960  0.8695
 3748TIP3   OH235438   0.146   2.919  17.845 -0.0480  0.3015  0.4412
 3748TIP3    H135439   0.103   2.980  17.905  1.1809  2.1277 -0.4142
 3748TIP3    H235440   0.109   2.834  17.866 -1.9217  1.3382  1.6537
 3749TIP3   OH235441   2.031   4.248  18.822 -0.0634 -0.1371  0.3307
 3749TIP3    H135442   2.053   4.203  18.903  0.1036  0.3725  0.5694
 3749TIP3    H235443   1.946   4.287  18.838 -0.8095 -1.4395 -0.3215
 3750TIP3   OH235444   5.394   0.090  17.211 -0.6225 -0.1861 -0.3066
 3750TIP3    H135445   5.434   0.174  17.189  0.0885 -0.6656 -0.8748
 3750TIP3    H235446   5.408   0.080  17.305 -1.3648  0.6597 -0.0844
 3751TIP3   OH235447   1.625   0.477  19.104  0.0334 -0.6856 -0.4527
 3751TIP3    H135448   1.687   0.478  19.031 -0.9130  1.1108 -1.3253
 3751TIP3    H235449   1.648   0.554  19.156  0.2431 -1.5498  0.7814
 3752TIP3   OH235450   4.665   1.483  19.444 -0.5105  0.2060  0.0155
 3752TIP3    H135451   4.739   1.432  19.411 -1.1070  1.0513 -2.8574
 3752TIP3    H235452   4.705   1.562  19.480  0.0773 -0.1856  0.2588
 3753TIP3   OH235453   1.721   6.503  18.952 -0.3638  0.0403 -0.2671
 3753TIP3    H135454   1.769   6.581  18.923  1.1413 -1.0142 -0.7233
 3753TIP3    H235455   1.762   6.477  19.034 -0.2658 -0.7664 -0.5584
 3754TIP3   OH235456   0.475   1.968  17.611 -0.1214  0.3778  0.3347
 3754TIP3    H135457   0.495   1.979  17.518 -2.0467 -1.8612 -0.4401
 3754TIP3    H235458   0.442   2.053  17.639 -0.8963  0.6972 -1.4344
 3755TIP3   OH235459   6.549   2.009  17.456 -0.9457 -0.2670 -0.1355
 3755TIP3    H135460   6.589   1.935  17.410 -1.1470  0.6012 -1.7887
 3755TIP3    H235461   6.539   1.979  17.546  2.5866 -0.8840  0.1949
 3756TIP3   OH235462   0.349   3.672  17.171  0.0602  0.1572  0.3598
 3756TIP3    H135463   0.310   3.588  17.147  0.7671 -0.4584  1.3184
 3756TIP3    H235464   0.292   3.737  17.130 -1.8260 -0.7193  1.4718
 3757TIP3   OH235465   4.800   4.170  19.510  0.0247 -0.1047  0.3717
 3757TIP3    H135466   4.719   4.215  19.486  0.8203  0.3880 -1.6173
 3757TIP3    H235467   4.785   4.140  19.599 -1.8394  1.1233  0.5391
 3758TIP3   OH235468   5.432   1.859  20.141  0.2513 -0.3056 -0.2716
 3758TIP3    H135469   5.442   1.768  20.111  0.2593 -0.1607 -0.7273
 3758TIP3    H235470   5.338   1.876  20.131  0.4301  0.1216 -1.3615
 3759TIP3   OH235471   4.439   2.138  17.617  0.6327 -0.0725  0.3631
 3759TIP3    H135472   4.505   2.208  17.620 -0.6637  1.1813  0.5520
 3759TIP3    H235473   4.481   2.064  17.662  1.7817  0.8148  0.8043
 3760TIP3   OH235474   1.140   1.422  18.315  0.6336  0.2973 -0.2111
 3760TIP3    H135475   1.151   1.347  18.373 -1.8288  0.0460  0.0440
 3760TIP3    H235476   1.166   1.498  18.368  1.1570 -0.1853  0.2275
 3761TIP3   OH235477   1.634   1.706  18.445  0.2981  0.2980  0.2345
 3761TIP3    H135478   1.606   1.673  18.360  1.6837  0.5343 -0.3435
 3761TIP3    H235479   1.561   1.687  18.504 -0.5822 -0.0909 -0.9492
 3762TIP3   OH235480   5.485   5.614  20.049 -0.1227  0.0582 -0.4536
 3762TIP3    H135481   5.485   5.709  20.038 -1.1478 -0.0246 -1.3620
 3762TIP3    H235482   5.573   5.586  20.024 -0.2770  0.6177 -1.6703
 3763TIP3   OH235483   3.870   1.579  19.783  0.3836  0.1570 -0.6515
 3763TIP3    H135484   3.856   1.673  19.775  2.0479  0.7377  2.0445
 3763TIP3    H235485   3.957   1.571  19.824  0.5041 -2.5738 -1.2697
 3764TIP3   OH235486   1.883   6.415  19.175  0.7442 -0.1642  0.2308
 3764TIP3    H135487   1.946   6.352  19.209  2.2806  0.6790 -0.8866
 3764TIP3    H235488   1.917   6.500  19.203  0.3207  0.3410 -0.7299
 3765TIP3   OH235489   1.026   6.667  16.591  0.4362 -0.0062 -0.0284
 3765TIP3    H135490   0.942   6.712  16.589 -0.4639 -1.6325 -1.2292
 3765TIP3    H235491   1.059   6.681  16.680 -1.6762 -0.3597  0.8632
 3766TIP3   OH235492   4.319   5.600  16.943  0.6847  0.2783 -0.6437
 3766TIP3    H135493   4.405   5.640  16.943  0.1003  1.6480  1.0994
 3766TIP3    H235494   4.314   5.552  16.860  3.0033  0.3466 -0.8665
 3767TIP3   OH235495   2.723   3.017  17.207  0.3054 -0.1503  0.2906
 3767TIP3    H135496   2.663   3.004  17.134  1.3535  2.6853 -1.2593
 3767TIP3    H235497   2.810   2.997  17.171  0.9579  2.2883  0.3133
 3768TIP3   OH235498   2.666   0.647  17.334  0.3394  0.1172 -0.2658
 3768TIP3    H135499   2.609   0.574  17.313  0.2083 -0.1083  0.8386
 3768TIP3    H235500   2.664   0.702  17.255 -0.8923 -0.2011 -0.4745
 3769TIP3   OH235501   2.692   4.113  18.915  0.3289  0.1051 -0.7494
 3769TIP3    H135502   2.749   4.048  18.873  0.6750 -0.5879  0.7564
 3769TIP3    H235503   2.752   4.183  18.942  0.5218 -0.6870  0.9560
 3770TIP3   OH235504   6.161   5.153  17.974 -0.4080  0.1282  0.4402
 3770TIP3    H135505   6.080   5.204  17.975 -0.6834 -0.3130  0.5695
 3770TIP3    H235506   6.170   5.123  17.884 -0.7820 -0.4465  0.5896
 3771TIP3   OH235507   2.035   2.594  18.909  0.6094 -0.4485 -0.0238
 3771TIP3    H135508   2.029   2.601  18.813  0.4356 -0.7958 -0.0388
 3771TIP3    H235509   2.066   2.680  18.937  1.3336 -0.5595 -0.4516
 3772TIP3   OH235510   0.089   3.559  17.785 -0.0612  0.6167  0.7148
 3772TIP3    H135511   0.175   3.554  17.827  0.1583  0.4053  0.2462
 3772TIP3    H235512   0.094   3.497  17.713 -0.4219  1.0064  0.3469
 3773TIP3   OH235513   6.272   6.371  16.897 -0.5383  0.3043  0.1884
 3773TIP3    H135514   6.300   6.462  16.889 -2.2685  0.7878 -1.1924
 3773TIP3    H235515   6.184   6.376  16.934  0.1589 -0.9781  2.1509
 3774TIP3   OH235516   3.151   1.720  17.921  0.0172  0.5620 -0.0302
 3774TIP3    H135517   3.246   1.727  17.915  0.0640  0.1706  0.2121
 3774TIP3    H235518   3.125   1.792  17.978  0.2282  0.3242  0.3682
 3775TIP3   OH235519   2.655   1.231  19.053  0.2012  0.0022  0.0518
 3775TIP3    H135520   2.666   1.292  19.126 -1.2374  1.7360 -1.0989
 3775TIP3    H235521   2.561   1.226  19.040  0.4296  0.1421 -1.9988
 3776TIP3   OH235522   4.485   0.902  19.754  0.5042  0.3760  0.4664
 3776TIP3    H135523   4.511   0.928  19.665  0.4536 -4.0696 -1.0957
 3776TIP3    H235524   4.562   0.919  19.807  1.4747  0.7616 -1.0025
 3777TIP3   OH235525   0.837   3.368  19.359  0.4390  0.4287 -0.1631
 3777TIP3    H135526   0.843   3.335  19.269  0.0485 -0.1083 -0.0009
 3777TIP3    H235527   0.850   3.290  19.414  0.8891  0.7883  0.2514
 3778TIP3   OH235528   1.626   1.572  19.718  0.0214  0.0138  0.5473
 3778TIP3    H135529   1.563   1.502  19.736  0.1890 -0.4451 -0.5566
 3778TIP3    H235530   1.573   1.652  19.714 -0.6443 -0.4627 -1.0939
 3779TIP3   OH235531   3.798   3.486  19.066  0.6924  0.0535  0.6393
 3779TIP3    H135532   3.774   3.464  18.977 -1.7006 -0.4926  1.3526
 3779TIP3    H235533   3.855   3.562  19.058 -3.2804  3.1625 -1.2225
 3780TIP3   OH235534   3.687   2.919  17.873  0.1925  0.0998  0.1772
 3780TIP3    H135535   3.686   2.924  17.778 -1.1862  0.9739  0.2079
 3780TIP3    H235536   3.732   2.837  17.892  1.7146  0.5665 -1.1673
 3781TIP3   OH235537   4.716   3.911  16.360 -0.0659  0.0524 -0.1807
 3781TIP3    H135538   4.623   3.909  16.339 -0.3077 -0.1309  0.8686
 3781TIP3    H235539   4.744   3.820  16.357 -0.2572 -0.0571  0.8935
 3782TIP3   OH235540   1.189   5.791  18.661 -0.3481 -0.0126  0.0935
 3782TIP3    H135541   1.225   5.702  18.654 -3.2545 -1.3672  0.8190
 3782TIP3    H235542   1.131   5.787  18.737 -0.0699  2.7450  0.5454
 3783TIP3   OH235543   2.005   5.908  17.463 -0.3270 -0.6417 -0.2252
 3783TIP3    H135544   2.095   5.921  17.433 -0.3932  1.7986  0.4290
 3783TIP3    H235545   1.979   5.824  17.425  1.6034 -0.5607 -1.8943
 3784TIP3   OH235546   2.403   1.373  17.379 -0.0865 -0.2580  0.2341
 3784TIP3    H135547   2.454   1.448  17.346 -0.4554  0.6757  1.7183
 3784TIP3    H235548   2.464   1.325  17.434 -0.7988  0.9534  2.1517
 3785TIP3   OH235549   6.037   5.127  19.902 -0.7772 -0.0014 -0.0080
 3785TIP3    H135550   6.054   5.178  19.823  0.6794 -0.6058 -0.1074
 3785TIP3    H235551   5.954   5.083  19.884 -0.7867  0.3598 -0.9315
 3786TIP3   OH235552   2.950   4.425  19.801  0.4556 -0.2980  0.1851
 3786TIP3    H135553   2.926   4.348  19.748  0.6031  0.3721 -0.8884
 3786TIP3    H235554   3.038   4.405  19.833  1.0603 -0.0223 -1.2198
 3787TIP3   OH235555   0.461   6.224  18.409 -0.0191 -0.5264  0.2663
 3787TIP3    H135556   0.412   6.294  18.364 -1.0894 -0.7553  1.0341
 3787TIP3    H235557   0.393   6.162  18.435  0.3730  0.1985  3.3282
 3788TIP3   OH235558   0.605   1.802  18.667 -0.8673  0.2846 -0.3447
 3788TIP3    H135559   0.528   1.845  18.705  0.0965  1.9194 -0.1452
 3788TIP3    H235560   0.572   1.759  18.588 -2.1650  0.0916  0.2773
 3789TIP3   OH235561   3.461   2.614  17.681  0.3298  0.0082 -0.0235
 3789TIP3    H135562   3.433   2.706  17.679 -1.2137 -0.4340  0.6248
 3789TIP3    H235563   3.481   2.594  17.589  1.3522  1.1581 -0.0931
 3790TIP3   OH235564   2.660   2.378  19.196 -0.2578 -0.4538  0.3268
 3790TIP3    H135565   2.673   2.457  19.143  0.7137  1.0653  2.6217
 3790TIP3    H235566   2.687   2.306  19.139 -1.2193  0.8207 -1.8785
 3791TIP3   OH235567   0.045   4.079  17.581  0.3703  0.3943 -0.1757
 3791TIP3    H135568  -0.041   4.048  17.551  0.0595 -1.3927  2.2527
 3791TIP3    H235569   0.100   4.078  17.502 -1.3175 -0.3255 -1.4107
 3792TIP3   OH235570   4.785   4.699  17.590 -0.2249  0.3607  0.6982
 3792TIP3    H135571   4.866   4.724  17.634  0.2788 -0.1646  0.0962
 3792TIP3    H235572   4.783   4.604  17.595 -1.9272  0.4346  2.6231
 3793TIP3   OH235573   3.853   5.553  17.954 -0.0387  0.1448 -0.6130
 3793TIP3    H135574   3.875   5.464  17.925  0.0871  1.0685 -3.6969
 3793TIP3    H235575   3.933   5.585  17.995 -0.1416 -1.1714  0.7036
 3794TIP3   OH235576   5.211   2.584  18.993  0.5496  0.7315  0.5101
 3794TIP3    H135577   5.277   2.639  19.036  1.2563 -0.0195  0.4011
 3794TIP3    H235578   5.219   2.605  18.900  0.7468  0.5203  0.4794
 3795TIP3   OH235579   5.924   6.329  18.457 -0.4350  0.0285  0.3319
 3795TIP3    H135580   6.017   6.306  18.459 -0.8538 -1.7486  1.1718
 3795TIP3    H235581   5.888   6.274  18.387 -0.8669  0.6898  0.0305
 3796TIP3   OH235582   3.506   2.720  19.394 -0.0819  0.5893  0.2363
 3796TIP3    H135583   3.478   2.775  19.468  0.2238 -0.2455  0.9816
 3796TIP3    H235584   3.430   2.664  19.377 -0.8835  2.0505 -1.3591
 3797TIP3   OH235585   4.248   4.050  19.979 -0.2121  0.1472 -0.8607
 3797TIP3    H135586   4.173   4.090  19.937  0.2546  2.0202 -0.0252
 3797TIP3    H235587   4.210   3.993  20.046 -0.8956  0.3720 -1.0502
 3798TIP3   OH235588   6.479   0.582  20.277  0.9027 -0.1116  0.3441
 3798TIP3    H135589   6.495   0.676  20.267  3.3256 -0.4213  0.5575
 3798TIP3    H235590   6.424   0.559  20.202  2.6992  0.9984 -1.4222
 3799TIP3   OH235591   4.484   6.352  17.560 -0.0914 -0.6412  0.5190
 3799TIP3    H135592   4.404   6.384  17.518 -1.4751  0.3287  3.5495
 3799TIP3    H235593   4.554   6.371  17.498 -2.0267 -0.2188 -1.6575
 3800TIP3   OH235594   5.090   3.480  19.164  0.2536 -0.3869 -0.0841
 3800TIP3    H135595   5.100   3.432  19.246  0.8242  0.3227  0.2698
 3800TIP3    H235596   5.037   3.557  19.187  3.5066  1.8638  0.5200
 3801TIP3   OH235597   4.578   3.734  18.132  0.0093  0.0893  0.4826
 3801TIP3    H135598   4.586   3.732  18.037 -0.2404  0.4150  0.4535
 3801TIP3    H235599   4.651   3.680  18.164 -0.7619 -1.2392  0.0680
 3802TIP3   OH235600   2.560   6.509  18.517 -0.3228 -0.5421 -0.1409
 3802TIP3    H135601   2.505   6.455  18.460 -1.9867  1.7289 -0.8808
 3802TIP3    H235602   2.505   6.526  18.594  0.9767 -1.5819  1.0631
 3803TIP3   OH235603   5.569   1.668  19.669 -0.4176 -0.1979  0.0135
 3803TIP3    H135604   5.603   1.730  19.734 -1.4622  0.3306  0.0673
 3803TIP3    H235605   5.580   1.582  19.711  0.8607 -0.0462  0.0119
 3804TIP3   OH235606   3.489   4.579  18.200  0.1651 -0.8874 -0.7467
 3804TIP3    H135607   3.463   4.655  18.149  0.2966 -0.3023  0.0379
 3804TIP3    H235608   3.555   4.612  18.261 -0.2875 -1.4725  0.0842
 3805TIP3   OH235609   4.791   5.820  20.079 -0.0555  0.4195  0.0371
 3805TIP3    H135610   4.877   5.844  20.114  0.8282 -1.5908 -0.6216
 3805TIP3    H235611   4.742   5.902  20.080  2.0704  1.7921 -0.1804
 3806TIP3   OH235612   1.839   3.085  17.658 -0.8852 -0.0665 -0.0508
 3806TIP3    H135613   1.872   3.168  17.625  0.7629  0.4541  2.6237
 3806TIP3    H235614   1.783   3.108  17.732 -2.0765 -1.2775 -0.5273
 3807TIP3   OH235615   4.091   2.558  17.985 -0.2036  0.0325  0.1681
 3807TIP3    H135616   4.160   2.529  17.925  0.2298 -0.2025  0.7713
 3807TIP3    H235617   4.027   2.486  17.984 -0.7051  0.4772 -0.7883
 3808TIP3   OH235618   2.348   4.697  16.970  0.3021 -0.2444 -0.4313
 3808TIP3    H135619   2.393   4.717  16.888  0.0901 -0.9271 -0.7223
 3808TIP3    H235620   2.337   4.782  17.013  3.1705 -0.1867  0.3650
 3809TIP3   OH235621   1.536   5.475  19.811  0.2833 -0.9954  0.1744
 3809TIP3    H135622   1.567   5.414  19.744  0.2640  0.0491 -0.8200
 3809TIP3    H235623   1.487   5.541  19.762  0.4266 -0.1013  1.2017
 3810TIP3   OH235624   2.660   1.647  19.835 -0.0415 -0.4365  0.4561
 3810TIP3    H135625   2.638   1.554  19.832  1.1263 -0.7116 -0.3471
 3810TIP3    H235626   2.586   1.690  19.792 -0.0036 -1.1303 -0.3471
 3811TIP3   OH235627   6.510   0.303  17.819 -0.9651 -0.1684  0.2965
 3811TIP3    H135628   6.556   0.269  17.743 -2.4888  0.7449 -1.1007
 3811TIP3    H235629   6.534   0.396  17.822 -0.8430 -0.2127  1.0036
 3812TIP3   OH235630   0.838   3.037  19.945 -0.6116  0.1908 -0.1889
 3812TIP3    H135631   0.870   3.126  19.958  0.6550 -0.2721  0.0299
 3812TIP3    H235632   0.849   2.995  20.031  3.5767 -1.5937 -1.3462
 3813TIP3   OH235633   1.962   0.068  19.279 -0.0334  0.0986 -0.5053
 3813TIP3    H135634   1.959   0.093  19.371  0.3576  0.4674 -0.5880
 3813TIP3    H235635   1.872   0.075  19.249 -0.0538  0.6522 -0.3236
 3814TIP3   OH235636   0.570   2.480  17.439  0.1797 -0.0389 -0.6087
 3814TIP3    H135637   0.526   2.555  17.480  0.0547 -2.0004  3.2818
 3814TIP3    H235638   0.554   2.491  17.346 -3.0242  2.7610  0.0822
 3815TIP3   OH235639   2.001   3.379  19.730  1.2602  0.0101 -0.2468
 3815TIP3    H135640   1.965   3.388  19.818  1.8814 -1.2323  0.1707
 3815TIP3    H235641   2.031   3.288  19.726  0.2949 -0.2778 -2.1137
 3816TIP3   OH235642   1.409   4.609  18.231  0.2824 -0.0283 -0.1829
 3816TIP3    H135643   1.367   4.522  18.236  1.1130 -0.3975  0.6302
 3816TIP3    H235644   1.431   4.619  18.139 -1.9462  0.3718 -0.7422
 3817TIP3   OH235645   1.882   3.349  17.893 -0.0074  0.2535 -0.1476
 3817TIP3    H135646   1.955   3.294  17.865 -0.2271  0.5973 -1.4321
 3817TIP3    H235647   1.851   3.308  17.974  2.0212  0.4833  0.8053
 3818TIP3   OH235648   2.190   5.575  19.694  0.1529  0.2901 -0.0805
 3818TIP3    H135649   2.165   5.508  19.757  2.2101  0.7253  1.2824
 3818TIP3    H235650   2.203   5.528  19.612  1.6827 -1.0534  0.8753
 3819TIP3   OH235651   4.863   1.011  16.816  0.5230 -0.2453  0.6176
 3819TIP3    H135652   4.927   0.940  16.808 -0.0992 -0.6714 -1.1804
 3819TIP3    H235653   4.911   1.089  16.788 -0.0653 -0.8128 -2.3020
 3820TIP3   OH235654   3.696   5.647  19.211 -0.3785  0.5012 -0.2528
 3820TIP3    H135655   3.782   5.618  19.241  0.0330  1.2186 -0.6994
 3820TIP3    H235656   3.657   5.569  19.171 -0.1090  0.0674  0.3116
 3821TIP3   OH235657   3.276   5.333  17.133  0.2224  0.6306 -0.1828
 3821TIP3    H135658   3.327   5.254  17.150  0.8235  0.4275 -2.6063
 3821TIP3    H235659   3.239   5.320  17.046 -2.8471  1.4163  0.8699
 3822TIP3   OH235660   5.458   0.939  19.846  0.5253  0.0718 -0.2823
 3822TIP3    H135661   5.413   0.960  19.764 -0.1364 -0.2786 -0.0233
 3822TIP3    H235662   5.409   0.987  19.913  1.0674  0.3656 -0.0918
 3823TIP3   OH235663   2.415   0.808  19.108  0.4225 -0.6274  0.6709
 3823TIP3    H135664   2.409   0.748  19.034 -0.2798 -0.7504  0.8188
 3823TIP3    H235665   2.328   0.847  19.114  0.5209 -0.5030  1.3304
 3824TIP3   OH235666   3.588   6.551  16.427  0.7559 -0.2152 -0.5371
 3824TIP3    H135667   3.575   6.477  16.368 -3.5976 -0.6192  0.5990
 3824TIP3    H235668   3.539   6.623  16.386  0.2524  0.3852  1.0498
 3825TIP3   OH235669   0.687   0.323  16.994 -0.2522 -0.0422  1.0801
 3825TIP3    H135670   0.738   0.290  17.068 -0.2914 -1.0567  0.6553
 3825TIP3    H235671   0.735   0.297  16.916 -0.6101  0.3561  0.7156
 3826TIP3   OH235672   2.143   1.599  17.830 -0.0911  0.3785 -0.1043
 3826TIP3    H135673   2.070   1.592  17.768  0.2584 -1.2485 -0.3940
 3826TIP3    H235674   2.149   1.692  17.851 -1.9687  0.5925 -0.3963
 3827TIP3   OH235675   5.224   3.583  19.386  0.0561  0.4757  0.1476
 3827TIP3    H135676   5.318   3.590  19.404  0.0713  0.7580 -0.0352
 3827TIP3    H235677   5.197   3.503  19.431  0.2835  0.6609  0.6118
 3828TIP3   OH235678   4.650   3.067  17.632  0.1489  0.0165  0.2952
 3828TIP3    H135679   4.665   3.074  17.727 -0.7439  0.0601  0.4420
 3828TIP3    H235680   4.621   3.154  17.605 -2.2565 -0.6351  0.5106
 3829TIP3   OH235681   1.551   1.336  17.859  0.1538  0.2928 -0.3091
 3829TIP3    H135682   1.625   1.395  17.872  1.4061 -1.4794  1.1970
 3829TIP3    H235683   1.514   1.325  17.946 -1.7852  0.9774 -1.0098
 3830TIP3   OH235684   0.129   6.177  17.356  0.4463  0.1493  0.1102
 3830TIP3    H135685   0.035   6.161  17.358  0.4812 -0.2377 -1.1236
 3830TIP3    H235686   0.167   6.105  17.406  0.1792 -0.4127 -0.4906
 3831TIP3   OH235687   5.899   6.594  18.082 -0.7815 -0.5546 -0.1895
 3831TIP3    H135688   5.977   6.538  18.094  0.7300  1.4566 -0.1097
 3831TIP3    H235689   5.890   6.640  18.166 -1.5097 -0.0905 -0.5163
 3832TIP3   OH235690   6.062   4.747  18.942  0.1363 -0.1496  0.0035
 3832TIP3    H135691   6.096   4.837  18.942 -0.5463  0.1290  0.5334
 3832TIP3    H235692   6.133   4.695  18.979  0.1524  0.3486  0.7024
 3833TIP3   OH235693   4.170   4.926  18.292  0.1478  0.0524  0.0676
 3833TIP3    H135694   4.230   4.854  18.273 -0.1747 -0.6096  1.4043
 3833TIP3    H235695   4.163   4.974  18.210  0.2990 -1.4920 -0.8963
 3834TIP3   OH235696   2.955   4.974  17.411  0.0886  0.1186  1.0336
 3834TIP3    H135697   2.950   4.886  17.373  0.4478  0.2436  0.6887
 3834TIP3    H235698   3.041   4.978  17.452 -0.0986  0.1618  1.4272
 3835TIP3   OH235699   3.389   6.277  19.633  0.5812  0.0298 -0.1530
 3835TIP3    H135700   3.463   6.338  19.625  0.5042  0.1432 -0.0180
 3835TIP3    H235701   3.313   6.334  19.647  0.4792 -0.0896 -0.2234
 3836TIP3   OH235702   0.912   5.619  16.870 -0.0307  0.0115 -0.9035
 3836TIP3    H135703   0.938   5.641  16.960 -1.2414  3.3733 -1.2295
 3836TIP3    H235704   0.848   5.548  16.881  0.3530 -0.1264  0.8146
 3837TIP3   OH235705   5.653   4.733  18.801 -0.1622 -0.5247  0.3623
 3837TIP3    H135706   5.713   4.708  18.872  0.8611 -0.9029 -0.6011
 3837TIP3    H235707   5.640   4.652  18.752 -1.0400 -0.3132  0.2408
 3838TIP3   OH235708   6.152   5.204  20.220 -0.0464 -0.2559 -0.1819
 3838TIP3    H135709   6.176   5.115  20.193  1.9544  0.1861 -0.0736
 3838TIP3    H235710   6.067   5.195  20.262 -0.3739 -1.9396 -1.1344
 3839TIP3   OH235711   3.386   5.256  20.118 -0.5381 -0.3368 -0.6267
 3839TIP3    H135712   3.412   5.334  20.167 -2.1396  0.6064 -1.1797
 3839TIP3    H235713   3.461   5.236  20.062 -0.1811  0.9624 -0.6402
 3840TIP3   OH235714   2.172   5.712  19.939  0.1652  0.5479  0.1866
 3840TIP3    H135715   2.209   5.794  19.904  2.1694  0.6949  2.4077
 3840TIP3    H235716   2.178   5.651  19.866  2.5635  1.2902 -0.3347
 3841TIP3   OH235717   5.108   6.283  18.534 -0.1798  0.0292 -0.9446
 3841TIP3    H135718   5.202   6.288  18.546 -0.2040  0.1044 -0.7875
 3841TIP3    H235719   5.075   6.367  18.565 -0.3146 -0.0573 -0.8493
 3842TIP3   OH235720   1.434   6.402  17.727 -1.0218 -0.5279  0.4310
 3842TIP3    H135721   1.372   6.372  17.794 -1.4544 -0.5546  0.0283
 3842TIP3    H235722   1.443   6.496  17.744 -0.4231 -0.6904  1.0860
 3843TIP3   OH235723   0.195   4.129  17.009  0.4249  0.5428 -0.1341
 3843TIP3    H135724   0.105   4.149  16.987  0.6679  1.0352 -0.7014
 3843TIP3    H235725   0.225   4.206  17.058 -0.3018 -0.7692  2.6238
 3844TIP3   OH235726   0.608   6.409  16.935 -0.1244 -0.3440 -0.2478
 3844TIP3    H135727   0.585   6.385  16.845  1.4926 -1.3933 -0.4260
 3844TIP3    H235728   0.532   6.456  16.968 -0.8617 -0.1911 -2.0706
 3845TIP3   OH235729   5.610   1.176  19.129  0.1716  0.4638 -0.3289
 3845TIP3    H135730   5.606   1.117  19.204  0.9428  0.1491 -0.5178
 3845TIP3    H235731   5.544   1.242  19.147  1.3937  1.2941  1.4206
 3846TIP3   OH235732   5.756   1.351  17.364  0.0294 -0.3666 -0.4318
 3846TIP3    H135733   5.713   1.266  17.368  0.2790 -0.4461  1.6053
 3846TIP3    H235734   5.798   1.361  17.449  0.3817  1.6108 -0.7786
 3847TIP3   OH235735   6.054   6.578  17.861  0.5335  0.1126 -0.0402
 3847TIP3    H135736   6.094   6.663  17.845 -1.8117  0.7301 -3.5245
 3847TIP3    H235737   6.001   6.591  17.940  0.4860  1.7579 -0.3153
 3848TIP3   OH235738   3.514   1.976  18.735 -0.1160 -0.0548  0.8873
 3848TIP3    H135739   3.532   2.055  18.684 -0.6874 -0.5028 -0.0408
 3848TIP3    H235740   3.419   1.974  18.743 -0.2287 -1.3824 -0.3558
 3849TIP3   OH235741   6.276   3.299  18.157 -0.3342  0.1334  0.7229
 3849TIP3    H135742   6.340   3.237  18.123  0.4524  1.2525  0.0563
 3849TIP3    H235743   6.257   3.357  18.082  3.1782  4.1344  2.5018
 3850TIP3   OH235744   5.217   4.595  19.342  0.1169  0.3929  0.4720
 3850TIP3    H135745   5.264   4.660  19.394 -0.4426 -0.2976  1.9079
 3850TIP3    H235746   5.256   4.511  19.368 -1.3735 -0.1307  1.1812
 3851TIP3   OH235747   5.724   3.238  19.092 -0.2227  0.1098 -0.3907
 3851TIP3    H135748   5.633   3.267  19.099 -0.6354 -1.2103  0.1047
 3851TIP3    H235749   5.750   3.263  19.003 -1.6382 -0.9808 -1.1570
 3852TIP3   OH235750   5.395   1.187  17.901 -0.0577  0.3317  0.1119
 3852TIP3    H135751   5.400   1.092  17.901  0.4945  0.3555  0.3580
 3852TIP3    H235752   5.411   1.212  17.810 -0.3278  0.1867  0.0234
 3853TIP3   OH235753   4.173   3.877  18.447  0.3562 -0.3449 -0.2914
 3853TIP3    H135754   4.195   3.799  18.497  1.4030  1.2400  1.8804
 3853TIP3    H235755   4.244   3.887  18.384  0.3799 -0.9603 -0.3633
 3854TIP3   OH235756   4.143   6.358  17.967  0.0362 -0.2198  0.4381
 3854TIP3    H135757   4.200   6.310  17.907 -1.4989  0.4527 -1.6842
 3854TIP3    H235758   4.113   6.292  18.029  0.1813 -1.4128 -0.7123
 3855TIP3   OH235759   1.661   2.821  18.708  0.2686  0.6327  0.4852
 3855TIP3    H135760   1.696   2.739  18.745 -1.8744 -0.5725 -0.0061
 3855TIP3    H235761   1.618   2.864  18.782 -3.8048 -1.6620 -0.2321
 3856TIP3   OH235762   3.202   4.414  19.346 -0.2435 -0.3120 -0.1999
 3856TIP3    H135763   3.175   4.326  19.373 -0.4172  0.0490  0.8510
 3856TIP3    H235764   3.294   4.404  19.321  0.0393 -0.5972  0.9140
 3857TIP3   OH235765   5.838   6.070  18.565  0.0921 -0.0039  0.1442
 3857TIP3    H135766   5.852   6.159  18.600  3.7436 -0.2253 -0.3069
 3857TIP3    H235767   5.922   6.047  18.526 -0.7309 -3.7018  0.2279
 3858TIP3   OH235768   5.909   3.241  17.477 -0.0109 -0.7097 -0.6106
 3858TIP3    H135769   5.904   3.164  17.419  0.1996  0.2242 -1.9176
 3858TIP3    H235770   5.952   3.308  17.423 -1.7629  0.8720 -0.1158
 3859TIP3   OH235771   1.584   4.931  18.154  0.0825 -0.7238 -0.0080
 3859TIP3    H135772   1.677   4.933  18.132 -0.1238 -0.3845 -0.9122
 3859TIP3    H235773   1.580   4.886  18.238  1.1882  0.3784  0.6703
 3860TIP3   OH235774   5.826   1.295  20.260 -0.2732  0.3532 -0.3454
 3860TIP3    H135775   5.816   1.267  20.169 -0.6907  0.3778 -0.3124
 3860TIP3    H235776   5.904   1.249  20.291  1.6731  2.6238 -1.5835
 3861TIP3   OH235777   5.916   1.774  18.988 -0.3691 -0.6310 -0.3610
 3861TIP3    H135778   6.011   1.778  18.991 -0.2116 -2.0268 -1.8896
 3861TIP3    H235779   5.890   1.754  19.078  0.6163  1.4030  0.4423
 3862TIP3   OH235780   3.368   2.856  17.618  0.7227 -0.8724  0.2832
 3862TIP3    H135781   3.280   2.825  17.596  0.9556 -1.6761  0.4561
 3862TIP3    H235782   3.353   2.928  17.679  0.1973 -2.7045  2.4777
 3863TIP3   OH235783   3.121   4.847  18.198 -0.1555 -0.1443 -0.1280
 3863TIP3    H135784   3.169   4.915  18.246  0.4983 -0.9238  0.3434
 3863TIP3    H235785   3.189   4.797  18.153 -0.4645 -1.5807  0.9462
 3864TIP3   OH235786   2.102   0.722  18.079  0.5788  0.1387 -0.4105
 3864TIP3    H135787   2.071   0.676  18.157 -0.9076 -1.2212 -1.7246
 3864TIP3    H235788   2.183   0.677  18.055  2.7329  2.4348  1.9021
 3865TIP3   OH235789   1.097   1.794  18.303 -0.1859 -0.3339 -0.4122
 3865TIP3    H135790   1.130   1.716  18.347  1.8801  0.0332 -1.2015
 3865TIP3    H235791   1.002   1.781  18.301 -0.0475 -2.0363  0.9041
 3866TIP3   OH235792   3.748   3.897  19.422  0.2932  0.5229  0.4734
 3866TIP3    H135793   3.842   3.899  19.403 -0.0342 -1.3264 -1.7348
 3866TIP3    H235794   3.731   3.807  19.450 -1.1145  0.1314 -1.3914
 3867TIP3   OH235795   3.346   3.660  17.044  0.0269  0.6937  0.4160
 3867TIP3    H135796   3.283   3.590  17.059 -0.5568  0.7569 -1.5619
 3867TIP3    H235797   3.293   3.736  17.019  0.7607  1.3863  0.9035
 3868TIP3   OH235798   6.557   6.416  17.558  0.2846 -0.0227 -0.4720
 3868TIP3    H135799   6.648   6.433  17.533  0.7388 -1.8436 -0.1959
 3868TIP3    H235800   6.515   6.388  17.477  1.0001 -2.9591  0.0501
 3869TIP3   OH235801   1.959   3.372  19.097  0.5027 -0.4435 -0.2735
 3869TIP3    H135802   1.934   3.337  19.183  1.5591  0.5391  0.4658
 3869TIP3    H235803   1.986   3.296  19.046  0.5465 -0.9629  0.5119
 3870TIP3   OH235804   5.931   5.009  18.184  0.1218  0.0938 -0.0947
 3870TIP3    H135805   5.844   4.973  18.171  0.6611 -1.5756  0.5979
 3870TIP3    H235806   5.977   4.992  18.102  1.0487 -2.9928  0.9293
 3871TIP3   OH235807   5.896   6.550  20.043  0.3104  0.4004  0.2990
 3871TIP3    H135808   5.831   6.576  20.108 -0.6580 -2.2082  0.4909
 3871TIP3    H235809   5.980   6.559  20.087 -0.1205  1.2226  0.9763
 3872TIP3   OH235810   3.199   3.527  18.040 -0.1564 -0.6598 -0.2785
 3872TIP3    H135811   3.264   3.554  18.105 -0.6297 -1.2807  0.4672
 3872TIP3    H235812   3.215   3.434  18.027 -0.3736 -0.6425 -0.7109
 3873TIP3   OH235813   3.921   0.833  16.117 -0.2142 -0.1095  0.1975
 3873TIP3    H135814   3.882   0.846  16.203 -0.0434  1.3954  0.0797
 3873TIP3    H235815   3.992   0.771  16.132 -0.1855  0.1365  1.1437
 3874TIP3   OH235816   2.151   4.989  16.532 -0.2793 -0.6477  0.0491
 3874TIP3    H135817   2.107   5.046  16.596  1.8035  0.9894  0.1393
 3874TIP3    H235818   2.231   4.961  16.576  0.5348 -0.5922 -1.3529
 3875TIP3   OH235819   5.140   4.885  18.931 -0.2270 -0.4004 -0.7123
 3875TIP3    H135820   5.186   4.801  18.929  1.9856  0.7328 -2.0301
 3875TIP3    H235821   5.128   4.908  18.838 -1.7227  0.2826 -0.3833
 3876TIP3   OH235822   3.554   3.739  19.705 -0.4868 -0.1571  0.3663
 3876TIP3    H135823   3.523   3.756  19.616 -1.6825 -1.1000  0.5803
 3876TIP3    H235824   3.521   3.812  19.756  0.9243  0.8504 -0.0729
 3877TIP3   OH235825   6.475   1.622  18.665  0.3374  0.1398  0.5805
 3877TIP3    H135826   6.550   1.654  18.615  1.5613 -1.4783  1.2577
 3877TIP3    H235827   6.500   1.637  18.757  0.4244 -1.5202  0.8625
 3878TIP3   OH235828   3.919   2.837  18.290 -0.2001 -0.0674 -0.6106
 3878TIP3    H135829   3.876   2.751  18.290 -1.3795  0.4803  0.4242
 3878TIP3    H235830   4.010   2.819  18.268 -0.2872 -1.6571  0.1971
 3879TIP3   OH235831   4.918   3.798  18.056  0.7255  0.2737 -0.0924
 3879TIP3    H135832   4.948   3.819  17.967  1.6222 -0.6038 -0.0166
 3879TIP3    H235833   4.920   3.702  18.059  1.1956  0.3105  1.0373
 3880TIP3   OH235834   4.373   0.155  17.890  0.5375 -0.2843 -0.0073
 3880TIP3    H135835   4.308   0.089  17.864  1.7473 -2.4394  2.0860
 3880TIP3    H235836   4.320   0.228  17.924 -0.8081 -0.5429 -1.4069
 3881TIP3   OH235837   0.988   2.531  18.073 -0.2176  0.2014  0.2081
 3881TIP3    H135838   0.950   2.525  17.985 -0.9267 -0.3990  0.5455
 3881TIP3    H235839   0.913   2.530  18.132  0.2757  0.1153  0.8412
 3882TIP3   OH235840   2.201   4.514  19.392 -0.0792  0.0783  0.0345
 3882TIP3    H135841   2.128   4.531  19.332 -0.5841  0.2942  0.7099
 3882TIP3    H235842   2.256   4.451  19.345  0.1359  1.1031 -1.1577
 3883TIP3   OH235843   3.982   2.807  19.181  0.0181  0.0178  0.1276
 3883TIP3    H135844   3.971   2.853  19.263  2.2990 -1.1983  1.1960
 3883TIP3    H235845   4.057   2.749  19.195 -0.1107 -0.9348 -2.4940
 3884TIP3   OH235846   0.176   4.613  16.756  0.1695 -0.1988 -0.2900
 3884TIP3    H135847   0.236   4.596  16.683 -1.2324 -0.7708 -1.3449
 3884TIP3    H235848   0.138   4.528  16.777  1.6335 -0.3615  2.1786
 3885TIP3   OH235849   1.973   5.646  17.370  0.0232  0.5436  0.1067
 3885TIP3    H135850   1.920   5.613  17.442 -0.5764  2.6530  0.6850
 3885TIP3    H235851   1.934   5.606  17.292 -0.7497  0.0295  0.7420
 3886TIP3   OH235852   0.668   0.801  19.475 -0.0008 -0.1601  0.6156
 3886TIP3    H135853   0.640   0.816  19.385 -0.9745  0.1984  0.9587
 3886TIP3    H235854   0.620   0.867  19.526 -0.9165 -1.5305  1.6082
 3887TIP3   OH235855   4.488   2.163  19.739 -0.3375 -0.6211  0.2134
 3887TIP3    H135856   4.483   2.092  19.803  1.4800 -0.3959  0.6836
 3887TIP3    H235857   4.504   2.119  19.656 -0.8650 -0.8279  0.2170
 3888TIP3   OH235858   0.686   1.866  17.759 -0.2255  0.1867 -0.1132
 3888TIP3    H135859   0.727   1.935  17.812 -2.5599  0.7055  1.1644
 3888TIP3    H235860   0.619   1.912  17.708  1.1290 -0.5168 -2.7146
 3889TIP3   OH235861   1.059   3.910  16.613  0.3989 -0.5093 -0.4047
 3889TIP3    H135862   0.981   3.903  16.668 -0.6040  0.3193 -1.6616
 3889TIP3    H235863   1.036   3.975  16.546  1.8580 -0.8885 -1.3306
 3890TIP3   OH235864   3.255   3.893  19.663  0.0703 -0.3969 -0.1320
 3890TIP3    H135865   3.285   3.803  19.652  0.2216 -0.1364 -2.3869
 3890TIP3    H235866   3.171   3.896  19.618 -0.4589  0.3400  0.8737
 3891TIP3   OH235867   1.715   6.356  19.592 -0.3288 -0.5715  0.2341
 3891TIP3    H135868   1.653   6.305  19.540  0.0093 -0.4719 -0.2636
 3891TIP3    H235869   1.663   6.385  19.667 -1.2523  0.6299 -0.8341
 3892TIP3   OH235870   5.382   4.826  18.012  0.3378  0.5547  0.0757
 3892TIP3    H135871   5.441   4.795  18.081  1.5439  0.2787 -1.0434
 3892TIP3    H235872   5.372   4.750  17.955 -1.8309  0.3171  0.6803
 3893TIP3   OH235873   5.630   4.160  18.475 -0.3794  0.0796  0.2648
 3893TIP3    H135874   5.611   4.067  18.480 -0.5145  0.0067 -1.1462
 3893TIP3    H235875   5.544   4.202  18.467 -0.2664  0.2045 -0.3969
 3894TIP3   OH235876   3.040   3.780  19.234 -0.7038  0.1121  0.6843
 3894TIP3    H135877   2.994   3.797  19.151 -0.5124  0.3566  0.6230
 3894TIP3    H235878   3.131   3.802  19.215 -0.7812  0.9052  1.1701
 3895TIP3   OH235879   3.127   3.558  18.983  0.7504 -0.0552  0.1313
 3895TIP3    H135880   3.178   3.509  19.047  0.4378  0.4216  0.7586
 3895TIP3    H235881   3.162   3.531  18.898  1.1043 -0.7680  0.4972
 3896TIP3   OH235882   5.341   5.503  19.827 -0.4533  0.2306 -0.2953
 3896TIP3    H135883   5.375   5.577  19.776 -0.7007 -0.3240 -1.2712
 3896TIP3    H235884   5.372   5.520  19.916 -0.1439  1.2896 -0.5898
 3897TIP3   OH235885   3.217   3.417  17.089 -0.1235 -0.2405 -0.2635
 3897TIP3    H135886   3.129   3.380  17.081 -0.3870  0.2305  0.4120
 3897TIP3    H235887   3.238   3.409  17.182  0.5258 -0.2920 -0.4102
 3898TIP3   OH235888   5.100   5.389  19.287  0.7748  0.4807 -0.2304
 3898TIP3    H135889   5.093   5.477  19.249  0.6949  0.3740 -0.4652
 3898TIP3    H235890   5.055   5.395  19.371  2.0841  1.0652  0.4544
 3899TIP3   OH235891   0.907   2.292  18.513 -0.3960  0.5849 -0.0091
 3899TIP3    H135892   0.855   2.340  18.577 -1.2894  0.4634 -0.6323
 3899TIP3    H235893   0.865   2.206  18.506 -0.2354  0.5490 -0.6526
 3900TIP3   OH235894   0.333   6.474  19.427 -0.0621  0.3192  0.0746
 3900TIP3    H135895   0.328   6.386  19.462  0.6814  0.2515  0.0314
 3900TIP3    H235896   0.410   6.473  19.370 -0.0132  1.0043  0.1180
 3901TIP3   OH235897   1.274   2.341  17.826 -0.4595  0.1110 -0.2434
 3901TIP3    H135898   1.359   2.330  17.869 -1.3866 -1.0854  1.3642
 3901TIP3    H235899   1.230   2.410  17.875 -0.7484  0.1461 -0.5456
 3902TIP3   OH235900   3.807   3.990  18.596 -0.1295  0.2491 -0.2927
 3902TIP3    H135901   3.818   3.976  18.502  0.3641 -0.1822 -0.1773
 3902TIP3    H235902   3.885   4.038  18.623 -0.5553  0.9034 -0.2039
 3903TIP3   OH235903   2.484   1.026  16.741 -0.0413  0.4353  0.1902
 3903TIP3    H135904   2.568   1.005  16.699 -0.3120  2.7238 -1.7113
 3903TIP3    H235905   2.505   1.096  16.803 -0.4415  0.5564  0.1883
 3904TIP3   OH235906   0.466   6.341  18.652 -0.0826  0.2735 -0.8666
 3904TIP3    H135907   0.465   6.247  18.669 -0.7566  0.2116 -1.1975
 3904TIP3    H235908   0.471   6.348  18.557 -1.0504  0.5500 -0.9074
 3905TIP3   OH235909   1.426   2.039  18.654  0.0728  0.8049  0.7930
 3905TIP3    H135910   1.405   1.953  18.690 -1.9603 -0.5359 -3.0249
 3905TIP3    H235911   1.516   2.031  18.623 -0.0619  0.0513  0.5826
 3906TIP3   OH235912   4.602   6.107  19.108  0.4527  0.2015 -0.7037
 3906TIP3    H135913   4.689   6.123  19.144  0.2640 -0.1236 -0.1018
 3906TIP3    H235914   4.617   6.048  19.034  0.6961 -0.2153 -0.3262
 3907TIP3   OH235915   5.035   3.587  19.885 -0.5862 -0.6304 -0.2337
 3907TIP3    H135916   4.951   3.601  19.929 -1.2966 -1.6016 -1.2177
 3907TIP3    H235917   5.035   3.494  19.864  1.9109 -1.2391  2.0412
 3908TIP3   OH235918   5.756   3.817  16.453  0.2210  0.1702  0.5586
 3908TIP3    H135919   5.696   3.834  16.380  1.6205  0.1509 -0.6550
 3908TIP3    H235920   5.805   3.898  16.464  0.6083 -0.1047  0.9020
 3909TIP3   OH235921   1.455   1.679  18.630 -0.7731  1.0657  0.4228
 3909TIP3    H135922   1.456   1.620  18.706 -2.8597  0.2983 -0.0655
 3909TIP3    H235923   1.434   1.765  18.667  0.1703  1.1088  0.8997
 3910TIP3   OH235924   0.241   3.473  18.816  0.5798  0.0301  0.0336
 3910TIP3    H135925   0.167   3.534  18.817  0.1598 -0.4743  1.2205
 3910TIP3    H235926   0.282   3.486  18.730 -0.3874  0.9078 -0.3097
 3911TIP3   OH235927   3.379   2.262  18.778  1.0573 -0.4621 -0.6653
 3911TIP3    H135928   3.419   2.317  18.710  1.0299 -0.4538 -0.6746
 3911TIP3    H235929   3.369   2.320  18.853  1.2371 -0.5143 -0.6005
 3912TIP3   OH235930   1.051   2.963  20.331 -0.4071 -0.1339 -0.0020
 3912TIP3    H135931   1.119   3.005  20.278 -0.1586 -1.1096 -0.4867
 3912TIP3    H235932   1.024   3.030  20.393 -1.5050  1.4383 -2.0646
 3913TIP3   OH235933   5.865   5.101  17.634 -0.1015  0.0082  0.6629
 3913TIP3    H135934   5.866   5.036  17.704  0.2494  1.4405  2.0500
 3913TIP3    H235935   5.774   5.102  17.604 -0.3534 -0.3406  1.3872
 3914TIP3   OH235936   1.664   0.358  19.378  0.0927  0.0398 -0.4198
 3914TIP3    H135937   1.608   0.413  19.433  2.1303  0.6676  1.1496
 3914TIP3    H235938   1.649   0.390  19.289 -1.7607  0.3840 -0.0240
 3915TIP3   OH235939   1.618   3.134  19.008  0.6077  0.1633  0.2380
 3915TIP3    H135940   1.582   3.136  19.097  0.4974  1.3690  0.1849
 3915TIP3    H235941   1.548   3.170  18.953  0.6920 -0.5346 -0.3391
 3916TIP3   OH235942   2.505   6.261  19.385 -0.4396 -0.2263  0.1233
 3916TIP3    H135943   2.529   6.212  19.464 -1.5071  0.3717  0.8407
 3916TIP3    H235944   2.476   6.193  19.323 -1.2749 -0.5787  0.8765
 3917TIP3   OH235945   2.574   5.065  18.621 -0.2520  0.0609  0.2498
 3917TIP3    H135946   2.581   4.972  18.601  1.1267  0.5269 -1.6714
 3917TIP3    H235947   2.665   5.096  18.624 -0.6350  1.1653  1.9302
 3918TIP3   OH235948   4.150   1.032  19.023  0.3502  0.5790 -0.3269
 3918TIP3    H135949   4.182   1.118  18.999  1.6813 -0.0466 -0.9088
 3918TIP3    H235950   4.096   1.004  18.949  2.0459 -0.1313 -1.3461
 3919TIP3   OH235951   1.560   1.023  19.640 -0.4094  0.1590  0.6384
 3919TIP3    H135952   1.593   1.100  19.687  0.2989  1.2295 -1.5010
 3919TIP3    H235953   1.627   1.004  19.575 -2.0358 -0.2875 -0.9809
 3920TIP3   OH235954   2.944   5.935  19.426  0.2876  0.2813  0.8274
 3920TIP3    H135955   2.878   5.999  19.399  0.2789  0.2970  0.8867
 3920TIP3    H235956   2.969   5.892  19.344  1.2452  1.2490  0.5865
 3921TIP3   OH235957   1.174   0.834  16.632  0.1995 -0.0274 -0.0924
 3921TIP3    H135958   1.169   0.741  16.657  0.0916  0.1134  0.4415
 3921TIP3    H235959   1.173   0.834  16.537  0.5102 -0.5916 -0.0997
 3922TIP3   OH235960   4.725   3.589  17.071  0.0875 -0.2982 -0.1543
 3922TIP3    H135961   4.684   3.675  17.059 -1.1838 -0.8978 -0.2971
 3922TIP3    H235962   4.652   3.530  17.091  1.0456 -1.1733  0.9172
 3923TIP3   OH235963   3.924   2.667  18.741 -0.7269 -0.3643 -0.0216
 3923TIP3    H135964   4.011   2.679  18.705  0.6428 -1.4739  2.6491
 3923TIP3    H235965   3.889   2.590  18.695  1.1741 -2.0685  1.2121
 3924TIP3   OH235966   3.951   1.725  17.299 -0.0493 -0.2071 -0.3052
 3924TIP3    H135967   3.906   1.805  17.274 -0.9099 -0.7454 -0.5507
 3924TIP3    H235968   3.961   1.677  17.216 -0.6137 -0.8695 -0.0054
 3925TIP3   OH235969   2.926   1.586  18.229 -0.2327 -0.2795  0.5275
 3925TIP3    H135970   2.916   1.680  18.248  1.4363  0.0691 -0.1580
 3925TIP3    H235971   2.940   1.546  18.315 -0.4988  0.1638  0.7813
 3926TIP3   OH235972   3.643   6.235  16.612 -0.2004 -0.2177  0.1374
 3926TIP3    H135973   3.672   6.160  16.663  0.1045  0.1818  0.5519
 3926TIP3    H235974   3.565   6.204  16.566  0.5634 -1.1443 -0.5908
 3927TIP3   OH235975   5.768   4.835  16.480  0.3432  0.8487  0.3297
 3927TIP3    H135976   5.855   4.839  16.521  0.5321  0.6362 -0.0492
 3927TIP3    H235977   5.739   4.745  16.496  0.4413  0.7477 -0.0436
 3928TIP3   OH235978   1.134   3.654  19.674  0.5060 -0.2916 -0.2950
 3928TIP3    H135979   1.124   3.630  19.582  2.3863 -0.1868 -0.5741
 3928TIP3    H235980   1.205   3.598  19.706 -0.0261 -0.2294  1.0659
 3929TIP3   OH235981   4.988   1.027  17.854 -0.6131 -0.1721 -0.1984
 3929TIP3    H135982   4.913   1.000  17.907 -2.1914  0.6945 -1.8785
 3929TIP3    H235983   5.037   0.946  17.838 -1.9333 -1.0010 -0.1748
 3930TIP3   OH235984   3.508   0.899  18.482 -0.2890 -0.4316  0.1697
 3930TIP3    H135985   3.552   0.861  18.559 -0.8854  0.9773  1.2395
 3930TIP3    H235986   3.571   0.887  18.411  0.9749 -0.3184  1.2311
 3931TIP3   OH235987   2.988   2.449  20.103 -0.5579  0.0483  0.8936
 3931TIP3    H135988   3.043   2.401  20.166 -0.9076  0.3768  1.4594
 3931TIP3    H235989   2.920   2.387  20.078  1.0116 -0.9784 -1.1604
 3932TIP3   OH235990   2.333   3.251  19.535  0.1150 -0.0641  0.5632
 3932TIP3    H135991   2.279   3.200  19.594 -1.1378  0.6506  0.0758
 3932TIP3    H235992   2.318   3.342  19.560  0.6072  0.1811  0.0121
 3933TIP3   OH235993   4.582   6.148  19.545  0.0212  0.3846  0.2343
 3933TIP3    H135994   4.542   6.122  19.462 -0.5058 -0.7154  0.8050
 3933TIP3    H235995   4.566   6.242  19.551  0.1988  0.5191 -0.9607
 3934TIP3   OH235996   4.841   3.482  18.637 -0.0393  0.3548  0.5635
 3934TIP3    H135997   4.796   3.566  18.648  0.2266  0.3389  1.8571
 3934TIP3    H235998   4.854   3.449  18.726 -2.5012 -2.3621  0.0671
 3935TIP3   OH235999   5.533   1.587  19.024  0.0278  0.2916 -0.1409
 3935TIP3    H136000   5.485   1.508  19.049  1.6764 -0.6563  0.1916
 3935TIP3    H236001   5.615   1.582  19.074  1.0526  1.1390 -1.6535
 3936TIP3   OH236002   0.071   0.201  19.833 -0.2056  0.0402 -0.0577
 3936TIP3    H136003   0.074   0.287  19.873  0.8794 -0.3977  0.8622
 3936TIP3    H236004   0.087   0.218  19.740  2.8191  0.6740  0.4496
 3937TIP3   OH236005   2.649   3.736  19.640 -0.0456  0.0372  0.0443
 3937TIP3    H136006   2.729   3.712  19.593 -0.5581  0.4897 -1.0837
 3937TIP3    H236007   2.680   3.762  19.727  1.0349  0.1485 -0.3532
 3938TIP3   OH236008   6.567   5.350  19.102 -0.1550 -0.2706 -0.0860
 3938TIP3    H136009   6.585   5.382  19.014 -1.8217 -1.3124 -0.8626
 3938TIP3    H236010   6.653   5.337  19.141  0.6056  0.7167 -1.3596
 3939TIP3   OH236011   0.789   4.343  17.273 -0.1790  0.0067 -0.2880
 3939TIP3    H136012   0.761   4.429  17.242  0.6029 -0.4118 -2.3028
 3939TIP3    H236013   0.849   4.311  17.206  2.9147 -0.3694  2.4125
 3940TIP3   OH236014   2.097   0.815  17.558  0.0590  0.3215 -0.7948
 3940TIP3    H136015   2.147   0.757  17.615 -0.0929  0.9967  0.0495
 3940TIP3    H236016   2.073   0.889  17.614 -1.6172  0.1630 -1.2610
 3941TIP3   OH236017   0.019   2.906  19.267 -0.3023 -0.4496  0.4189
 3941TIP3    H136018   0.060   2.990  19.244 -1.4649  0.4020  1.3077
 3941TIP3    H236019   0.088   2.856  19.309  0.5813 -0.2005 -0.6777
 3942TIP3   OH236020   1.919   1.391  18.899  0.0202  0.2916  0.3588
 3942TIP3    H136021   1.910   1.461  18.835 -1.3480  0.2568  0.4960
 3942TIP3    H236022   1.901   1.311  18.850 -1.2230  0.2797  0.8096
 3943TIP3   OH236023   0.284   1.089  16.823  0.2804 -0.3248 -0.1335
 3943TIP3    H136024   0.299   0.997  16.848  0.2439 -0.4433 -0.5433
 3943TIP3    H236025   0.368   1.132  16.840  0.6862 -0.6979 -1.1030
 3944TIP3   OH236026   4.195   6.516  18.371 -0.1202  0.5954  0.2741
 3944TIP3    H136027   4.289   6.504  18.376 -0.2969 -1.5208 -0.7088
 3944TIP3    H236028   4.182   6.609  18.391  2.0071  0.5950  1.9700
 3945TIP3   OH236029   4.849   0.900  17.316  0.1259  0.3172 -0.0006
 3945TIP3    H136030   4.893   0.929  17.236 -0.9428 -0.0846 -0.7652
 3945TIP3    H236031   4.914   0.848  17.363  0.3637 -0.5607 -1.2641
 3946TIP3   OH236032   3.509   0.160  18.479  0.7206  0.7568 -0.3922
 3946TIP3    H136033   3.527   0.085  18.422  0.7341  0.1678  0.3826
 3946TIP3    H236034   3.596   0.193  18.503  0.7704 -0.2734  0.9513
 3947TIP3   OH236035   2.096   3.382  17.311  0.7200 -0.3493 -0.5784
 3947TIP3    H136036   2.070   3.453  17.370 -2.0270  1.4215 -3.5951
 3947TIP3    H236037   2.187   3.400  17.290  0.5689  1.3233  0.0423
 3948TIP3   OH236038   4.626   1.144  17.442 -0.0626 -0.3734  0.1143
 3948TIP3    H136039   4.698   1.093  17.479  1.8411  1.9926 -0.1030
 3948TIP3    H236040   4.628   1.122  17.348 -1.1755 -2.0380  0.4427
 3949TIP3   OH236041   0.321   6.089  19.981 -0.5962  0.2050 -0.6328
 3949TIP3    H136042   0.315   6.160  20.045 -1.0382  0.2967 -0.7731
 3949TIP3    H236043   0.239   6.094  19.932 -0.8934 -0.7757 -0.2531
 3950TIP3   OH236044   3.959   2.444  17.167  0.0240 -0.4142  0.3650
 3950TIP3    H136045   3.914   2.397  17.237  0.0583  0.8126  1.2329
 3950TIP3    H236046   4.049   2.412  17.170 -0.4687 -2.0068 -0.6100
 3951TIP3   OH236047   6.095   4.820  17.655  0.7867 -0.5774  0.0202
 3951TIP3    H136048   6.020   4.768  17.685  0.6840 -0.2030  0.4219
 3951TIP3    H236049   6.153   4.823  17.731  0.8082 -0.1386 -0.0125
 3952TIP3   OH236050   1.793   3.451  17.281  0.6386  0.2031 -0.0394
 3952TIP3    H136051   1.811   3.510  17.209 -0.9815  0.9088  0.1144
 3952TIP3    H236052   1.788   3.364  17.241  2.4978  0.1848 -0.3335
 3953TIP3   OH236053   1.240   0.335  17.281  0.5596  0.0944  0.1351
 3953TIP3    H136054   1.213   0.258  17.231  0.9527 -0.5778  0.9179
 3953TIP3    H236055   1.172   0.346  17.348  0.6938  0.1967  0.2565
 3954TIP3   OH236056   3.121   3.520  19.381  0.3535 -0.1552 -0.0396
 3954TIP3    H136057   3.113   3.540  19.474  1.1374 -0.7563  0.1735
 3954TIP3    H236058   3.126   3.605  19.338  0.2482  0.1258  0.4994
 3955TIP3   OH236059   5.836   2.379  17.457  0.5427  0.3416  0.6673
 3955TIP3    H136060   5.913   2.395  17.511 -0.0416  0.2954  1.5406
 3955TIP3    H236061   5.766   2.363  17.520 -0.1069  0.0425 -0.1151
 3956TIP3   OH236062   5.508   5.509  17.444 -0.1586 -1.0084  0.4575
 3956TIP3    H136063   5.471   5.428  17.408 -1.4234 -0.9020  1.4538
 3956TIP3    H236064   5.446   5.535  17.512  0.7618  0.2622  0.8350
 3957TIP3   OH236065   0.600   3.113  20.188  0.0629 -0.0452  0.6482
 3957TIP3    H136066   0.656   3.036  20.175 -0.0636  0.0489 -0.4944
 3957TIP3    H236067   0.656   3.174  20.236  0.2881 -0.6949  1.2374
 3958TIP3   OH236068   5.539   6.226  20.384 -0.4067  0.2496 -0.0067
 3958TIP3    H136069   5.626   6.231  20.344  1.0922 -0.4993  2.9053
 3958TIP3    H236070   5.499   6.311  20.364  0.8830  0.5400 -1.5544
 3959TIP3   OH236071   3.441   6.535  19.305 -0.7109  0.2830  0.3026
 3959TIP3    H136072   3.490   6.606  19.264  0.6630  0.0294  1.4218
 3959TIP3    H236073   3.439   6.558  19.398 -1.5160 -0.4317  0.4810
 3960TIP3   OH236074   2.087   5.012  19.946 -0.3626 -0.0962 -0.7830
 3960TIP3    H136075   2.080   5.010  19.851 -2.8583  1.1958 -0.7126
 3960TIP3    H236076   2.089   4.920  19.972 -2.5163 -0.5492 -1.9896
 3961TIP3   OH236077   6.126   3.511  20.284  0.0466 -0.1284 -0.3736
 3961TIP3    H136078   6.036   3.485  20.269 -0.2707  0.2447  0.8018
 3961TIP3    H236079   6.123   3.607  20.287  0.6716 -0.0596 -1.4310
 3962TIP3   OH236080   0.266   5.588  17.876  0.1712 -0.1027 -0.2002
 3962TIP3    H136081   0.189   5.637  17.848  0.7451  1.1238  0.3175
 3962TIP3    H236082   0.293   5.629  17.957  2.1331  0.3463 -1.0175
 3963TIP3   OH236083   1.149   6.118  16.915  0.4305 -0.0836 -0.3404
 3963TIP3    H136084   1.141   6.213  16.918 -0.9420  0.0022 -3.0493
 3963TIP3    H236085   1.084   6.087  16.978  1.1747  0.7292  0.8705
 3964TIP3   OH236086   3.393   0.476  18.654  0.2224 -0.2189  0.1875
 3964TIP3    H136087   3.434   0.531  18.587 -0.3752 -1.0306 -0.8721
 3964TIP3    H236088   3.299   0.484  18.638  0.1108 -1.1659  0.3211
 3965TIP3   OH236089   4.166   2.019  17.666 -0.0338 -0.0681 -0.8193
 3965TIP3    H136090   4.124   2.026  17.580  1.4355  0.2747 -1.5505
 3965TIP3    H236091   4.240   2.080  17.661 -0.5371  0.7899  1.1004
 3966TIP3   OH236092   3.234   3.970  18.253  0.2330 -0.0728  0.0710
 3966TIP3    H136093   3.247   4.009  18.167  0.1076 -0.4694 -0.1308
 3966TIP3    H236094   3.290   3.892  18.251 -1.9957 -1.7500 -0.7556
 3967TIP3   OH236095   4.731   3.583  19.043 -0.1346 -0.2905 -0.1367
 3967TIP3    H136096   4.684   3.618  18.967 -0.8913 -0.5606  0.1962
 3967TIP3    H236097   4.791   3.653  19.069 -1.3760  0.6468  0.3149
 3968TIP3   OH236098   3.738   0.388  17.793 -0.1842 -0.2507 -0.2351
 3968TIP3    H136099   3.706   0.304  17.761  0.0996 -0.4925  0.1026
 3968TIP3    H236100   3.830   0.390  17.767  0.2428 -0.7656  1.1612
 3969TIP3   OH236101   0.378   3.350  17.649  0.0765  0.1197  0.9138
 3969TIP3    H136102   0.361   3.274  17.705 -1.8080  0.5334  0.9869
 3969TIP3    H236103   0.398   3.420  17.710 -0.7411  0.2733  1.0184
 3970TIP3   OH236104   3.741   4.152  17.095  0.5278 -0.9472  0.1393
 3970TIP3    H136105   3.825   4.166  17.052  1.0232  1.0055  1.5825
 3970TIP3    H236106   3.763   4.144  17.188 -0.8267 -0.7819  0.4921
 3971TIP3   OH236107   2.382   5.557  16.522  0.4567 -1.3444 -0.3935
 3971TIP3    H136108   2.461   5.530  16.571  1.7325  0.9759 -1.0179
 3971TIP3    H236109   2.341   5.622  16.579  0.6939 -0.3176 -1.3689
 3972TIP3   OH236110   0.409   0.608  20.086  0.0393 -1.0121  0.0182
 3972TIP3    H136111   0.503   0.620  20.072 -0.3523 -0.5146 -2.6236
 3972TIP3    H236112   0.403   0.533  20.146  2.0970 -1.2902 -0.0575
 3973TIP3   OH236113   0.518   3.381  18.864 -0.6618  0.5931 -0.0838
 3973TIP3    H136114   0.457   3.453  18.849 -0.9319  0.4611  0.3585
 3973TIP3    H236115   0.539   3.387  18.957  0.5978  1.1026 -0.3662
 3974TIP3   OH236116   4.220   1.274  19.488  0.1137  0.1595 -0.0305
 3974TIP3    H136117   4.187   1.189  19.515  1.6577  0.2449  2.3490
 3974TIP3    H236118   4.152   1.336  19.516 -0.5035 -0.1598 -0.7804
 3975TIP3   OH236119   5.917   4.354  20.444  0.0459  0.9796 -0.2936
 3975TIP3    H136120   5.853   4.322  20.380  0.0619  1.9532 -0.8100
 3975TIP3    H236121   5.909   4.449  20.441  0.8491  1.0797  0.3380
 3976TIP3   OH236122   4.424   3.696  17.332  0.1535  0.3412  0.0148
 3976TIP3    H136123   4.520   3.695  17.336  0.1291  0.0620  0.6242
 3976TIP3    H236124   4.403   3.784  17.301  0.6216  0.2393 -0.6094
 3977TIP3   OH236125   4.855   6.145  16.801 -0.1417 -0.2900  0.3304
 3977TIP3    H136126   4.824   6.112  16.717 -0.6005  0.9686 -0.0075
 3977TIP3    H236127   4.787   6.118  16.863 -1.0895  0.9781 -0.1309
 3978TIP3   OH236128   2.291   1.312  18.408 -0.3205  0.3784  0.0078
 3978TIP3    H136129   2.338   1.376  18.462  0.3915  0.1872 -0.3718
 3978TIP3    H236130   2.260   1.247  18.471  0.9635 -0.1299  0.1561
 3979TIP3   OH236131   2.057   0.383  19.065 -0.7727 -1.2433  0.3152
 3979TIP3    H136132   1.969   0.417  19.047 -0.2669  0.3331  0.6570
 3979TIP3    H236133   2.096   0.372  18.978 -0.4555  0.4948  0.2038
 3980TIP3   OH236134   2.009   3.026  18.360  0.4576  0.1864 -0.0497
 3980TIP3    H136135   2.058   3.108  18.349 -0.0082  0.8174  2.0767
 3980TIP3    H236136   1.988   3.024  18.453 -0.1168 -2.0547 -0.1850
 3981TIP3   OH236137   3.256   1.502  19.229 -0.2293  0.1191  0.1284
 3981TIP3    H136138   3.316   1.576  19.239 -0.5209  0.6312 -1.6495
 3981TIP3    H236139   3.287   1.456  19.152 -2.3709  0.7049 -1.1710
 3982TIP3   OH236140   4.740   3.921  17.356  0.2919 -0.2226  0.5447
 3982TIP3    H136141   4.666   3.962  17.401  1.0766 -0.9820  2.6509
 3982TIP3    H236142   4.789   3.993  17.318 -0.8079  0.3874  0.2410
 3983TIP3   OH236143   5.303   2.254  19.798 -0.6558 -0.2077 -0.4089
 3983TIP3    H136144   5.318   2.278  19.889 -1.6790 -0.1717 -0.2418
 3983TIP3    H236145   5.377   2.293  19.751 -0.6072  0.5726  0.2842
 3984TIP3   OH236146   6.150   3.118  19.304  0.2147  0.1115 -0.0966
 3984TIP3    H136147   6.065   3.080  19.281 -0.0178  1.1556 -1.0845
 3984TIP3    H236148   6.213   3.048  19.286 -0.3930 -0.5510  0.2855
 3985TIP3   OH236149   3.916   6.394  18.311 -0.0709  0.1965  0.3305
 3985TIP3    H136150   3.985   6.399  18.377  0.3648 -1.1606  0.0314
 3985TIP3    H236151   3.897   6.485  18.288 -0.0631  0.6893  2.1238
 3986TIP3   OH236152   4.321   4.337  19.992  0.6142 -0.0452 -0.0830
 3986TIP3    H136153   4.335   4.250  19.955 -0.2351  0.0863 -0.7473
 3986TIP3    H236154   4.246   4.372  19.944  0.6709  0.8850  0.4739
 3987TIP3   OH236155   6.605   3.914  19.455 -0.1978  0.2034 -0.5397
 3987TIP3    H136156   6.622   3.851  19.526  2.6533  0.3010 -1.0205
 3987TIP3    H236157   6.627   3.866  19.375  1.0696  1.4561 -0.9853
 3988TIP3   OH236158   5.525   5.492  18.081  0.3979  0.8669  0.1550
 3988TIP3    H136159   5.573   5.409  18.071  1.1266  1.1839  0.9156
 3988TIP3    H236160   5.558   5.547  18.010  0.8177  0.9101  0.3749
 3989TIP3   OH236161   2.731   2.273  17.573 -0.4213 -0.0622  0.2145
 3989TIP3    H136162   2.768   2.362  17.574 -1.3444  0.4202 -2.1192
 3989TIP3    H236163   2.751   2.240  17.486 -2.5493 -1.0459  0.0518
 3990TIP3   OH236164   0.059   3.258  19.804  0.3712  0.6496 -0.3461
 3990TIP3    H136165   0.011   3.331  19.843 -1.3243 -0.4311 -0.3683
 3990TIP3    H236166   0.065   3.281  19.711 -0.2127  0.7152 -0.3658
 3991TIP3   OH236167   0.374   4.907  18.819  0.2729 -0.5560 -0.1133
 3991TIP3    H136168   0.296   4.922  18.765  1.3463  0.3921 -1.4726
 3991TIP3    H236169   0.360   4.961  18.897  0.6967  1.7614 -1.5511
 3992TIP3   OH236170   6.624   2.993  18.811  0.2287  0.6424  0.0037
 3992TIP3    H136171   6.675   2.950  18.880  1.4198  0.0088 -1.2365
 3992TIP3    H236172   6.600   2.922  18.752  0.1851  1.3467 -0.8310
 3993TIP3   OH236173   4.010   1.461  19.114  0.5207  0.5049  0.5522
 3993TIP3    H136174   3.928   1.418  19.139 -0.1221 -0.3732 -2.6695
 3993TIP3    H236175   4.077   1.410  19.160 -0.5786 -0.3857  1.2386
 3994TIP3   OH236176   1.908   2.387  17.920  0.6879 -0.4971  0.7497
 3994TIP3    H136177   1.980   2.358  17.977  1.8161  0.3243 -0.1996
 3994TIP3    H236178   1.940   2.370  17.831 -0.1317  0.2113  0.3035
 3995TIP3   OH236179   2.802   1.739  20.044  0.0048 -0.2042  0.4756
 3995TIP3    H136180   2.843   1.663  20.085 -1.1220 -0.6141  0.8656
 3995TIP3    H236181   2.758   1.704  19.967  0.9671  0.3539 -0.3657
 3996TIP3   OH236182   6.164   1.889  19.688 -0.3187  0.2417 -0.2538
 3996TIP3    H136183   6.234   1.881  19.753  1.5097 -0.0469 -2.1531
 3996TIP3    H236184   6.097   1.940  19.732  0.5979 -0.3737  2.0339
 3997TIP3   OH236185   1.924   6.056  18.375  0.2935  0.5364 -0.1067
 3997TIP3    H136186   1.844   6.082  18.420 -0.5014  0.3583 -1.3727
 3997TIP3    H236187   1.925   6.110  18.296 -0.1425 -1.5361 -1.5971
 3998TIP3   OH236188   2.955   0.242  19.012 -0.0020 -0.3387  0.6005
 3998TIP3    H136189   2.912   0.180  18.953 -2.1351  0.3933  1.2919
 3998TIP3    H236190   3.009   0.187  19.069 -2.1618 -1.6792  1.4764
 3999TIP3   OH236191   1.829   1.269  20.071  0.5700  0.1744  0.6078
 3999TIP3    H136192   1.921   1.247  20.056  0.2534 -0.1448 -1.1000
 3999TIP3    H236193   1.789   1.186  20.097  0.9881  0.5914  2.7795
 4000TIP3   OH236194   3.984   3.051  19.762 -0.0521  0.3962 -0.7816
 4000TIP3    H136195   3.969   3.015  19.849 -0.7252  0.1840 -0.9756
 4000TIP3    H236196   4.057   2.999  19.726 -1.4363 -1.2659 -1.3115
 4001TIP3   OH236197   0.564   0.801  17.689  0.1009  0.3006 -0.2508
 4001TIP3    H136198   0.479   0.780  17.648 -0.5701  2.5376 -0.1026
 4001TIP3    H236199   0.627   0.787  17.619 -0.3636 -1.2949 -0.4015
 4002TIP3   OH236200   2.576   4.597  20.189  0.4548  0.0929  0.5879
 4002TIP3    H136201   2.649   4.575  20.132  0.4212  0.9083  0.2208
 4002TIP3    H236202   2.536   4.674  20.149  1.1694  1.4496  2.3300
 4003TIP3   OH236203   3.666   2.893  19.779 -0.6666  0.2123  0.2494
 4003TIP3    H136204   3.737   2.863  19.723  0.1165 -0.3294  1.4705
 4003TIP3    H236205   3.587   2.852  19.744 -0.6490  1.9116 -1.9594
 4004TIP3   OH236206   0.091   6.496  16.977 -0.1244  0.6129  0.2643
 4004TIP3    H136207   0.015   6.554  16.981 -0.5307  0.1021 -0.0722
 4004TIP3    H236208   0.055   6.409  16.960  0.5099  0.3142  0.4184
 4005TIP3   OH236209   2.001   1.407  19.282  0.2488  0.1703  0.5096
 4005TIP3    H136210   2.069   1.352  19.321  1.1347 -0.1543 -1.4072
 4005TIP3    H236211   2.048   1.469  19.227 -0.9315  0.8515  0.2331
 4006TIP3   OH236212   5.898   3.397  19.287 -0.1585 -0.0318 -0.0976
 4006TIP3    H136213   5.831   3.444  19.337 -0.3646 -0.0574 -0.3519
 4006TIP3    H236214   5.850   3.325  19.245  0.0255 -0.0342 -0.3011
 4007TIP3   OH236215   5.906   1.256  18.395 -0.1486 -0.1220  0.4569
 4007TIP3    H136216   5.979   1.196  18.407  0.7473  0.9967  0.6459
 4007TIP3    H236217   5.886   1.250  18.301 -0.9448 -1.6689  0.6755
 4008TIP3   OH236218   0.051   2.078  19.390 -0.2123  0.2109  0.7751
 4008TIP3    H136219   0.080   2.080  19.481  0.4474 -0.3071  0.5828
 4008TIP3    H236220   0.098   2.003  19.351 -0.7885  0.1811  0.1144
 4009TIP3   OH236221   0.633   3.357  20.013 -0.3370  0.4036  0.5430
 4009TIP3    H136222   0.610   3.275  20.057  1.6826 -0.7762 -0.5202
 4009TIP3    H236223   0.612   3.342  19.921  1.7210  0.3945  0.0482
 4010TIP3   OH236224   6.288   2.433  20.509 -0.2117 -0.0727  0.0148
 4010TIP3    H136225   6.316   2.485  20.434  3.9166  1.2808  2.2060
 4010TIP3    H236226   6.246   2.496  20.567 -0.5871 -0.4726  0.1856
 4011TIP3   OH236227   5.908   1.606  19.903  0.2942 -0.1048  0.1326
 4011TIP3    H136228   5.902   1.701  19.897  1.5956 -0.1081 -2.1938
 4011TIP3    H236229   5.921   1.588  19.997 -1.5077  1.8574  0.8150
 4012TIP3   OH236230   3.759   4.303  19.370 -0.5802 -0.0999  0.0948
 4012TIP3    H136231   3.839   4.257  19.346  0.0967  0.5410  1.0548
 4012TIP3    H236232   3.788   4.375  19.425 -2.0137 -1.4297  2.7712
 4013TIP3   OH236233   6.461   3.735  19.237 -0.7016 -0.0331  0.1213
 4013TIP3    H136234   6.380   3.785  19.249 -0.0260  1.4738 -1.2642
 4013TIP3    H236235   6.451   3.691  19.153  1.0166  2.5789 -1.5998
 4014TIP3   OH236236   2.638   6.069  17.534 -0.3108 -0.1708  0.2090
 4014TIP3    H136237   2.598   6.034  17.454 -1.2821 -0.2917  0.7354
 4014TIP3    H236238   2.604   6.014  17.604  0.7089 -0.2025  0.6921
 4015TIP3   OH236239   5.223   1.407  19.916 -0.4210 -0.5486 -0.3333
 4015TIP3    H136240   5.252   1.340  19.978  0.0454  0.7258  0.8818
 4015TIP3    H236241   5.128   1.394  19.909 -0.4199 -0.9649  0.3324
 4016TIP3   OH236242   4.945   2.748  18.108 -0.0185  0.1689 -0.6079
 4016TIP3    H136243   5.033   2.723  18.078 -0.2271  0.3635 -1.3998
 4016TIP3    H236244   4.899   2.772  18.028 -1.0060 -0.5467 -0.2645
 4017TIP3   OH236245   5.932   4.469  16.597 -0.5931 -0.5909 -0.3847
 4017TIP3    H136246   5.875   4.539  16.565  2.2274  1.7081 -0.7898
 4017TIP3    H236247   6.019   4.491  16.564  0.9594 -2.8121  1.8153
 4018TIP3   OH236248   6.195   4.315  18.023 -0.3800  0.5100  0.0922
 4018TIP3    H136249   6.224   4.405  18.012 -0.8358  0.6865  0.2829
 4018TIP3    H236250   6.099   4.321  18.025 -0.4151  0.0194  0.0840
 4019TIP3   OH236251   3.974   2.997  18.747  0.4347  0.5747  0.0130
 4019TIP3    H136252   3.989   3.013  18.840  0.9467  0.6410 -0.0733
 4019TIP3    H236253   3.930   2.912  18.743  0.1608  0.7027  0.3308
 4020TIP3   OH236254   4.776   4.751  19.683  0.4600 -0.1159 -0.0301
 4020TIP3    H136255   4.857   4.706  19.661 -0.2400 -2.1499  1.2278
 4020TIP3    H236256   4.732   4.764  19.599  2.0219  0.9743 -0.7165
 4021TIP3   OH236257   4.158   0.079  17.197  0.2718  0.4755  0.3257
 4021TIP3    H136258   4.217   0.140  17.154  0.0125  0.8384  0.4765
 4021TIP3    H236259   4.077   0.129  17.209  0.6084  0.6828  2.0280
 4022TIP3   OH236260   5.431   2.168  18.544 -0.4400  0.1169 -0.5004
 4022TIP3    H136261   5.428   2.092  18.602 -0.9787  1.1616  0.9080
 4022TIP3    H236262   5.352   2.217  18.564  1.0172  2.2840  0.4122
 4023TIP3   OH236263   1.565   5.022  17.790 -0.1575 -0.3385  0.0663
 4023TIP3    H136264   1.506   4.998  17.861  0.2500  1.3620  1.0346
 4023TIP3    H236265   1.544   5.113  17.771  1.6037  0.0588 -0.1211
 4024TIP3   OH236266   1.488   5.273  16.582  0.6641 -0.0239 -0.0116
 4024TIP3    H136267   1.513   5.281  16.490 -0.0656  1.2427 -0.1214
 4024TIP3    H236268   1.558   5.222  16.622  1.9251  0.9905 -0.8838
 4025TIP3   OH236269   5.960   1.229  18.779 -0.1087 -0.0959  0.0458
 4025TIP3    H136270   6.005   1.308  18.810  2.2231 -0.9862 -0.8965
 4025TIP3    H236271   5.904   1.204  18.853  0.5022  1.3810  1.0739
 4026TIP3   OH236272   4.630   5.237  19.075 -1.1051 -0.2777  0.1930
 4026TIP3    H136273   4.680   5.270  19.150  1.2624 -0.8435 -1.0264
 4026TIP3    H236274   4.684   5.260  18.999 -2.4670 -1.4228 -1.1731
 4027TIP3   OH236275   2.882   2.065  17.775 -0.4104 -0.4662 -0.0623
 4027TIP3    H136276   2.848   2.074  17.686  0.2873  0.0222 -0.2835
 4027TIP3    H236277   2.807   2.032  17.825 -1.0831  0.1248 -0.6421
 4028TIP3   OH236278   5.086   0.081  20.385  0.3364 -0.0367  0.1466
 4028TIP3    H136279   5.152   0.116  20.445  0.6184 -0.4338  0.0710
 4028TIP3    H236280   5.050   0.158  20.341  1.7045  0.0927 -0.8112
 4029TIP3   OH236281   4.905   6.349  19.246 -0.1436 -0.3962  0.3970
 4029TIP3    H136282   4.926   6.412  19.177 -0.2591  0.2354  0.9217
 4029TIP3    H236283   4.879   6.404  19.320  0.7919 -1.0325  1.2193
 4030TIP3   OH236284   3.133   3.635  17.392 -0.0976 -0.3630 -0.0409
 4030TIP3    H136285   3.069   3.569  17.364 -0.6259 -0.1899  0.7271
 4030TIP3    H236286   3.216   3.588  17.393 -0.2285 -0.6335 -0.8978
 4031TIP3   OH236287   0.791   0.108  19.180  0.1464  0.5830 -0.0320
 4031TIP3    H136288   0.730   0.163  19.131  0.5026  1.1411  0.1433
 4031TIP3    H236289   0.843   0.169  19.232 -1.6409 -0.0874  2.7661
 4032TIP3   OH236290   4.404   0.704  18.670  0.2037  0.5043  0.2217
 4032TIP3    H136291   4.309   0.710  18.666  0.2517  2.4641  0.8665
 4032TIP3    H236292   4.432   0.789  18.704  2.1332 -0.3722  0.9593
 4033TIP3   OH236293   6.128   2.259  19.896 -0.0245 -0.3733 -0.2314
 4033TIP3    H136294   6.146   2.291  19.807  0.4367  0.2283  0.0684
 4033TIP3    H236295   6.122   2.338  19.949  2.0158 -0.7658  0.6957
 4034TIP3   OH236296   0.377   5.339  17.846 -0.5896 -0.2251  0.0530
 4034TIP3    H136297   0.432   5.307  17.917  0.9886  1.1221 -0.4904
 4034TIP3    H236298   0.350   5.427  17.875  0.1318  0.3693 -1.0076
 4035TIP3   OH236299   3.668   3.067  19.111 -0.4740 -0.2356  0.2237
 4035TIP3    H136300   3.751   3.054  19.066  0.1381 -2.1202  1.7556
 4035TIP3    H236301   3.617   2.988  19.092 -2.2875  1.1874 -1.2889
 4036TIP3   OH236302   3.210   6.465  19.738 -0.1069  0.4102  0.5802
 4036TIP3    H136303   3.136   6.461  19.798 -0.5644 -0.8752 -0.0452
 4036TIP3    H236304   3.287   6.474  19.795 -0.6874  1.3648  1.2446
 4037TIP3   OH236305   0.018   1.117  19.194 -0.2918 -0.4873  0.0746
 4037TIP3    H136306   0.054   1.157  19.273  0.7327  0.8390 -1.0273
 4037TIP3    H236307   0.093   1.104  19.136 -1.0087 -1.5443 -0.6586
 4038TIP3   OH236308   1.858   0.071  18.959  0.1654  0.4679  0.0472
 4038TIP3    H136309   1.945   0.094  18.928  0.2781  0.8930  0.6594
 4038TIP3    H236310   1.858   0.095  19.052  0.3195 -2.0380  0.7819
 4039TIP3   OH236311   3.915   4.347  18.720  0.1645  0.2791 -0.5427
 4039TIP3    H136312   4.009   4.333  18.713  0.0534 -1.9907  1.2900
 4039TIP3    H236313   3.880   4.321  18.635  1.2002  1.6421 -1.4164
 4040TIP3   OH236314   4.988   1.348  19.627  0.1922 -0.2357  0.2190
 4040TIP3    H136315   4.974   1.255  19.611  0.9970 -0.2531 -0.4645
 4040TIP3    H236316   5.018   1.383  19.543 -1.2681  0.8933  0.1336
 4041TIP3   OH236317   0.696   5.522  19.691  0.0710 -0.4493  0.0637
 4041TIP3    H136318   0.776   5.556  19.732  0.6247 -0.7730 -0.7197
 4041TIP3    H236319   0.658   5.465  19.757  1.8472 -2.3237 -0.3984
 4042TIP3   OH236320   1.425   2.535  19.671 -0.7714  0.4346 -0.2003
 4042TIP3    H136321   1.438   2.469  19.739 -1.7846 -0.3750 -0.7531
 4042TIP3    H236322   1.477   2.505  19.597  0.3134  1.3036  0.1854
 4043TIP3   OH236323   5.354   3.816  17.064 -0.2200 -0.0511  0.7942
 4043TIP3    H136324   5.371   3.827  16.971  0.5758  1.1550  1.0595
 4043TIP3    H236325   5.272   3.864  17.079  0.4306  1.0301  0.9703
 4044TIP3   OH236326   6.010   5.560  18.916 -0.5562 -0.1606 -0.6377
 4044TIP3    H136327   5.972   5.516  18.992 -1.5455  2.7296  0.6690
 4044TIP3    H236328   5.972   5.514  18.841 -1.5482 -1.4786  0.6058
 4045TIP3   OH236329   2.222   6.084  17.879 -0.1291 -0.2040 -0.1894
 4045TIP3    H136330   2.165   6.022  17.832  1.2334 -1.1102 -0.6949
 4045TIP3    H236331   2.239   6.152  17.814 -1.1523  0.4307  0.1804
 4046TIP3   OH236332   3.263   0.939  17.515 -0.4280 -0.3383 -0.2105
 4046TIP3    H136333   3.171   0.948  17.487 -0.2667  3.7336 -0.0598
 4046TIP3    H236334   3.314   0.956  17.436  0.0617  1.9762  0.5111
 4047TIP3   OH236335   2.552   4.131  19.155  0.3875  0.0263 -0.4387
 4047TIP3    H136336   2.589   4.133  19.066 -0.4047  2.2070 -0.7748
 4047TIP3    H236337   2.626   4.151  19.212  0.6002  0.1500 -0.7512
 4048TIP3   OH236338   2.491   6.337  17.414  0.3131 -0.1114  0.6475
 4048TIP3    H136339   2.550   6.409  17.437  0.6598 -0.6560  1.4934
 4048TIP3    H236340   2.548   6.262  17.399  0.0847  0.0772 -1.6647
 4049TIP3   OH236341   6.437   3.454  17.717  0.1995  0.5010 -0.0768
 4049TIP3    H136342   6.513   3.402  17.745 -0.8095 -1.1704 -0.2697
 4049TIP3    H236343   6.436   3.444  17.622  0.4953  1.6404 -0.2059
 4050TIP3   OH236344   5.950   5.315  17.894  0.1177 -0.7927 -0.3149
 4050TIP3    H136345   5.886   5.259  17.852 -1.3348  0.7099 -0.2003
 4050TIP3    H236346   5.913   5.403  17.889  2.2034  0.1703 -0.3088
 4051TIP3   OH236347   5.536   5.896  17.018  0.3743  0.0495  0.0586
 4051TIP3    H136348   5.554   5.856  17.103  0.2648 -0.4677 -0.1614
 4051TIP3    H236349   5.495   5.827  16.967  3.0892 -0.5987 -1.4322
 4052TIP3   OH236350   5.246   5.273  19.029  0.4365 -0.3864 -0.3227
 4052TIP3    H136351   5.312   5.216  19.068 -1.2522 -1.4005  1.2447
 4052TIP3    H236352   5.189   5.297  19.102 -2.2807 -1.5161 -1.9092
 4053TIP3   OH236353   5.986   2.983  20.081  0.0127 -0.1713  0.0816
 4053TIP3    H136354   6.064   3.009  20.130 -1.6822  2.2395  1.7359
 4053TIP3    H236355   6.011   2.994  19.989  1.5258  0.7501  0.5624
 4054TIP3   OH236356   1.152   0.037  18.249  0.0463  0.4347  0.0905
 4054TIP3    H136357   1.112   0.024  18.335  0.3328  1.7443  0.4497
 4054TIP3    H236358   1.078   0.049  18.189 -0.2096  3.1341  0.7979
 4055TIP3   OH236359   6.257   0.112  18.933 -0.0993  0.3789 -0.1322
 4055TIP3    H136360   6.225   0.174  18.867 -0.3502  0.4785  0.0799
 4055TIP3    H236361   6.194   0.120  19.005  0.5199  0.7220  0.3766
 4056TIP3   OH236362   6.295   5.038  19.770  0.4628  0.4260 -1.0302
 4056TIP3    H136363   6.276   4.960  19.718  0.8992 -0.2982 -0.1262
 4056TIP3    H236364   6.234   5.104  19.737 -0.7624 -0.6471 -0.9870
 4057TIP3   OH236365   6.605   3.633  19.616  0.2560 -0.3865 -0.2773
 4057TIP3    H136366   6.564   3.595  19.694  0.9690 -0.5491  0.0353
 4057TIP3    H236367   6.557   3.596  19.543  0.5521 -1.4564  0.0451
 4058TIP3   OH236368   5.379   2.173  17.701  0.0147 -0.5329  0.1251
 4058TIP3    H136369   5.346   2.164  17.611 -1.7210 -0.2386  0.6972
 4058TIP3    H236370   5.434   2.096  17.714 -0.3824 -1.0134 -0.9094
 4059TIP3   OH236371   0.863   3.614  19.071 -0.1888  0.2755  0.4957
 4059TIP3    H136372   0.823   3.529  19.093 -0.0798 -0.3007 -1.3539
 4059TIP3    H236373   0.942   3.591  19.023 -1.6219  1.3338 -2.5922
 4060TIP3   OH236374   5.276   3.361  19.811 -0.6464  0.2413  0.1841
 4060TIP3    H136375   5.270   3.373  19.906 -1.2341 -0.8279  0.2912
 4060TIP3    H236376   5.186   3.369  19.780 -0.2793  2.3043 -0.5323
 4061TIP3   OH236377   5.687   1.159  18.849  0.0354  0.4995  0.1673
 4061TIP3    H136378   5.657   1.137  18.938  0.0078  0.0881  0.0622
 4061TIP3    H236379   5.626   1.226  18.819 -0.6335 -0.1384  0.0604
 4062TIP3   OH236380   6.435   4.493  18.356  0.2119  0.0315 -0.4341
 4062TIP3    H136381   6.455   4.544  18.434  0.5665 -1.5505  0.5407
 4062TIP3    H236382   6.516   4.493  18.305  0.1902  0.4770 -0.4699
 4063TIP3   OH236383   4.164   3.353  18.103  0.2076 -0.0017  0.3897
 4063TIP3    H136384   4.176   3.441  18.139 -0.0429  0.3840 -0.4476
 4063TIP3    H236385   4.073   3.352  18.074  0.9148  0.3747 -1.9906
 4064TIP3   OH236386   6.620   4.031  17.292 -0.6807 -0.0268  0.0030
 4064TIP3    H136387   6.581   3.960  17.242  0.3920 -1.3608  0.9849
 4064TIP3    H236388   6.714   4.016  17.287 -0.4493  1.0906  0.5700
 4065TIP3   OH236389   3.313   2.414  19.561  0.5407  0.2964  0.2222
 4065TIP3    H136390   3.276   2.412  19.650  0.7138  1.9906  0.3597
 4065TIP3    H236391   3.284   2.332  19.522 -0.2445 -0.1111  1.5701
 4066TIP3   OH236392   3.464   6.618  18.181 -0.5938  0.3206 -0.5845
 4066TIP3    H136393   3.481   6.670  18.103  0.0025  0.5530 -0.3049
 4066TIP3    H236394   3.372   6.635  18.201 -0.2431  1.8220 -0.1143
 4067TIP3   OH236395   0.227   6.654  19.889 -0.2063  0.1507  0.2354
 4067TIP3    H136396   0.306   6.697  19.857 -0.3140  0.3392  0.2255
 4067TIP3    H236397   0.156   6.714  19.868 -0.2229  0.5395  1.3120
 4068TIP3   OH236398   6.541   5.939  18.596  0.4703  0.3827 -0.3931
 4068TIP3    H136399   6.583   5.940  18.510 -0.3975  1.6661 -0.8388
 4068TIP3    H236400   6.451   5.909  18.578  0.6448 -0.5954  0.2746
 4069TIP3   OH236401   0.997   6.209  17.806 -0.0516 -0.4673 -0.3263
 4069TIP3    H136402   1.029   6.140  17.748 -0.1580 -1.1022  0.3478
 4069TIP3    H236403   1.071   6.268  17.818  0.1919 -0.7333 -0.5263
 4070TIP3   OH236404   4.157   6.352  19.228  0.1742  0.1733 -0.2044
 4070TIP3    H136405   4.229   6.349  19.165  0.1287 -0.9360 -0.2304
 4070TIP3    H236406   4.151   6.444  19.254  2.6322  0.0767  0.9626
 4071TIP3   OH236407   5.959   0.366  19.060  0.4874  0.7744  0.4035
 4071TIP3    H136408   6.030   0.392  19.119  0.7517  0.4177  0.2467
 4071TIP3    H236409   5.902   0.311  19.115  0.2723  1.1549  0.5604
 4072TIP3   OH236410   3.342   4.001  17.068 -0.8414 -0.4628 -0.4071
 4072TIP3    H136411   3.393   4.035  16.994  0.7788 -0.8131  0.4812
 4072TIP3    H236412   3.279   3.941  17.029 -0.1846 -0.4574 -1.5305
 4073TIP3   OH236413   5.873   1.759  19.274  0.5455 -0.1484  0.6033
 4073TIP3    H136414   5.786   1.790  19.299  0.5260  0.9192 -0.6899
 4073TIP3    H236415   5.930   1.791  19.343  0.2193  1.0892  0.3178
 4074TIP3   OH236416   2.886   5.627  18.751 -0.2181  0.0144  0.0277
 4074TIP3    H136417   2.974   5.612  18.786  0.7703  1.7472 -1.5147
 4074TIP3    H236418   2.834   5.555  18.784  2.1986 -2.0603 -0.3941
 4075TIP3   OH236419   2.757   1.332  18.674 -0.1026 -0.7125 -0.1572
 4075TIP3    H136420   2.846   1.330  18.708  0.3866 -2.1920 -1.4076
 4075TIP3    H236421   2.766   1.364  18.585 -0.7092 -1.6557 -0.5697
 4076TIP3   OH236422   4.546   2.736  18.891  0.3734 -0.0064 -0.4605
 4076TIP3    H136423   4.450   2.746  18.892  0.3703  0.1207 -1.3302
 4076TIP3    H236424   4.563   2.669  18.957 -0.0031  2.3702  2.2427
 4077TIP3   OH236425   6.248   2.846  18.348  0.9939  0.4446 -0.3178
 4077TIP3    H136426   6.304   2.822  18.274  1.3364  3.9441 -1.3475
 4077TIP3    H236427   6.305   2.898  18.405 -0.5064  1.9172 -0.0983
 4078TIP3   OH236428   0.687   5.964  18.633  0.1563  0.6204  0.5406
 4078TIP3    H136429   0.777   5.977  18.605  0.5203  1.7317  2.0871
 4078TIP3    H236430   0.683   5.872  18.659  0.8983  0.6098  0.6397
 4079TIP3   OH236431   5.412   3.836  17.437  0.2205 -0.3423 -0.0967
 4079TIP3    H136432   5.344   3.879  17.385  0.4534 -0.8212 -0.8190
 4079TIP3    H236433   5.494   3.857  17.392  0.8266  1.8273  1.8193
 4080TIP3   OH236434   5.649   6.099  17.290 -0.3223  0.1754  0.0312
 4080TIP3    H136435   5.725   6.145  17.254 -2.0984  3.0796 -0.3489
 4080TIP3    H236436   5.581   6.109  17.222 -2.1694  1.1741  1.9141
 4081TIP3   OH236437   0.105   1.748  18.849 -0.4631  0.0818 -0.0106
 4081TIP3    H136438   0.085   1.806  18.923  2.1442  1.2246 -0.0847
 4081TIP3    H236439   0.141   1.669  18.891  1.0785  0.7560  0.0222
 4082TIP3   OH236440   5.056   0.645  19.177  0.2214  0.0651  0.1369
 4082TIP3    H136441   4.971   0.625  19.139  0.7585 -2.5022  0.1105
 4082TIP3    H236442   5.079   0.730  19.140 -1.6302  0.1003 -1.0725
 4083TIP3   OH236443   1.548   0.232  18.870 -0.2382  0.2151  0.0572
 4083TIP3    H136444   1.492   0.156  18.856  1.2331 -0.8499 -0.2149
 4083TIP3    H236445   1.615   0.203  18.931  1.2354  0.7947 -1.2043
 4084TIP3   OH236446   5.899   4.933  16.249  0.0766 -0.8527 -0.1676
 4084TIP3    H136447   5.873   5.024  16.235 -1.6286 -1.2596  0.1618
 4084TIP3    H236448   5.834   4.898  16.310  0.6213 -2.3323 -0.3847
 4085TIP3   OH236449   0.573   4.224  19.262  0.2269  0.4200 -0.0260
 4085TIP3    H136450   0.634   4.298  19.257  1.1185 -0.3391 -0.9429
 4085TIP3    H236451   0.532   4.221  19.175  0.3512 -0.2823 -0.0625
 4086TIP3   OH236452   3.258   1.294  17.217  0.0217  0.1797  0.2684
 4086TIP3    H136453   3.288   1.384  17.203  2.3773 -0.3890  1.2220
 4086TIP3    H236454   3.202   1.276  17.142 -1.7660  2.9116  0.7928
 4087TIP3   OH236455   4.978   6.376  17.548  0.2792  0.3274  0.2440
 4087TIP3    H136456   5.050   6.426  17.511  0.3995 -0.9502 -1.3242
 4087TIP3    H236457   4.991   6.382  17.643  2.4713  0.1037 -0.0017
 4088TIP3   OH236458   5.149   4.624  19.687  0.3104  0.1645  0.1681
 4088TIP3    H136459   5.170   4.568  19.761 -0.1387 -0.7800 -0.4099
 4088TIP3    H236460   5.143   4.565  19.612  0.5858  1.0789 -0.5999
 4089TIP3   OH236461   4.140   5.871  18.194 -0.3013 -0.0552 -0.0972
 4089TIP3    H136462   4.092   5.920  18.260 -1.1105 -1.1962  0.1881
 4089TIP3    H236463   4.122   5.918  18.112  0.1541  0.9684  0.3684
 4090TIP3   OH236464   0.294   2.793  19.702 -0.1222  0.1734 -0.0419
 4090TIP3    H136465   0.229   2.734  19.739 -2.2169  2.1226 -0.4076
 4090TIP3    H236466   0.270   2.879  19.736  1.5135  1.1523 -1.2273
 4091TIP3   OH236467   5.249   4.910  19.807  0.7584 -0.1619  0.0344
 4091TIP3    H136468   5.193   4.833  19.811  0.7049 -0.1941 -0.9572
 4091TIP3    H236469   5.321   4.891  19.866  1.1757 -1.3321 -0.8091
 4092TIP3   OH236470   3.128   4.223  19.747 -0.3129 -0.2401 -0.1686
 4092TIP3    H136471   3.194   4.157  19.727 -0.7505 -0.5324 -0.6719
 4092TIP3    H236472   3.049   4.192  19.705 -0.7898  0.0912  0.4606
 4093TIP3   OH236473   1.342   4.121  19.870 -0.1898 -0.3654 -0.3605
 4093TIP3    H136474   1.370   4.173  19.794 -1.1911  0.7069 -0.0255
 4093TIP3    H236475   1.338   4.031  19.837  1.7058 -0.2938 -0.9297
 4094TIP3   OH236476   3.477   2.185  19.971  0.0212  0.0027  0.3799
 4094TIP3    H136477   3.524   2.106  19.944 -1.4087 -0.5721 -0.5542
 4094TIP3    H236478   3.544   2.253  19.976  0.7169 -0.3444 -2.6368
 4095TIP3   OH236479   3.020   5.358  16.547 -0.5153 -0.2463 -0.5049
 4095TIP3    H136480   3.103   5.406  16.554 -1.0425  0.4735  1.9368
 4095TIP3    H236481   2.957   5.424  16.519 -0.8678  0.1029  0.9920
 4096TIP3   OH236482   0.801   3.858  18.852 -0.3520 -0.4036  0.4726
 4096TIP3    H136483   0.726   3.850  18.911 -0.0224  0.4560  1.0263
 4096TIP3    H236484   0.858   3.922  18.894  0.5694 -0.8521 -0.0773
 4097TIP3   OH236485   1.987   2.813  19.561 -0.6116 -0.0896  0.1756
 4097TIP3    H136486   1.979   2.795  19.468 -0.4935 -1.1343  0.3552
 4097TIP3    H236487   2.035   2.738  19.596 -1.0975  0.0394  1.1542
 4098TIP3   OH236488   2.471   4.576  19.615 -0.0126 -0.0617 -0.3715
 4098TIP3    H136489   2.549   4.612  19.656 -1.3850  1.5378  0.9626
 4098TIP3    H236490   2.422   4.652  19.584 -1.9699 -0.8587  0.5695
 4099TIP3   OH236491   5.285   0.631  18.057  0.5671  0.0186  0.0126
 4099TIP3    H136492   5.240   0.564  18.006  2.7969 -1.3946 -0.2588
 4099TIP3    H236493   5.375   0.631  18.023  0.9221  2.4602  0.7013
 4100TIP3   OH236494   1.050   5.897  16.744  0.2130  0.3564  0.0722
 4100TIP3    H136495   1.073   5.958  16.814  1.5718  1.6799 -1.4481
 4100TIP3    H236496   1.133   5.854  16.722 -0.3482 -0.5968 -0.2264
 4101TIP3   OH236497   5.795   0.040  17.842  0.5384 -0.8251  0.3293
 4101TIP3    H136498   5.805   0.011  17.933 -0.1991  0.2870  0.7886
 4101TIP3    H236499   5.825  -0.034  17.790  1.4133 -1.3165  1.4813
 4102TIP3   OH236500   1.577   0.822  17.321 -0.2354  0.1094  0.1476
 4102TIP3    H136501   1.602   0.740  17.278 -0.0788 -0.5662  1.4814
 4102TIP3    H236502   1.553   0.797  17.410  0.1793  1.5618  0.7078
 4103TIP3   OH236503   0.034   2.647  16.987 -0.1996  0.5772 -0.2742
 4103TIP3    H136504   0.060   2.694  16.908  0.5280  0.8161  0.0978
 4103TIP3    H236505   0.076   2.561  16.979  0.8650  1.0192  0.4040
 4104TIP3   OH236506   6.538   0.873  17.832  0.2899  0.3719 -0.3004
 4104TIP3    H136507   6.478   0.912  17.769  0.1494  0.0961 -0.3369
 4104TIP3    H236508   6.517   0.780  17.831  0.1151  0.4024  0.3363
 4105TIP3   OH236509   2.564   5.923  19.878  0.3119  0.0002 -0.5141
 4105TIP3    H136510   2.472   5.945  19.866 -0.5660 -1.7603  2.0808
 4105TIP3    H236511   2.572   5.834  19.842  1.0284  0.1516 -0.7540
 4106TIP3   OH236512   4.323   1.608  20.205 -0.1260 -0.0424 -0.7440
 4106TIP3    H136513   4.344   1.666  20.278 -0.5896 -0.6960 -0.0751
 4106TIP3    H236514   4.357   1.653  20.128  1.0322  0.3260 -0.0466
 4107TIP3   OH236515   2.783   0.143  19.453 -0.0196  0.1984 -0.3156
 4107TIP3    H136516   2.711   0.117  19.397 -1.3603  1.1238  0.9130
 4107TIP3    H236517   2.813   0.226  19.416 -1.3751  1.1738  0.7102
 4108TIP3   OH236518   5.197   2.377  16.786  0.1574  0.2751 -0.5169
 4108TIP3    H136519   5.241   2.462  16.786 -0.5385  0.6560  0.8041
 4108TIP3    H236520   5.269   2.314  16.790  0.6355  0.8528  0.2278
 4109TIP3   OH236521   4.719   6.266  20.308 -0.8276 -0.5210  0.3848
 4109TIP3    H136522   4.707   6.217  20.390 -1.6506 -1.4314 -0.2556
 4109TIP3    H236523   4.681   6.352  20.325  0.5275 -0.0999  1.4928
 4110TIP3   OH236524   4.099   0.718  18.683  0.0041  0.0145 -0.4782
 4110TIP3    H136525   4.080   0.673  18.600  0.5391  0.2754 -0.7517
 4110TIP3    H236526   4.107   0.647  18.747  2.3060 -0.4580 -1.1870
 4111TIP3   OH236527   2.465   4.125  19.793  0.4290  0.1093 -0.0869
 4111TIP3    H136528   2.545   4.176  19.808  0.4135  0.4759 -1.1947
 4111TIP3    H236529   2.440   4.145  19.703 -1.2032  0.3857  0.4048
 4112TIP3   OH236530   4.208   4.755  20.047  0.1427  0.6782  0.2308
 4112TIP3    H136531   4.295   4.715  20.044  0.9730  2.4515 -0.2432
 4112TIP3    H236532   4.159   4.710  19.978  1.2210  0.8627 -0.6778
 4113TIP3   OH236533   5.506   3.051  18.882 -0.6943  0.0026  0.3655
 4113TIP3    H136534   5.514   3.099  18.965 -0.0890 -0.0278  0.3349
 4113TIP3    H236535   5.438   3.096  18.834 -1.5762 -0.4249  1.1842
 4114TIP3   OH236536   1.711   5.855  17.430  0.4783 -0.1834 -0.0883
 4114TIP3    H136537   1.632   5.837  17.481  0.1339 -0.9885 -0.8899
 4114TIP3    H236538   1.729   5.948  17.447 -0.0276 -0.2542  0.9293
 4115TIP3   OH236539   6.118   3.513  19.194  0.3370  0.1960  0.5300
 4115TIP3    H136540   6.113   3.510  19.098  1.5175 -1.1414  0.4797
 4115TIP3    H236541   6.036   3.473  19.223  0.1991  0.1440  0.0744
 4116TIP3   OH236542   0.381   3.048  18.709  0.1990 -0.1506 -0.4907
 4116TIP3    H136543   0.312   2.993  18.673  0.0427  0.3585 -0.9709
 4116TIP3    H236544   0.457   3.030  18.655  0.2804 -0.2615 -0.3395
 4117TIP3   OH236545   5.982   0.210  16.740  0.3190  0.2928 -0.7859
 4117TIP3    H136546   5.986   0.284  16.680 -1.0963  0.0116 -1.2663
 4117TIP3    H236547   5.967   0.134  16.684  0.7389 -0.2227 -0.2187
 4118TIP3   OH236548   0.786   6.238  17.343  0.8666 -0.2828  0.0694
 4118TIP3    H136549   0.813   6.264  17.255  1.5425  1.2247  0.6717
 4118TIP3    H236550   0.690   6.241  17.341  0.8866  0.3555 -0.4614
 4119TIP3   OH236551   4.551   1.159  18.495  0.3700 -0.1227  0.1959
 4119TIP3    H136552   4.513   1.246  18.490 -0.5865 -0.5053  0.5172
 4119TIP3    H236553   4.528   1.118  18.411 -1.1228 -0.8075  0.9044
 4120TIP3   OH236554   5.168   5.943  19.552 -0.7957 -0.4663 -0.2161
 4120TIP3    H136555   5.112   5.923  19.627 -0.9537  0.7909  0.0243
 4120TIP3    H236556   5.123   6.013  19.506 -0.6137 -1.1070 -1.4170
 4121TIP3   OH236557   3.043   4.500  18.239  0.1822  0.0194  0.4932
 4121TIP3    H136558   3.046   4.581  18.289  0.5373 -0.6735  1.6274
 4121TIP3    H236559   2.990   4.440  18.292 -1.9697  0.1427 -1.3419
 4122TIP3   OH236560   3.759   5.439  19.741  0.0272  0.3833 -0.1938
 4122TIP3    H136561   3.734   5.360  19.790  0.3559  0.5294  0.2231
 4122TIP3    H236562   3.820   5.407  19.674  1.2607  0.4449  0.8527
 4123TIP3   OH236563   3.444   4.747  20.101  0.2199 -0.0125 -0.2173
 4123TIP3    H136564   3.381   4.819  20.110 -0.3834 -0.3604 -1.4913
 4123TIP3    H236565   3.526   4.789  20.077 -0.4761  0.1982 -2.4516
 4124TIP3   OH236566   5.675   1.441  17.778 -0.2214  0.4682 -0.9970
 4124TIP3    H136567   5.759   1.436  17.732 -0.2700  0.6902 -1.1098
 4124TIP3    H236568   5.623   1.502  17.726  0.3967  2.2834  0.4191
 4125TIP3   OH236569   5.579   2.497  17.918 -0.3721  0.5468  0.4679
 4125TIP3    H136570   5.516   2.522  17.986 -0.2996  1.0885  0.3370
 4125TIP3    H236571   5.611   2.411  17.946 -1.1647  0.2669  0.5429
 4126TIP3   OH236572   5.933   1.739  17.166  0.2110  0.3612 -0.0971
 4126TIP3    H136573   5.847   1.779  17.150  0.5329  2.3769  2.5546
 4126TIP3    H236574   5.995   1.798  17.123  0.3808 -0.9869 -1.8370
 4127TIP3   OH236575   0.391   0.615  19.765  0.6191  0.1811 -0.4891
 4127TIP3    H136576   0.429   0.532  19.795 -2.1776 -1.1133 -0.1235
 4127TIP3    H236577   0.368   0.661  19.846  2.5827  1.5981 -0.6842
 4128TIP3   OH236578   2.127   2.378  19.073 -0.0931  0.0234  0.0363
 4128TIP3    H136579   2.090   2.303  19.026 -0.3424  0.7014 -0.8859
 4128TIP3    H236580   2.088   2.454  19.030  0.7536  0.7052  0.4516
 4129TIP3   OH236581   2.408   3.224  19.237 -0.1039 -0.3818 -0.0678
 4129TIP3    H136582   2.393   3.248  19.328  1.1326 -0.3894  0.1565
 4129TIP3    H236583   2.434   3.305  19.194 -2.2438 -0.0304 -0.8152
 4130TIP3   OH236584   1.579   6.440  17.077 -0.1192 -0.4281 -0.0963
 4130TIP3    H136585   1.517   6.476  17.014 -0.1044  0.5533  0.4258
 4130TIP3    H236586   1.537   6.360  17.110 -0.7376 -0.2025 -0.3356
 4131TIP3   OH236587   5.734   6.565  20.305  0.0131 -0.0941  0.3403
 4131TIP3    H136588   5.757   6.655  20.326 -0.4376 -0.3006  1.8987
 4131TIP3    H236589   5.638   6.566  20.298  0.1454  0.0772 -2.5616
 4132TIP3   OH236590   2.014   0.865  18.774 -0.6886  0.4873  0.0055
 4132TIP3    H136591   2.093   0.868  18.720 -0.7112 -3.0193 -0.4010
 4132TIP3    H236592   1.949   0.819  18.720 -1.3921 -1.1947  2.1504
 4133TIP3   OH236593   5.222   5.161  17.027  0.2097  0.4471  0.2058
 4133TIP3    H136594   5.131   5.157  16.997  0.0365 -2.7084  0.8184
 4133TIP3    H236595   5.270   5.202  16.955 -1.3174 -0.0543 -1.1466
 4134TIP3   OH236596   0.671   0.482  19.619 -0.9949  0.3884  0.1154
 4134TIP3    H136597   0.727   0.535  19.676  1.8073 -1.6440 -0.5269
 4134TIP3    H236598   0.612   0.437  19.678 -0.4480  0.8818  1.0573
 4135TIP3   OH236599   1.686   0.981  18.875  0.1404 -0.4857 -0.2992
 4135TIP3    H136600   1.692   0.962  18.969 -0.4761  0.4767 -0.0446
 4135TIP3    H236601   1.690   0.895  18.833  1.1422 -0.8941  0.5518
 4136TIP3   OH236602   4.562   3.334  18.182  0.8350 -0.0682 -0.0639
 4136TIP3    H136603   4.621   3.260  18.194  0.8307 -0.3493 -1.6108
 4136TIP3    H236604   4.547   3.338  18.087 -1.9161 -0.2348  0.2920
 4137TIP3   OH236605   2.876   6.548  18.664  0.0693 -0.1210 -0.4296
 4137TIP3    H136606   2.787   6.515  18.653  0.6304 -2.1345  0.5413
 4137TIP3    H236607   2.929   6.496  18.602  0.7881 -0.0182  0.0827
 4138TIP3   OH236608   0.440   5.351  18.944  0.8032 -0.5109  0.2973
 4138TIP3    H136609   0.530   5.371  18.917  0.9696 -1.7611 -0.1463
 4138TIP3    H236610   0.399   5.437  18.955  1.8360  0.0774 -0.2103
 4139TIP3   OH236611   0.032   4.868  16.843  0.0095 -0.0456 -0.2075
 4139TIP3    H136612  -0.006   4.795  16.793  0.3769 -1.6460  1.7140
 4139TIP3    H236613   0.116   4.834  16.875 -0.7088  0.4041  2.4347
 4140TIP3   OH236614   2.878   1.529  18.523 -0.1657  0.3281 -0.1277
 4140TIP3    H136615   2.945   1.527  18.590 -1.6804  0.7010  1.4743
 4140TIP3    H236616   2.815   1.595  18.553 -0.8520  0.5835 -1.9664
 4141TIP3   OH236617   4.443   4.586  20.066 -0.1570  0.3710  0.5131
 4141TIP3    H136618   4.403   4.508  20.104  1.3935 -0.4030  0.6437
 4141TIP3    H236619   4.487   4.555  19.987 -0.4683  1.3377 -0.0659
 4142TIP3   OH236620   4.202   0.812  17.499 -0.0128 -0.1242 -0.2810
 4142TIP3    H136621   4.287   0.767  17.508 -0.0591 -0.4989 -1.5819
 4142TIP3    H236622   4.217   0.898  17.538  1.0521 -0.0927 -0.7139
 4143TIP3   OH236623   3.467   2.161  18.414 -0.1281 -0.0567 -0.1431
 4143TIP3    H136624   3.404   2.233  18.409  0.1229  0.0695 -1.9388
 4143TIP3    H236625   3.420   2.091  18.459 -0.0455  1.5089  2.6547
 4144TIP3   OH236626   5.291   3.048  16.673 -0.0175  0.1084 -0.9126
 4144TIP3    H136627   5.307   3.024  16.582  0.6414 -0.0097 -0.7729
 4144TIP3    H236628   5.283   3.143  16.672  0.3891  0.1426 -1.0385
 4145TIP3   OH236629   1.201   4.779  19.589  0.1132 -0.3477 -0.1196
 4145TIP3    H136630   1.206   4.801  19.682 -0.1162  0.5290 -0.2998
 4145TIP3    H236631   1.255   4.845  19.545 -1.9808  0.9956 -0.8374
 4146TIP3   OH236632   6.170   5.818  16.943  0.0881 -0.3140 -0.0848
 4146TIP3    H136633   6.153   5.814  16.849  1.3310  0.5076 -0.3672
 4146TIP3    H236634   6.179   5.726  16.969 -1.1138 -0.6055 -0.5709
 4147TIP3   OH236635   4.534   3.406  19.769 -0.6566 -0.4935  0.5991
 4147TIP3    H136636   4.449   3.444  19.747 -0.6583 -0.3614  0.8341
 4147TIP3    H236637   4.574   3.386  19.684  0.0923  1.6575  0.3800
 4148TIP3   OH236638   5.818   0.246  16.942 -0.0369  0.2929 -0.3031
 4148TIP3    H136639   5.738   0.210  16.905  0.9812 -2.3796 -0.1358
 4148TIP3    H236640   5.878   0.252  16.867 -0.1998  1.7928 -0.3353
 4149TIP3   OH236641   1.922   3.101  19.827 -0.2618 -0.8255  0.6721
 4149TIP3    H136642   1.978   3.077  19.901 -1.0972 -2.0089  0.9475
 4149TIP3    H236643   1.838   3.121  19.866 -0.4914 -0.6591  0.1086
 4150TIP3   OH236644   2.219   0.220  17.869  0.0282  0.3169  0.1330
 4150TIP3    H136645   2.309   0.207  17.838 -0.9696 -2.7619 -2.0224
 4150TIP3    H236646   2.202   0.144  17.925 -1.7423 -0.1733 -0.9879
 4151TIP3   OH236647   2.766   3.477  19.856 -0.2627  0.2994  0.6477
 4151TIP3    H136648   2.682   3.448  19.821 -0.9771  1.4559  1.3487
 4151TIP3    H236649   2.809   3.396  19.884 -1.2776 -0.2773  0.5966
 4152TIP3   OH236650   2.291   5.818  18.975 -0.4498 -0.5131  0.0105
 4152TIP3    H136651   2.369   5.820  18.919 -0.5892  0.3526 -0.1718
 4152TIP3    H236652   2.251   5.733  18.957  0.6477 -1.1382  0.3943
 4153TIP3   OH236653   2.597   4.793  18.548  0.0397  0.0347 -0.0161
 4153TIP3    H136654   2.516   4.743  18.561  0.0554 -0.0867 -0.3987
 4153TIP3    H236655   2.653   4.736  18.496 -0.5955  1.1131 -1.9902
 4154TIP3   OH236656   5.033   5.533  18.867  0.1123 -0.3855 -0.1092
 4154TIP3    H136657   5.114   5.577  18.894 -0.8369  0.3655  1.6040
 4154TIP3    H236658   4.981   5.527  18.946 -2.2729  0.7203 -1.5039
 4155TIP3   OH236659   0.036   0.595  19.258  0.0278 -0.4689  0.6758
 4155TIP3    H136660   0.124   0.581  19.224 -0.0958 -0.7829  0.4710
 4155TIP3    H236661   0.011   0.510  19.296 -0.5516 -0.6851 -0.1366
 4156TIP3   OH236662   2.449   0.463  17.332 -0.8217  0.1016 -0.0376
 4156TIP3    H136663   2.362   0.485  17.367 -0.4591  1.9552 -0.1833
 4156TIP3    H236664   2.441   0.478  17.238  0.0172  1.7719  0.1169
 4157TIP3   OH236665   6.602   2.997  16.873 -0.5516  0.0123 -0.3726
 4157TIP3    H136666   6.648   2.985  16.956  1.1397 -2.4569 -1.5547
 4157TIP3    H236667   6.509   2.996  16.896 -0.1295 -1.1467  1.4529
 4158TIP3   OH236668   0.559   2.186  18.758  0.0119  0.3466  0.3529
 4158TIP3    H136669   0.590   2.271  18.790  2.2866  0.0877 -0.9630
 4158TIP3    H236670   0.482   2.167  18.812 -0.5391  3.1967  0.7039
 4159TIP3   OH236671   0.770   5.842  16.206 -0.1385  0.3953 -0.0284
 4159TIP3    H136672   0.855   5.885  16.193 -0.6872  2.3165  1.9922
 4159TIP3    H236673   0.706   5.914  16.199 -1.3061 -0.4434  1.4046
 4160TIP3   OH236674   2.830   2.468  18.344  0.4688 -0.1328  0.9898
 4160TIP3    H136675   2.796   2.522  18.415 -0.1273 -0.6767  1.1219
 4160TIP3    H236676   2.848   2.383  18.384  1.5997  0.0122  0.8280
 4161TIP3   OH236677   5.908   5.233  19.519 -0.8693  0.2141 -0.3172
 4161TIP3    H136678   5.855   5.200  19.446 -1.0865 -1.2979  0.4966
 4161TIP3    H236679   5.863   5.312  19.548 -2.2206 -0.5817 -0.1876
 4162TIP3   OH236680   0.828   0.658  19.752  0.1644 -0.2736 -0.1497
 4162TIP3    H136681   0.879   0.730  19.717  0.0933 -0.5190 -0.7618
 4162TIP3    H236682   0.871   0.636  19.835 -0.0106  0.6873  0.2156
 4163TIP3   OH236683   1.492   0.206  18.303 -0.2401 -0.2318  0.7800
 4163TIP3    H136684   1.571   0.252  18.331  0.2394 -1.2319  1.1342
 4163TIP3    H236685   1.432   0.275  18.275  1.1586  0.5176 -0.5502
 4164TIP3   OH236686   0.165   4.991  19.376 -0.3293  0.4154 -0.3457
 4164TIP3    H136687   0.074   4.962  19.380  0.1301 -0.9891  0.5158
 4164TIP3    H236688   0.198   4.955  19.294 -0.4127  0.5421 -0.4355
 4165TIP3   OH236689   2.391   4.786  18.805 -0.6303 -0.1727 -0.2443
 4165TIP3    H136690   2.331   4.860  18.791 -0.2882  0.3210  0.7523
 4165TIP3    H236691   2.349   4.735  18.875  0.4436  0.5893  0.9977
 4166TIP3   OH236692   3.567   3.672  16.886  0.3376 -0.6733  0.2104
 4166TIP3    H136693   3.611   3.757  16.897 -1.3617  0.5873 -1.9381
 4166TIP3    H236694   3.479   3.687  16.920  0.4458 -2.1158  1.2259
 4167TIP3   OH236695   4.132   5.445  17.069  0.2246  0.4264 -0.2781
 4167TIP3    H136696   4.199   5.496  17.024 -1.2417  1.5103 -1.3452
 4167TIP3    H236697   4.055   5.501  17.068 -1.6837 -1.9866 -2.1331
 4168TIP3   OH236698   5.666   3.971  18.099 -0.0252  0.3953 -0.0264
 4168TIP3    H136699   5.657   4.063  18.125  1.5829  0.6866 -0.4173
 4168TIP3    H236700   5.642   3.922  18.178  1.2579  1.2030  0.9025
 4169TIP3   OH236701   3.498   3.136  18.291  0.1174 -0.4885  0.2309
 4169TIP3    H136702   3.540   3.193  18.356 -1.4958  1.2179 -0.1440
 4169TIP3    H236703   3.570   3.084  18.255  1.6297  1.0996  0.8129
 4170TIP3   OH236704   5.008   1.876  19.820 -0.1620 -0.5258 -0.2328
 4170TIP3    H136705   4.960   1.953  19.790  0.1793 -0.4272 -0.5387
 4170TIP3    H236706   5.027   1.828  19.739  0.4029 -0.4736 -0.1348
 4171TIP3   OH236707   5.571   1.561  18.596  0.3224  0.3657 -0.4799
 4171TIP3    H136708   5.586   1.496  18.665  2.7549 -0.5615 -1.7720
 4171TIP3    H236709   5.493   1.529  18.550 -0.9463  0.6500  1.3540
 4172TIP3   OH236710   0.748   4.374  18.691 -0.3550  0.0305 -0.2900
 4172TIP3    H136711   0.664   4.417  18.704 -1.0578 -0.7361 -2.0189
 4172TIP3    H236712   0.734   4.285  18.724  0.9734  0.8683  2.9163
 4173TIP3   OH236713   5.517   0.318  17.121 -0.1340  0.4904  0.0595
 4173TIP3    H136714   5.553   0.260  17.055  3.0491 -0.4095  2.3341
 4173TIP3    H236715   5.527   0.406  17.085  0.2329 -0.0432 -1.1660
 4174TIP3   OH236716   2.646   5.968  19.130 -0.4050  0.0193  0.1749
 4174TIP3    H136717   2.652   5.874  19.111 -0.4779  0.3056 -1.4055
 4174TIP3    H236718   2.696   6.010  19.060 -1.2848  1.2164  0.2395
 4175TIP3   OH236719   3.556   1.618  19.652  0.6374 -0.1751  0.7048
 4175TIP3    H136720   3.513   1.688  19.701 -1.7455 -0.4793 -0.7988
 4175TIP3    H236721   3.515   1.538  19.685  0.7392 -0.5704 -0.1166
 4176TIP3   OH236722   0.876   0.242  16.808  0.3318  0.4416  0.2449
 4176TIP3    H136723   0.849   0.208  16.723 -1.7772 -0.6523  1.2676
 4176TIP3    H236724   0.911   0.329  16.789  1.7181 -0.5265 -1.9227
 4177TIP3   OH236725   3.852   6.406  17.596 -0.0009  0.0891 -0.1544
 4177TIP3    H136726   3.785   6.474  17.597  1.5097  1.7168  2.0970
 4177TIP3    H236727   3.929   6.448  17.558  0.7449 -0.5704  0.5725
 4178TIP3   OH236728   1.251   0.091  17.134  0.1082  0.6515 -0.1484
 4178TIP3    H136729   1.192   0.028  17.177 -0.3940  1.5127  0.4634
 4178TIP3    H236730   1.337   0.049  17.137 -0.4153 -0.5490 -0.8822
 4179TIP3   OH236731   1.299   4.038  20.277 -0.0927  0.0116 -0.7078
 4179TIP3    H136732   1.259   4.116  20.316  0.2367  0.1016 -0.5467
 4179TIP3    H236733   1.266   4.036  20.188 -0.7351 -0.1124 -0.4733
 4180TIP3   OH236734   1.919   2.918  18.635 -0.5008  0.1111 -0.5001
 4180TIP3    H136735   1.916   2.931  18.729 -1.7680 -1.0537 -0.3373
 4180TIP3    H236736   1.833   2.946  18.604 -0.8617 -1.4337 -0.9991
 4181TIP3   OH236737   3.504   4.043  19.396 -0.0074  0.2320 -0.0202
 4181TIP3    H136738   3.594   4.012  19.402  0.5941  1.6495 -1.1094
 4181TIP3    H236739   3.467   3.998  19.321 -0.3369 -0.6156  0.6380
 4182TIP3   OH236740   3.956   4.974  20.050 -0.2752 -0.0243  0.5174
 4182TIP3    H136741   3.941   4.905  20.114 -1.4775 -1.0159 -0.7838
 4182TIP3    H236742   3.878   4.973  19.994  0.8393  0.6203 -1.1340
 4183TIP3   OH236743   5.164   3.998  18.855 -0.0263  0.3908 -0.0546
 4183TIP3    H136744   5.149   3.957  18.769  0.2324 -0.1615  0.1570
 4183TIP3    H236745   5.179   3.924  18.914  0.1746  0.7869  0.3958
 4184TIP3   OH236746   0.818   4.548  18.196  0.0133  0.2027 -0.5457
 4184TIP3    H136747   0.881   4.601  18.147 -0.5611  1.2066 -0.2297
 4184TIP3    H236748   0.856   4.541  18.284  0.3147 -0.3169 -0.7134
 4185TIP3   OH236749   6.090   3.614  19.442  0.3083 -0.0663 -0.2098
 4185TIP3    H136750   6.098   3.598  19.348 -1.3826  1.2669 -0.6368
 4185TIP3    H236751   6.135   3.697  19.456  0.1402 -0.0177  0.0516
 4186TIP3   OH236752   5.452   3.293  19.067  0.0023  0.3824 -0.4552
 4186TIP3    H136753   5.372   3.242  19.080  0.9526 -1.6398 -1.9862
 4186TIP3    H236754   5.429   3.357  18.999 -0.2715 -0.3326 -1.0471
 4187TIP3   OH236755   0.859   2.970  18.543  0.0444 -0.1667 -0.6388
 4187TIP3    H136756   0.859   3.062  18.568  1.4927 -0.3826  0.2635
 4187TIP3    H236757   0.943   2.956  18.500 -0.2003 -1.0375 -0.8628
 4188TIP3   OH236758   1.613   4.879  17.115  0.0686 -0.4202 -0.5401
 4188TIP3    H136759   1.595   4.846  17.203  0.6606 -1.3161 -0.7398
 4188TIP3    H236760   1.585   4.808  17.057  0.0508  0.0022 -1.0511
 4189TIP3   OH236761   3.989   4.119  19.289 -0.1732 -0.1353 -0.4228
 4189TIP3    H136762   4.080   4.134  19.266 -0.2513 -0.1973 -0.7665
 4189TIP3    H236763   3.951   4.074  19.214 -0.6460  0.4577 -0.5547
 4190TIP3   OH236764   5.799   3.590  18.422  0.5830  0.2044  0.2077
 4190TIP3    H136765   5.825   3.636  18.502 -0.3783  1.0848  0.0444
 4190TIP3    H236766   5.856   3.514  18.418  0.7047  0.1933  1.6866
 4191TIP3   OH236767   5.002   5.297  18.484 -0.2333  0.2326 -0.0747
 4191TIP3    H136768   5.039   5.299  18.572 -0.2700  0.3810 -0.0630
 4191TIP3    H236769   5.029   5.380  18.444  0.9107 -0.3932 -0.6682
 4192TIP3   OH236770   4.394   5.519  19.733  0.3373 -0.3183 -0.5561
 4192TIP3    H136771   4.483   5.485  19.727 -0.0981 -1.6670  0.2232
 4192TIP3    H236772   4.339   5.455  19.689 -0.3015  0.3226 -0.7262
 4193TIP3   OH236773   1.135   3.813  19.237  0.2138  0.6378 -0.2751
 4193TIP3    H136774   1.228   3.807  19.260  0.0386  0.1657  0.3232
 4193TIP3    H236775   1.135   3.825  19.142  0.8265 -2.7676 -0.8357
 4194TIP3   OH236776   1.900   5.105  19.306  0.3641  0.3885  0.1025
 4194TIP3    H136777   1.957   5.182  19.311  0.2377  0.4173  2.4190
 4194TIP3    H236778   1.812   5.141  19.295  0.2668  0.6288  1.5064
 4195TIP3   OH236779   1.731   2.314  17.486 -0.2575  0.0189  0.3622
 4195TIP3    H136780   1.744   2.404  17.516 -0.2909  0.1228  0.0662
 4195TIP3    H236781   1.731   2.320  17.391 -1.5497 -0.1042  0.3402
 4196TIP3   OH236782   3.422   2.049  18.116  0.0322 -0.0260  0.2932
 4196TIP3    H136783   3.426   2.102  18.196  2.4900  1.8146 -0.8786
 4196TIP3    H236784   3.445   2.111  18.046 -1.7826 -1.6077 -1.8582
 4197TIP3   OH236785   5.244   3.863  19.326 -0.7573  0.0129  0.5394
 4197TIP3    H136786   5.221   3.776  19.358 -0.3323  0.1560  1.2787
 4197TIP3    H236787   5.222   3.922  19.398 -0.7874  0.4875  0.1509
 4198TIP3   OH236788   2.179   2.096  17.283 -0.3518  0.2363 -0.2006
 4198TIP3    H136789   2.173   2.152  17.205  1.4651  0.9569  0.1322
 4198TIP3    H236790   2.267   2.112  17.318 -1.2260  0.2070  2.2143
 4199TIP3   OH236791   0.897   5.634  19.845  0.0066 -0.3422 -0.2535
 4199TIP3    H136792   0.925   5.580  19.918 -1.9413 -1.3702 -0.2060
 4199TIP3    H236793   0.874   5.718  19.885 -0.3246 -0.6542  0.2265
 4200TIP3   OH236794   5.851   0.328  18.402 -0.0051  0.4970  0.2820
 4200TIP3    H136795   5.890   0.296  18.321 -2.6405 -3.7949  0.4051
 4200TIP3    H236796   5.766   0.364  18.375  0.3098  1.7556  0.8894
 4201TIP3   OH236797   1.515   1.433  19.112  0.4426  0.1852  0.5656
 4201TIP3    H136798   1.478   1.485  19.040  2.6583  1.2578  0.1073
 4201TIP3    H236799   1.510   1.343  19.081 -1.6783  0.2567  0.5378
 4202TIP3   OH236800   0.050   2.785  19.009  0.2920 -0.8058  0.3620
 4202TIP3    H136801   0.010   2.825  19.086  1.1457  0.8602 -0.0099
 4202TIP3    H236802   0.143   2.775  19.032  0.2938 -1.6257  0.0528
 4203TIP3   OH236803   1.435   2.466  17.403  0.3003 -0.2657 -0.0558
 4203TIP3    H136804   1.526   2.435  17.410  0.4829  0.4175  0.6309
 4203TIP3    H236805   1.412   2.451  17.311  1.2477 -0.0484 -0.3343
 4204TIP3   OH236806   1.411   5.580  18.144  0.1405  0.1857  0.3294
 4204TIP3    H136807   1.405   5.675  18.133  3.2850  0.3204 -1.1581
 4204TIP3    H236808   1.441   5.568  18.234  0.1314  0.6115  0.3910
 4205TIP3   OH236809   4.123   3.956  17.446  0.2678  0.4714 -0.0297
 4205TIP3    H136810   4.181   3.953  17.370  1.0416 -0.0146  0.5592
 4205TIP3    H236811   4.049   4.010  17.418 -0.5349 -1.4133 -1.8666
 4206TIP3   OH236812   0.366   2.263  19.780  0.0250 -0.2974 -0.0081
 4206TIP3    H136813   0.456   2.252  19.811 -0.2512 -0.5390  0.7159
 4206TIP3    H236814   0.370   2.338  19.720  0.2916  1.1854  1.7763
 4207TIP3   OH236815   3.586   3.941  18.757 -0.0723 -0.3172 -0.4643
 4207TIP3    H136816   3.637   3.950  18.677 -0.4159  1.5588 -0.5186
 4207TIP3    H236817   3.584   4.030  18.794  1.6189 -1.3890  2.5809
 4208TIP3   OH236818   2.481   0.955  18.868  0.4645 -0.5498  0.2174
 4208TIP3    H136819   2.531   0.888  18.914  0.9325 -1.0064 -0.9206
 4208TIP3    H236820   2.547   1.007  18.822  0.2988  1.8351  2.4339
 4209TIP3   OH236821   0.607   6.465  18.263  0.2091 -0.3114 -0.9499
 4209TIP3    H136822   0.653   6.394  18.310  0.2145 -0.4587 -1.1778
 4209TIP3    H236823   0.656   6.544  18.287 -0.2236 -0.2864 -0.1301
 4210TIP3   OH236824   4.516   5.258  19.980 -0.1252 -0.2513 -0.3268
 4210TIP3    H136825   4.494   5.204  20.056 -1.9125  0.0006 -0.6235
 4210TIP3    H236826   4.443   5.319  19.973 -0.1905 -0.5174 -2.4726
 4211TIP3   OH236827   4.653   3.336  17.169  0.2635  0.1189 -0.2255
 4211TIP3    H136828   4.649   3.242  17.149 -0.8147  0.4583 -1.7293
 4211TIP3    H236829   4.746   3.353  17.185  0.6519 -0.9660 -1.1994
 4212TIP3   OH236830   5.205   4.410  19.098 -0.6333 -0.5447 -0.0571
 4212TIP3    H136831   5.217   4.474  19.167 -1.5663 -0.6877  0.2515
 4212TIP3    H236832   5.110   4.395  19.095 -0.4715 -1.5904 -0.4084
 4213TIP3   OH236833   0.808   4.505  16.647  0.0152 -0.2760  0.4608
 4213TIP3    H136834   0.731   4.535  16.598 -0.1165 -1.8862 -0.3987
 4213TIP3    H236835   0.879   4.507  16.583  0.4422  0.1244  0.9401
 4214TIP3   OH236836   5.922   5.511  16.734  0.1179 -0.2511 -0.8735
 4214TIP3    H136837   5.954   5.433  16.780 -0.0797 -0.4299 -1.0378
 4214TIP3    H236838   5.969   5.511  16.651 -0.8021 -0.9140 -1.4259
 4215TIP3   OH236839   0.466   0.087  19.812 -0.3180  0.3782 -0.4893
 4215TIP3    H136840   0.525   0.077  19.738  0.4124 -0.1653  0.1456
 4215TIP3    H236841   0.515   0.053  19.887 -1.0793  0.8010  0.2259
 4216TIP3   OH236842   3.404   4.219  19.061  0.1106 -0.1411  0.1036
 4216TIP3    H136843   3.401   4.207  18.966  0.5023 -1.7324  0.2539
 4216TIP3    H236844   3.369   4.307  19.076  0.4273  0.2882 -1.5356
 4217TIP3   OH236845   5.987   2.604  19.863 -0.0738 -0.4550 -0.3058
 4217TIP3    H136846   5.912   2.608  19.804  0.4674  0.4428 -0.9451
 4217TIP3    H236847   5.949   2.582  19.948 -1.1873  0.8993 -0.4195
 4218TIP3   OH236848   5.883   6.580  18.590 -0.6267 -0.3009 -0.1138
 4218TIP3    H136849   5.911   6.499  18.547  0.4969  0.1766 -0.3218
 4218TIP3    H236850   5.964   6.618  18.624 -1.4192 -0.4220  2.0443
 4219TIP3   OH236851   4.990   4.065  19.287  0.0208 -0.3499  0.0155
 4219TIP3    H136852   5.046   4.025  19.354  1.3626  1.5142  0.0537
 4219TIP3    H236853   4.930   4.121  19.337  1.4093  1.5049 -0.3202
 4220TIP3   OH236854   0.011   6.455  19.408  0.1939  0.4525 -0.6170
 4220TIP3    H136855   0.010   6.519  19.337  1.7202  1.0816 -0.1182
 4220TIP3    H236856   0.086   6.399  19.389  0.5380  0.5408  0.3919
 4221TIP3   OH236857   2.535   2.680  19.137  0.0806 -0.3100 -0.1500
 4221TIP3    H136858   2.557   2.743  19.206 -1.6665  1.0474 -0.7506
 4221TIP3    H236859   2.566   2.721  19.056  1.2317 -1.4419 -0.3132
 4222TIP3   OH236860   5.530   3.542  17.938  0.1156  0.4765 -0.0707
 4222TIP3    H136861   5.593   3.542  18.010 -0.1665  0.0249  0.1822
 4222TIP3    H236862   5.502   3.634  17.931 -1.1156  0.2771  1.5316
 4223TIP3   OH236863   3.767   2.509  19.777  0.0970  0.1911  0.2795
 4223TIP3    H136864   3.808   2.595  19.770 -0.3399  0.3673 -0.1691
 4223TIP3    H236865   3.695   2.512  19.714 -1.5149  0.4209  2.0453
 4224TIP3   OH236866   0.130   3.606  16.738  0.1917  0.0489  0.0763
 4224TIP3    H136867   0.183   3.568  16.809  0.7973  0.1236 -0.3224
 4224TIP3    H236868   0.132   3.539  16.670 -1.9267 -0.8351  0.7934
 4225TIP3   OH236869   0.881   3.845  16.993  0.1503 -0.4398  0.4014
 4225TIP3    H136870   0.813   3.782  17.017 -0.1501 -0.1276  0.3796
 4225TIP3    H236871   0.867   3.861  16.900  0.3320 -0.4728  0.3691
 4226TIP3   OH236872   6.046   3.022  18.892  0.3256  0.3019  0.4492
 4226TIP3    H136873   5.994   3.101  18.908 -0.4079  0.0655 -0.6810
 4226TIP3    H236874   6.015   2.959  18.958  1.4447  1.1674  1.8470
 4227TIP3   OH236875   4.623   3.612  18.762 -0.0464 -0.2224 -0.1462
 4227TIP3    H136876   4.545   3.661  18.735 -0.3626 -0.2251  0.7376
 4227TIP3    H236877   4.600   3.520  18.750  0.7339 -0.1945 -2.3165
 4228TIP3   OH236878   3.949   3.039  19.028 -0.2707  0.6554  0.1462
 4228TIP3    H136879   3.973   3.130  19.047 -3.1000  1.0918  2.1896
 4228TIP3    H236880   3.987   2.989  19.100  0.0453  0.4026 -0.1925
 4229TIP3   OH236881   1.844   2.975  18.900  0.0982 -0.3165 -0.3854
 4229TIP3    H136882   1.773   3.037  18.913  0.3211  0.5053 -2.6050
 4229TIP3    H236883   1.821   2.900  18.954 -0.9372  1.0907  1.2174
 4230TIP3   OH236884   0.038   4.266  18.106  0.2179  0.0032  0.0634
 4230TIP3    H136885   0.034   4.245  18.013  1.0777  0.0345  0.0141
 4230TIP3    H236886   0.120   4.227  18.137  0.5144  0.9663  0.5517
 4231TIP3   OH236887   0.998   3.566  16.602  1.0708 -0.4626 -0.3866
 4231TIP3    H136888   1.031   3.636  16.659  1.0573 -1.4668  0.9102
 4231TIP3    H236889   0.964   3.612  16.525 -1.7216  1.2641  1.6807
 4232TIP3   OH236890   5.053   3.025  17.477  0.1482  0.1820 -0.5016
 4232TIP3    H136891   4.979   3.081  17.455  0.8289  0.9096 -1.0110
 4232TIP3    H236892   5.114   3.082  17.523 -0.1241 -0.7105  1.0335
 4233TIP3   OH236893   6.627   2.354  19.041 -0.2882 -0.0112  0.2677
 4233TIP3    H136894   6.703   2.374  19.097  0.3830 -0.9727 -0.2684
 4233TIP3    H236895   6.587   2.439  19.025  1.1397  0.6446 -0.0617
 4234TIP3   OH236896   2.992   1.324  17.485  0.4821 -0.2512  0.0167
 4234TIP3    H136897   3.074   1.274  17.485 -0.1122 -1.2640  0.6274
 4234TIP3    H236898   3.004   1.389  17.416  0.3417 -2.8034 -2.6344
 4235TIP3   OH236899   4.713   5.558  20.045 -0.1517 -0.5204  0.4467
 4235TIP3    H136900   4.763   5.509  20.110  0.1183  0.7178  1.1918
 4235TIP3    H236901   4.746   5.648  20.052  0.2307 -0.4358 -1.7304
 4236TIP3   OH236902   0.385   2.601  18.477  0.1633  0.0523  0.1440
 4236TIP3    H136903   0.294   2.571  18.473  0.4411 -0.7636 -0.3750
 4236TIP3    H236904   0.386   2.681  18.425 -0.1101 -0.3455 -0.4848
 4237TIP3   OH236905   2.519   3.124  18.993 -0.0265 -0.0194 -0.0812
 4237TIP3    H136906   2.604   3.162  18.970  1.0836 -1.0398  1.9664
 4237TIP3    H236907   2.498   3.162  19.078 -2.4928  1.4461 -1.2552
 4238TIP3   OH236908   5.556   1.030  19.390 -0.3509 -0.0246  0.0974
 4238TIP3    H136909   5.574   1.082  19.468 -1.0947  0.1499  0.1570
 4238TIP3    H236910   5.461   1.031  19.381 -0.4103 -1.5796  0.2507
 4239TIP3   OH236911   4.058   5.722  17.038 -0.6575 -0.4260 -0.1306
 4239TIP3    H136912   4.103   5.768  16.968 -0.2601 -0.6606 -0.0323
 4239TIP3    H236913   4.128   5.695  17.098 -0.5903 -2.9728 -1.2077
 4240TIP3   OH236914   6.483   4.672  17.241  0.1513 -0.0169  0.0774
 4240TIP3    H136915   6.426   4.735  17.197 -1.4504  0.4893  2.6616
 4240TIP3    H236916   6.423   4.613  17.287  1.5052  1.5628  4.3551
 4241TIP3   OH236917   6.546   4.845  20.017 -0.0979 -0.0239 -0.0329
 4241TIP3    H136918   6.519   4.927  19.977 -1.3927 -1.6672 -2.8735
 4241TIP3    H236919   6.463   4.799  20.034  0.6367 -1.2789  0.2449
 4242TIP3   OH236920   5.916   4.334  18.030  0.1925  0.3635 -0.5741
 4242TIP3    H136921   5.884   4.341  17.940  0.3551  0.7080 -0.6080
 4242TIP3    H236922   5.859   4.392  18.081 -0.0274  0.0145 -0.4199
 4243TIP3   OH236923   4.846   6.120  17.957  0.3955  0.2842 -0.1977
 4243TIP3    H136924   4.811   6.205  17.928  1.0917  0.6009 -0.1342
 4243TIP3    H236925   4.815   6.111  18.048 -2.1483 -0.9073 -1.0875
 4244TIP3   OH236926   2.500   2.163  16.994  0.2564 -0.4084 -0.0610
 4244TIP3    H136927   2.413   2.156  16.955 -1.0518  0.8723  2.3864
 4244TIP3    H236928   2.535   2.246  16.961  0.5078 -0.8329 -0.8952
 4245TIP3   OH236929   2.711   4.354  18.095 -0.4372  0.1102  0.6832
 4245TIP3    H136930   2.624   4.344  18.055  0.8174 -0.0076 -2.2715
 4245TIP3    H236931   2.742   4.439  18.064  1.2966 -0.7428 -0.0753
 4246TIP3   OH236932   2.113   4.149  19.104 -0.9653  0.1830  0.2720
 4246TIP3    H136933   2.087   4.058  19.092 -0.0808  0.1448 -1.7989
 4246TIP3    H236934   2.168   4.148  19.182  1.4152 -1.6300 -1.2930
 4247TIP3   OH236935   1.605   6.164  18.024  0.1442 -0.8390  0.1617
 4247TIP3    H136936   1.524   6.132  17.985 -0.4197 -2.0008  2.1393
 4247TIP3    H236937   1.628   6.242  17.972 -1.8602 -0.8561 -0.8404
 4248TIP3   OH236938   5.318   4.350  19.443  0.1315  0.0870  0.1443
 4248TIP3    H136939   5.239   4.297  19.448  1.7045 -3.1276 -3.9297
 4248TIP3    H236940   5.370   4.324  19.519 -1.2637 -0.2653  1.0010
 4249TIP3   OH236941   1.970   3.845  18.707 -0.3773 -0.0981 -0.3424
 4249TIP3    H136942   2.033   3.784  18.668  1.1736 -0.6346  2.7349
 4249TIP3    H236943   2.013   3.930  18.704 -0.4320 -0.0646 -0.1841
 4250TIP3   OH236944   6.097   5.989  17.707  0.0034 -0.5694 -0.3039
 4250TIP3    H136945   6.087   6.047  17.783  3.0060 -0.5332  0.1803
 4250TIP3    H236946   6.134   6.045  17.638  0.2858 -1.2751 -0.7427
 4251TIP3   OH236947   1.329   4.164  17.153 -0.0706  0.1376 -0.1206
 4251TIP3    H136948   1.392   4.164  17.225  1.1163  1.8790 -1.0838
 4251TIP3    H236949   1.244   4.153  17.196  0.5015  2.1380  1.7316
 4252TIP3   OH236950   2.025   4.189  20.087 -0.4838 -0.1518 -0.2680
 4252TIP3    H136951   2.120   4.195  20.082 -0.4377 -0.5252  0.0827
 4252TIP3    H236952   2.008   4.136  20.165 -1.0001  0.6896  0.2114
 4253TIP3   OH236953   4.887   6.413  20.013  0.4984 -0.1357 -0.2352
 4253TIP3    H136954   4.939   6.378  19.941  1.9832 -0.1938  0.8198
 4253TIP3    H236955   4.875   6.505  19.991  2.5926  0.3211  0.3025
 4254TIP3   OH236956   4.689   2.626  19.243  0.8515  0.6949  0.4788
 4254TIP3    H136957   4.637   2.577  19.179  2.0115 -0.3363  0.2981
 4254TIP3    H236958   4.773   2.641  19.199  1.0870  1.4080  1.1558
 4255TIP3   OH236959   4.851   4.870  19.358 -0.2998  0.1750 -0.0820
 4255TIP3    H136960   4.911   4.799  19.335  1.1685  1.0871  0.7520
 4255TIP3    H236961   4.878   4.943  19.303 -0.7022  0.5629  0.2294
 4256TIP3   OH236962   5.694   0.439  17.998 -0.2934  0.1388 -0.4119
 4256TIP3    H136963   5.761   0.411  17.936 -0.1360 -1.0013  0.2596
 4256TIP3    H236964   5.685   0.366  18.059 -0.8886  0.9884  0.5453
 4257TIP3   OH236965   4.930   4.308  17.489  0.4550 -0.2495 -0.8097
 4257TIP3    H136966   4.941   4.267  17.575 -1.4160  0.9407  0.0671
 4257TIP3    H236967   5.018   4.309  17.451  1.3521 -0.6878  1.1313
 4258TIP3   OH236968   0.413   2.370  19.270 -0.2058  0.1247 -0.0429
 4258TIP3    H136969   0.503   2.343  19.287 -0.0353 -0.5088 -1.7155
 4258TIP3    H236970   0.380   2.400  19.355  1.5351  0.2764  0.6213
 4259TIP3   OH236971   5.934   4.120  19.696  0.1717 -0.1477 -0.8640
 4259TIP3    H136972   5.973   4.106  19.782  0.4062 -0.6844 -1.0519
 4259TIP3    H236973   5.935   4.215  19.684  1.2094 -0.1339 -0.7630
 4260TIP3   OH236974   2.718   1.586  17.587 -0.3773  0.5738 -0.0940
 4260TIP3    H136975   2.636   1.609  17.630  0.5612  0.9298  1.6066
 4260TIP3    H236976   2.743   1.503  17.626 -0.0619  0.3182 -0.8184
 4261TIP3   OH236977   4.701   1.930  18.053 -0.2429 -0.0067  0.3131
 4261TIP3    H136978   4.785   1.920  18.099  0.1186  1.7755  0.1066
 4261TIP3    H236979   4.676   1.841  18.030  1.3562 -0.6226  0.8087
 4262TIP3   OH236980   4.463   1.093  18.235  0.2709 -0.2507  0.3020
 4262TIP3    H136981   4.445   1.042  18.156  1.9130 -1.6623  0.7866
 4262TIP3    H236982   4.506   1.172  18.202  0.5359 -0.6188 -0.2711
 4263TIP3   OH236983   6.314   5.535  19.901  0.5104  0.2988  0.3260
 4263TIP3    H136984   6.301   5.556  19.994 -0.0917  0.9457  0.1047
 4263TIP3    H236985   6.321   5.440  19.899  0.0088  0.2407  0.9750
 4264TIP3   OH236986   4.145   2.195  19.032 -0.0699  0.5775  0.2536
 4264TIP3    H136987   4.109   2.279  19.004 -0.2555  0.7236  0.8983
 4264TIP3    H236988   4.215   2.177  18.969 -0.5991  0.7856 -0.4003
 4265TIP3   OH236989   1.654   5.788  18.310  0.0501  0.4954  0.0521
 4265TIP3    H136990   1.635   5.882  18.302 -1.2062  0.4105  1.4751
 4265TIP3    H236991   1.677   5.776  18.402  1.8685 -0.3486 -0.4816
 4266TIP3   OH236992   6.250   4.235  19.371  0.5692  0.1796  0.0020
 4266TIP3    H136993   6.174   4.277  19.329 -0.6926 -1.8695  0.1303
 4266TIP3    H236994   6.244   4.262  19.463 -0.6306 -0.7717  0.2256
 4267TIP3   OH236995   1.960   2.406  19.940  0.4866  0.5791 -0.3529
 4267TIP3    H136996   2.016   2.330  19.957 -0.0444  0.4874  1.1704
 4267TIP3    H236997   2.014   2.482  19.961  0.0008  0.4823  1.3851
 4268TIP3   OH236998   6.365   5.473  19.298 -0.6786  0.2524  0.2859
 4268TIP3    H136999   6.409   5.432  19.373 -2.2282 -0.7932  0.6842
 4268TIP3    H237000   6.411   5.439  19.222  0.3513  0.6247  0.7239
 4269TIP3   OH237001   0.100   0.885  18.477 -0.2369  0.5703  0.3082
 4269TIP3    H137002   0.189   0.921  18.470  0.2509 -0.7200 -0.4696
 4269TIP3    H237003   0.068   0.884  18.387  0.1289 -1.7271  0.1316
 4270TIP3   OH237004   6.019   3.765  16.559  0.0065  0.2260  0.0530
 4270TIP3    H137005   5.941   3.787  16.508 -1.5201  0.8551  2.4750
 4270TIP3    H237006   5.996   3.790  16.648  2.4863 -0.9086  1.0858
 4271TIP3   OH237007   1.982   4.907  19.078 -0.1998  0.4401 -0.3605
 4271TIP3    H137008   1.953   4.976  19.138  0.8811  0.1590  0.4952
 4271TIP3    H237009   1.900   4.868  19.047 -0.8253  1.8195 -0.5464
 4272TIP3   OH237010   0.482   5.694  19.049 -0.7097  0.1495 -0.2349
 4272TIP3    H137011   0.541   5.768  19.040 -0.4762  0.1130  0.7912
 4272TIP3    H237012   0.396   5.728  19.027 -0.5077  0.5588 -0.3924
 4273TIP3   OH237013   0.049   4.280  19.094 -0.1188  0.8244  0.3303
 4273TIP3    H137014  -0.019   4.289  19.161 -0.0675  0.0625  0.5012
 4273TIP3    H237015   0.111   4.350  19.113  0.5390 -0.1086  1.8709
 4274TIP3   OH237016   4.952   0.974  18.625 -0.1705  0.1935 -0.1474
 4274TIP3    H137017   4.858   0.970  18.645 -0.5164 -0.1270 -1.7354
 4274TIP3    H237018   4.993   0.996  18.709 -1.5334 -1.0084  0.8845
 4275TIP3   OH237019   1.339   4.332  20.370  0.0770  0.5216 -0.3027
 4275TIP3    H137020   1.247   4.308  20.365  0.0092  1.0073 -2.0315
 4275TIP3    H237021   1.342   4.423  20.341  1.0966  0.5204 -0.2382
 4276TIP3   OH237022   3.875   2.980  19.359  0.4920 -0.3714 -0.1009
 4276TIP3    H137023   3.804   3.043  19.372  0.5853 -0.1230 -0.7537
 4276TIP3    H237024   3.942   3.029  19.311 -0.0966 -1.4014 -2.0766
 4277TIP3   OH237025   1.250   3.857  17.615 -0.4145  0.3421 -0.6003
 4277TIP3    H137026   1.255   3.783  17.677  0.6940  0.8957  0.0169
 4277TIP3    H237027   1.200   3.924  17.662 -0.3749  0.4237 -0.6746
 4278TIP3   OH237028   1.828   4.063  20.352 -0.1493 -0.0534  0.0568
 4278TIP3    H137029   1.847   4.078  20.444 -2.9482 -0.8347  0.8532
 4278TIP3    H237030   1.740   4.100  20.339 -1.5024 -3.3156 -1.2678
 4279TIP3   OH237031   3.024   3.630  18.549 -0.0532  0.2892  0.5318
 4279TIP3    H137032   2.940   3.667  18.525 -0.5192 -0.6453  0.6537
 4279TIP3    H237033   3.084   3.704  18.552 -0.2785  0.6585 -2.0824
 4280TIP3   OH237034   4.930   5.930  18.277  0.1674 -0.2910  0.6417
 4280TIP3    H137035   4.913   5.918  18.184  0.3285 -0.3755  0.6252
 4280TIP3    H237036   4.951   5.843  18.310  1.2232 -0.0906  0.5268
 4281TIP3   OH237037   2.645   0.052  19.246  0.4146  0.4351  0.4599
 4281TIP3    H137038   2.573   0.108  19.274 -0.0110 -0.2788  0.8121
 4281TIP3    H237039   2.603  -0.026  19.210  0.8750  1.7804 -3.4454
 4282TIP3   OH237040   3.882   2.516  17.721  0.2972 -0.0937 -0.0522
 4282TIP3    H137041   3.966   2.471  17.713  1.3838  1.6614  0.7779
 4282TIP3    H237042   3.882   2.579  17.648 -0.6761 -0.6162 -0.5183
 4283TIP3   OH237043   1.092   4.164  17.277 -0.4944  0.0022  0.0879
 4283TIP3    H137044   1.060   4.224  17.344 -0.1349  0.9309 -0.5546
 4283TIP3    H237045   1.013   4.119  17.246 -0.8258  0.4288  0.3003
 4284TIP3   OH237046   2.687   0.935  17.568  0.8168  0.6680 -0.0708
 4284TIP3    H137047   2.671   0.951  17.661 -1.2098  0.0517 -0.2525
 4284TIP3    H237048   2.745   0.859  17.566  1.5824  1.2222  0.6857
 4285TIP3   OH237049   4.076   2.489  19.205 -0.0694 -0.7524 -1.3838
 4285TIP3    H137050   3.981   2.496  19.208  0.0590  2.0636 -0.9836
 4285TIP3    H237051   4.105   2.501  19.295  0.6878 -1.9798 -1.4342
 4286TIP3   OH237052   5.259   6.178  17.716 -0.1133  0.0208 -0.3803
 4286TIP3    H137053   5.181   6.122  17.716  0.4873 -0.8308 -0.8214
 4286TIP3    H237054   5.279   6.190  17.623  1.4331 -1.4212 -0.2779
 4287TIP3   OH237055   5.992   4.231  18.806 -0.7339 -0.0743 -0.0082
 4287TIP3    H137056   6.071   4.221  18.754  0.6235  0.7887  1.7666
 4287TIP3    H237057   6.024   4.243  18.896 -2.9198 -0.6475  0.9135
 4288TIP3   OH237058   5.272   2.751  18.246  0.1106 -0.5683  0.0948
 4288TIP3    H137059   5.201   2.811  18.268  0.0911 -0.4773 -0.2113
 4288TIP3    H237060   5.234   2.691  18.182  0.2773 -0.5947  0.0187
 4289TIP3   OH237061   1.773   5.354  16.555 -0.5625 -0.3476  0.5671
 4289TIP3    H137062   1.745   5.445  16.547 -0.7772 -0.4748 -0.2421
 4289TIP3    H237063   1.765   5.318  16.467  0.0846 -0.9942  0.7587
 4290TIP3   OH237064   2.328   1.478  18.906 -0.5579 -0.2032 -0.6286
 4290TIP3    H137065   2.422   1.475  18.927 -0.5597  0.5061 -0.4850
 4290TIP3    H237066   2.301   1.386  18.905  0.1148 -0.4113 -0.5668
 4291TIP3   OH237067   2.625   3.057  17.992  0.3115  0.7495  0.3441
 4291TIP3    H137068   2.656   2.966  17.994  0.3149  0.7450  0.1197
 4291TIP3    H237069   2.582   3.065  17.907  0.1529  0.9057  0.4407
 4292TIP3   OH237070   4.815   5.398  17.989  0.0647  0.2352  0.0439
 4292TIP3    H137071   4.878   5.463  18.020  1.5020 -0.1781 -1.8189
 4292TIP3    H237072   4.840   5.318  18.035  1.3432 -0.0631 -1.0865
 4293TIP3   OH237073   2.514   5.520  20.017  0.4009  0.1452 -0.2127
 4293TIP3    H137074   2.425   5.483  20.019  0.0816  0.7428 -1.8568
 4293TIP3    H237075   2.500   5.615  20.014  1.0858  0.2406 -0.5074
 4294TIP3   OH237076   0.429   5.574  16.799 -0.4400 -0.0138  0.5130
 4294TIP3    H137077   0.352   5.626  16.825  0.6435  0.6298  2.6556
 4294TIP3    H237078   0.492   5.639  16.767 -0.2091 -0.3666  0.2500
 4295TIP3   OH237079   6.024   2.150  17.623  0.4064 -0.5273  0.0934
 4295TIP3    H137080   6.063   2.176  17.540  1.3380 -0.1415  0.6342
 4295TIP3    H237081   6.019   2.231  17.674 -0.0724 -0.7737  0.4445
 4296TIP3   OH237082   5.381   4.232  18.131  0.3876  0.3886 -0.0766
 4296TIP3    H137083   5.416   4.170  18.196  0.4458  0.7943  0.2862
 4296TIP3    H237084   5.336   4.298  18.184  1.7409  1.5684 -0.3420
 4297TIP3   OH237085   0.850   1.363  20.034  0.2803  0.7431 -0.1588
 4297TIP3    H137086   0.762   1.330  20.053  0.7066  0.2928  1.1686
 4297TIP3    H237087   0.837   1.455  20.014 -0.4496  0.7740  0.4026
 4298TIP3   OH237088   0.189   1.297  19.806 -0.3589  0.0564 -0.4125
 4298TIP3    H137089   0.149   1.225  19.757 -2.4376  0.6232  0.3451
 4298TIP3    H237090   0.272   1.261  19.837 -1.3140 -2.0488 -0.0581
 4299TIP3   OH237091   0.329   6.197  19.528  0.3783 -0.7521  0.7677
 4299TIP3    H137092   0.418   6.163  19.515  0.4353 -0.9817  1.7382
 4299TIP3    H237093   0.299   6.156  19.609 -0.9295 -1.3398  0.0218
 4300TIP3   OH237094   0.888   3.248  17.842  0.2256 -0.5356 -0.2783
 4300TIP3    H137095   0.843   3.316  17.892  0.1247 -2.1043  1.9354
 4300TIP3    H237096   0.981   3.269  17.850  0.1624 -0.3124 -0.1420
 4301TIP3   OH237097   1.261   4.400  18.456 -0.0304 -0.1370 -0.2416
 4301TIP3    H137098   1.175   4.419  18.492  0.6088 -0.8952  1.8327
 4301TIP3    H237099   1.317   4.386  18.533  1.4535 -1.7606 -1.5347
 4302TIP3   OH237100   4.578   0.914  19.515 -0.3614 -0.4987 -0.0760
 4302TIP3    H137101   4.512   0.861  19.471  0.8742 -0.0605 -2.6776
 4302TIP3    H237102   4.661   0.883  19.479  0.6130  1.1481  0.6394
 4303TIP3   OH237103   3.437   6.477  19.900  0.5038 -0.4210 -0.4212
 4303TIP3    H137104   3.464   6.527  19.977 -3.0546 -0.3350  0.9284
 4303TIP3    H237105   3.519   6.438  19.868  2.2600  0.0341  3.0054
 4304TIP3   OH237106   4.392   0.161  18.663 -0.0783  0.3117  0.2523
 4304TIP3    H137107   4.344   0.239  18.636 -0.1728  0.1270 -0.1205
 4304TIP3    H237108   4.481   0.192  18.680 -0.0013  0.4190 -0.3369
 4305TIP3   OH237109   3.845   5.294  17.785  0.5637  0.3024 -0.4444
 4305TIP3    H137110   3.812   5.210  17.755  0.6270  0.4509 -0.9300
 4305TIP3    H237111   3.938   5.292  17.764  0.6990  0.2272  0.1481
 4306TIP3   OH237112   6.112   0.060  19.671  0.1587  0.1967 -0.1951
 4306TIP3    H137113   6.032   0.015  19.698 -0.8747  1.1536 -1.5041
 4306TIP3    H237114   6.176  -0.009  19.661 -1.2482 -0.9797 -1.6817
 4307TIP3   OH237115   6.148   2.600  17.042  0.4297 -0.1305 -0.3719
 4307TIP3    H137116   6.235   2.642  17.045  0.0705  0.6102  0.0371
 4307TIP3    H237117   6.113   2.625  16.956  1.2214 -1.7113 -1.1972
 4308TIP3   OH237118   3.144   5.193  18.736  0.1838 -0.7071 -0.2079
 4308TIP3    H137119   3.149   5.101  18.763 -0.1360 -0.7384 -0.2564
 4308TIP3    H237120   3.103   5.238  18.810  1.2612 -0.4200  0.2498
 4309TIP3   OH237121   1.516   3.419  19.567  0.8095 -0.3590  0.2148
 4309TIP3    H137122   1.451   3.372  19.514 -0.0951  1.1705 -0.1162
 4309TIP3    H237123   1.487   3.511  19.563  1.8008  0.0573  1.8190
 4310TIP3   OH237124   2.951   3.051  18.124  0.0987  0.1462 -0.1534
 4310TIP3    H137125   3.005   2.974  18.104  1.1903 -0.3416  3.8684
 4310TIP3    H237126   2.868   3.015  18.155  0.4282  0.5443  1.2626
 4311TIP3   OH237127   5.554   3.923  17.213  0.7385  0.1723 -0.1601
 4311TIP3    H137128   5.611   3.929  17.137  0.5008 -0.4072 -0.3928
 4311TIP3    H237129   5.470   3.894  17.178  0.3695  0.7737  0.2138
 4312TIP3   OH237130   5.205   2.368  20.059 -0.0990  0.0914 -0.3354
 4312TIP3    H137131   5.168   2.439  20.112  0.1566 -1.5083  2.1732
 4312TIP3    H237132   5.294   2.396  20.041 -0.9156  1.7673 -2.1803
 4313TIP3   OH237133   3.975   4.703  19.205  0.2682  0.7091 -0.0290
 4313TIP3    H137134   3.922   4.627  19.231 -0.7177  1.4072  0.0656
 4313TIP3    H237135   4.020   4.729  19.286  0.0138  0.6819  0.1248
 4314TIP3   OH237136   6.500   3.510  19.395  0.7048 -0.1131 -0.0721
 4314TIP3    H137137   6.494   3.588  19.340 -0.6231 -0.0810  0.0843
 4314TIP3    H237138   6.461   3.440  19.342 -0.9994  0.0098  0.9374
 4315TIP3   OH237139   1.800   3.554  18.952  0.1349  0.3285  0.2735
 4315TIP3    H137140   1.869   3.501  18.992  1.2114  2.5747  1.6377
 4315TIP3    H237141   1.835   3.576  18.866  0.7754  0.7031  0.6118
 4316TIP3   OH237142   3.281   1.384  19.483 -0.0398 -0.4097  0.3269
 4316TIP3    H137143   3.228   1.306  19.469  1.4361 -1.2813 -0.7309
 4316TIP3    H237144   3.259   1.442  19.410  1.5124 -1.4259 -1.0267
 4317TIP3   OH237145   0.628   4.777  16.730  0.0856  0.3402  0.2597
 4317TIP3    H137146   0.699   4.839  16.713  1.7083 -1.1469  1.2946
 4317TIP3    H237147   0.626   4.720  16.653 -1.1765  1.4019 -0.5356
 4318TIP3   OH237148   0.053   4.337  18.624  0.1701  0.4198 -0.6138
 4318TIP3    H137149   0.120   4.273  18.602  1.1230  0.5564  1.6059
 4318TIP3    H237150  -0.007   4.291  18.682 -0.3122  0.9511 -0.6795
 4319TIP3   OH237151   4.937   5.742  17.396  0.4098  0.0527 -0.0844
 4319TIP3    H137152   4.972   5.684  17.463 -0.4976 -1.7430 -1.0835
 4319TIP3    H237153   4.953   5.696  17.314 -2.3671  0.0710 -0.7321
 4320TIP3   OH237154   3.602   0.083  18.996  0.3542 -0.4673  0.4628
 4320TIP3    H137155   3.647   0.038  18.924  1.2577 -3.4628  2.7014
 4320TIP3    H237156   3.510   0.059  18.987 -0.0631  1.4913 -1.1946
 4321TIP3   OH237157   1.894   0.788  16.977 -0.5574 -0.1659  0.3672
 4321TIP3    H137158   1.816   0.749  16.937 -1.1324  1.6393 -0.4085
 4321TIP3    H237159   1.861   0.833  17.055 -0.0577 -0.4648  0.7593
 4322TIP3   OH237160   4.180   0.585  18.385 -0.0643 -0.3064  0.3831
 4322TIP3    H137161   4.090   0.608  18.361  0.3359  1.3335  0.3166
 4322TIP3    H237162   4.232   0.659  18.353  1.1796 -0.7533  1.3250
 4323TIP3   OH237163   4.413   6.662  17.280  0.0181  0.4014  0.0930
 4323TIP3    H137164   4.483   6.670  17.216  0.0410 -1.5629 -0.1927
 4323TIP3    H237165   4.333   6.675  17.229  0.0959  0.2235 -0.0769
 4324TIP3   OH237166   1.592   6.051  18.258  0.2966 -0.3206 -0.7029
 4324TIP3    H137167   1.536   6.100  18.319  2.7674 -0.7247  2.1170
 4324TIP3    H237168   1.611   6.113  18.188 -2.0904  0.4160 -0.7908
 4325TIP3   OH237169   2.145   0.016  18.563 -0.6164  0.7544  0.4323
 4325TIP3    H137170   2.051  -0.000  18.571 -0.2956 -1.7226 -0.0005
 4325TIP3    H237171   2.166  -0.004  18.472  0.4727  0.2654  0.7657
 4326TIP3   OH237172   1.980   4.915  19.716 -0.5008  0.3569 -0.7653
 4326TIP3    H137173   1.947   4.825  19.720 -0.3665  0.3076 -0.7253
 4326TIP3    H237174   1.987   4.934  19.623 -0.4586  0.2979 -0.7754
 4327TIP3   OH237175   3.262   4.168  17.625 -0.0089 -0.6259 -0.0767
 4327TIP3    H137176   3.194   4.118  17.671 -0.3109  0.5408  0.8056
 4327TIP3    H237177   3.302   4.221  17.693 -0.0796  0.7334 -1.0542
 4328TIP3   OH237178   3.358   0.891  19.419 -0.5016  0.1880  0.1271
 4328TIP3    H137179   3.380   0.799  19.408  1.4197  0.7025 -0.8234
 4328TIP3    H237180   3.320   0.917  19.335 -0.1781  0.4685  0.0631
 4329TIP3   OH237181   6.179   2.339  19.645 -0.0233 -0.4789  0.1374
 4329TIP3    H137182   6.180   2.430  19.618  0.3635  0.1862  2.2007
 4329TIP3    H237183   6.095   2.306  19.614  0.4697  0.0914 -1.9735
 4330TIP3   OH237184   3.219   2.251  20.078 -0.0332 -0.2660 -0.3160
 4330TIP3    H137185   3.207   2.156  20.083 -2.7124 -0.0906 -1.7959
 4330TIP3    H237186   3.313   2.263  20.064  0.8732 -2.4901  2.8200
 4331TIP3   OH237187   4.172   4.285  17.796  0.2788 -0.5429 -0.4530
 4331TIP3    H137188   4.247   4.344  17.807  0.5261 -0.3949 -2.5787
 4331TIP3    H237189   4.098   4.344  17.779 -0.2638 -0.7151  1.1305
 4332TIP3   OH237190   4.530   2.830  17.258 -0.2899 -0.5535 -0.6249
 4332TIP3    H137191   4.484   2.746  17.264 -0.4241 -0.6130 -2.1205
 4332TIP3    H237192   4.573   2.839  17.343  0.5108 -2.5972 -0.7363
 4333TIP3   OH237193   6.319   4.124  19.833  0.5907 -0.1526  0.4821
 4333TIP3    H137194   6.335   4.170  19.915  0.5132 -1.9807  1.5966
 4333TIP3    H237195   6.381   4.051  19.834 -1.3975 -1.9587  0.4160
 4334TIP3   OH237196   3.028   6.202  17.415 -0.4759  0.0396 -0.2544
 4334TIP3    H137197   2.955   6.209  17.476 -0.5621  1.2942 -0.4829
 4334TIP3    H237198   3.090   6.143  17.459 -1.5871 -1.0232 -0.0463
 4335TIP3   OH237199   3.209   1.978  19.167  0.0189  0.1020  0.5299
 4335TIP3    H137200   3.275   1.912  19.189  1.3801  1.0955 -0.3979
 4335TIP3    H237201   3.249   2.061  19.193 -0.9169  0.7198  0.0469
 4336TIP3   OH237202   0.398   4.868  18.466  0.8264 -0.0295 -0.0687
 4336TIP3    H137203   0.442   4.826  18.393 -1.0329  0.4904 -1.5498
 4336TIP3    H237204   0.387   4.959  18.439 -1.3607 -0.1975  0.1031
 4337TIP3   OH237205   0.427   0.235  17.643 -0.2968 -0.0891  0.4928
 4337TIP3    H137206   0.404   0.177  17.716 -2.1190  0.6108  0.5361
 4337TIP3    H237207   0.395   0.189  17.565 -0.6489  0.2859  0.4087
 4338TIP3   OH237208   5.106   4.697  18.055  0.2764  0.2635  0.1942
 4338TIP3    H137209   5.196   4.720  18.034  0.5378  1.2413  2.2150
 4338TIP3    H237210   5.072   4.773  18.102 -1.0231 -0.8259  1.0711
 4339TIP3   OH237211   5.286   5.159  19.376 -0.3775  0.4309  0.5403
 4339TIP3    H137212   5.280   5.248  19.342 -2.2231  0.4823  0.8882
 4339TIP3    H237213   5.326   5.109  19.306  1.5500  1.6669  0.6705
 4340TIP3   OH237214   3.346   1.012  19.651  0.5160 -0.0904 -0.3391
 4340TIP3    H137215   3.374   0.974  19.568  1.5826 -1.6679  0.6921
 4340TIP3    H237216   3.404   0.973  19.716 -0.3234  1.0701  1.1707
 4341TIP3   OH237217   5.903   0.128  18.875  0.2722  0.2385  0.0410
 4341TIP3    H137218   5.877   0.184  18.802  1.0646 -0.1914 -0.5925
 4341TIP3    H237219   5.930   0.189  18.944 -0.6602  0.6514  0.0491
 4342TIP3   OH237220   4.133   5.751  19.853 -0.3484  1.2144 -0.2727
 4342TIP3    H137221   4.073   5.779  19.922 -2.5682 -0.4162 -1.4243
 4342TIP3    H237222   4.159   5.662  19.878  2.0330  2.0282  0.4160
 4343TIP3   OH237223   1.976   4.404  16.227  0.3215  0.5192 -0.5725
 4343TIP3    H137224   1.936   4.322  16.257  0.2797  0.3815 -0.9905
 4343TIP3    H237225   1.903   4.461  16.205  0.3443  0.9871  0.5357
 4344TIP3   OH237226   1.814   4.154  17.928 -0.1206  0.2611 -0.0296
 4344TIP3    H137227   1.836   4.134  18.019 -1.5455  1.3456  0.5842
 4344TIP3    H237228   1.881   4.216  17.900 -0.3278  0.8136  0.6699
 4345TIP3   OH237229   5.914   3.307  17.821 -0.5343 -0.4340  0.8737
 4345TIP3    H137230   5.841   3.348  17.775  0.1630 -0.7719 -0.5882
 4345TIP3    H237231   5.903   3.213  17.805  1.4202 -0.3727 -1.3210
 4346TIP3   OH237232   6.350   0.244  17.478  0.2955 -0.0847  0.1286
 4346TIP3    H137233   6.430   0.197  17.504 -1.2156 -1.8798  1.9018
 4346TIP3    H237234   6.350   0.240  17.383  2.8111  0.9000 -0.0003
 4347TIP3   OH237235   5.975   1.725  20.385  0.1367  0.5016 -0.0464
 4347TIP3    H137236   6.012   1.687  20.464  1.0310  0.7287 -0.3398
 4347TIP3    H237237   6.043   1.785  20.353 -0.5302  1.0105 -0.5476
 4348TIP3   OH237238   1.067   0.702  17.324 -0.0325  0.6066 -0.0491
 4348TIP3    H137239   1.124   0.779  17.317  0.2125  0.7203  2.3839
 4348TIP3    H237240   0.979   0.736  17.309  0.0744  1.3832  0.9768
 4349TIP3   OH237241   5.784   5.007  19.939  0.4769  0.1791  0.8125
 4349TIP3    H137242   5.766   4.989  20.031  3.4396  0.9665  1.6456
 4349TIP3    H237243   5.754   4.928  19.893 -0.2659 -0.6010  2.5423
 4350TIP3   OH237244   0.568   4.082  18.190  0.3207 -0.5613 -0.1564
 4350TIP3    H137245   0.545   4.126  18.272  1.0323 -0.2302 -0.1195
 4350TIP3    H237246   0.591   4.154  18.130  0.5273 -0.8343 -0.4087
 4351TIP3   OH237247   5.626   0.768  19.352  0.0620 -0.3012  0.3090
 4351TIP3    H137248   5.652   0.759  19.260 -1.5830  1.2138 -0.3621
 4351TIP3    H237249   5.593   0.858  19.359 -0.6147 -0.6527  2.1828
 4352TIP3   OH237250   5.235   0.587  19.817 -0.5410 -0.0572  0.0763
 4352TIP3    H137251   5.155   0.612  19.770  0.3462  0.6681 -1.0888
 4352TIP3    H237252   5.206   0.522  19.881 -2.3267  1.2873  0.7177
 4353TIP3   OH237253   4.920   6.113  20.169 -0.0869 -0.2410  0.1006
 4353TIP3    H137254   4.994   6.107  20.229  1.7107  1.0464 -1.8730
 4353TIP3    H237255   4.856   6.166  20.217  1.5716  1.3700  0.6697
 4354TIP3   OH237256   4.168   0.212  18.987 -0.4319  0.0399 -0.0755
 4354TIP3    H137257   4.193   0.120  18.994  1.2076  0.3276 -1.4472
 4354TIP3    H237258   4.083   0.211  18.943  0.0352 -0.7938 -0.9858
 4355TIP3   OH237259   6.481   5.622  17.761 -0.3294 -0.2675 -0.1985
 4355TIP3    H137260   6.546   5.638  17.830  0.6542  2.2905 -1.5464
 4355TIP3    H237261   6.526   5.563  17.700 -0.6959 -1.4430  0.6357
 4356TIP3   OH237262   1.223   2.799  19.526 -0.5493 -0.4936  0.2486
 4356TIP3    H137263   1.171   2.879  19.518  1.2259  0.6223 -0.6622
 4356TIP3    H237264   1.229   2.766  19.436 -0.0769 -0.8666  0.4151
 4357TIP3   OH237265   2.990   0.964  18.715 -0.2102  0.6286  0.1111
 4357TIP3    H137266   2.925   0.938  18.780 -0.5394  0.9855 -0.0673
 4357TIP3    H237267   3.044   1.030  18.759 -1.4242  2.0513 -0.4593
 4358TIP3   OH237268   3.040   5.386  17.454 -0.2885 -0.0425 -0.1499
 4358TIP3    H137269   2.993   5.325  17.398 -2.6782  0.4590  1.1558
 4358TIP3    H237270   2.976   5.455  17.473  1.1943  1.0181  1.2387
 4359TIP3   OH237271   4.934   2.273  19.363  0.4788  0.2867 -0.0865
 4359TIP3    H137272   4.916   2.342  19.427 -1.1431  0.0475 -0.2481
 4359TIP3    H237273   4.944   2.320  19.280 -2.1155  0.3042 -0.4817
 4360TIP3   OH237274   6.047   0.403  18.057  0.3676 -0.1602 -0.2809
 4360TIP3    H137275   6.005   0.356  17.985 -1.2009  0.0795  0.4297
 4360TIP3    H237276   6.089   0.335  18.110  0.5356 -0.4553 -0.7956
 4361TIP3   OH237277   1.492   4.497  16.710  0.2284 -0.0109  0.4432
 4361TIP3    H137278   1.434   4.474  16.783  0.2117  0.2672  0.5156
 4361TIP3    H237279   1.462   4.583  16.681 -0.2466 -0.4263 -0.3679
 4362TIP3   OH237280   4.449   0.706  17.530  0.2162 -0.5652  0.4296
 4362TIP3    H137281   4.436   0.630  17.588 -0.9388  0.1214  1.1020
 4362TIP3    H237282   4.544   0.720  17.531  0.3020 -1.0747  1.5038
 4363TIP3   OH237283   0.315   0.761  18.675 -0.0461  0.0248 -0.2102
 4363TIP3    H137284   0.324   0.809  18.593 -1.7579  0.8988  0.0580
 4363TIP3    H237285   0.290   0.828  18.739  0.5117 -0.7641  0.8535
 4364TIP3   OH237286   6.262   1.728  17.961 -0.1271 -0.2399  0.2173
 4364TIP3    H137287   6.222   1.737  18.047  0.0236 -0.5583  0.3187
 4364TIP3    H237288   6.192   1.753  17.900 -0.3195 -0.2805  0.4199
 4365TIP3   OH237289   3.618   6.098  18.794 -0.4708 -0.3263 -0.1803
 4365TIP3    H137290   3.665   6.041  18.734 -1.6994 -0.4994 -1.0140
 4365TIP3    H237291   3.667   6.092  18.876 -0.3804 -2.3266 -0.3343
 4366TIP3   OH237292   5.745   3.764  20.216 -0.0292  0.3468  0.0937
 4366TIP3    H137293   5.716   3.673  20.207 -0.4681  0.6703 -2.6208
 4366TIP3    H237294   5.832   3.758  20.255 -0.2229 -1.2106  0.3405
 4367TIP3   OH237295   1.303   3.489  18.875 -0.1986 -0.1844 -0.1734
 4367TIP3    H137296   1.215   3.524  18.859  0.3666  1.1432 -0.4957
 4367TIP3    H237297   1.361   3.564  18.864  1.0019 -1.0802 -0.1351
 4368TIP3   OH237298   1.696   0.446  19.977  0.3572  0.7221 -0.0646
 4368TIP3    H137299   1.752   0.442  20.055 -1.3149 -0.7814  1.1587
 4368TIP3    H237300   1.615   0.487  20.008 -1.4734 -2.4733 -0.1324
 4369TIP3   OH237301   3.949   1.354  18.588 -0.0620  0.4318 -0.0209
 4369TIP3    H137302   3.994   1.347  18.672  1.2479  2.1699 -0.5178
 4369TIP3    H237303   3.866   1.307  18.601  0.4644 -0.0246  1.9669
 4370TIP3   OH237304   4.351   5.929  17.907  0.1450 -0.2241  0.2173
 4370TIP3    H137305   4.258   5.910  17.905  0.4997 -2.1403  0.1463
 4370TIP3    H237306   4.394   5.843  17.906  1.9353  0.6192 -0.7816
 4371TIP3   OH237307   4.235   2.968  19.645 -0.3198 -0.0487 -0.1109
 4371TIP3    H137308   4.206   2.947  19.557 -1.4190 -0.9626  0.4461
 4371TIP3    H237309   4.302   3.036  19.633  0.3443 -0.9442 -1.7021
 4372TIP3   OH237310   1.632   3.134  18.397  0.1527  0.1672  0.2962
 4372TIP3    H137311   1.591   3.047  18.398 -0.8266  0.5592  3.4472
 4372TIP3    H237312   1.587   3.181  18.327  0.0249 -1.5292 -0.8141
 4373TIP3   OH237313   2.314   4.891  18.021 -0.1027 -0.1740 -0.1596
 4373TIP3    H137314   2.273   4.978  18.016 -1.0675 -0.6413 -0.8839
 4373TIP3    H237315   2.393   4.899  17.968 -0.6179  0.0567 -0.9225
 4374TIP3   OH237316   0.493   1.679  19.628  0.7658  0.0701 -0.5726
 4374TIP3    H137317   0.434   1.605  19.643  1.9612 -0.6000  1.1958
 4374TIP3    H237318   0.525   1.701  19.715 -0.5252  3.5676 -0.8474
 4375TIP3   OH237319   1.658   0.322  17.959  0.1617  0.0434 -0.7074
 4375TIP3    H137320   1.608   0.276  17.892  0.9448 -0.4839 -0.9393
 4375TIP3    H237321   1.721   0.375  17.909  0.6390 -0.2280 -0.4016
 4376TIP3   OH237322   3.983   0.634  16.521 -0.9543  1.0188 -0.1454
 4376TIP3    H137323   4.057   0.680  16.560 -0.4626  0.1857 -0.0721
 4376TIP3    H237324   4.015   0.605  16.435 -2.2417  3.4542 -1.5563
 4377TIP3   OH237325   1.156   2.137  18.878 -0.8040  0.0166 -0.0750
 4377TIP3    H137326   1.076   2.093  18.908 -1.0102  1.0533  0.9983
 4377TIP3    H237327   1.129   2.227  18.862  0.3489  0.6759  1.4227
 4378TIP3   OH237328   0.986   4.061  18.895 -0.0727  0.1796  0.0156
 4378TIP3    H137329   0.985   4.095  18.984  3.9545 -3.2610  1.7241
 4378TIP3    H237330   1.006   4.138  18.841 -1.6197  2.1949  2.0750
 4379TIP3   OH237331   6.491   4.783  17.528 -0.4073  0.7540  0.3101
 4379TIP3    H137332   6.516   4.875  17.536  0.3251  0.6933 -1.0076
 4379TIP3    H237333   6.490   4.767  17.434 -1.1751 -0.4240  0.5033
 4380TIP3   OH237334   0.851   5.871  16.486  0.1816 -0.6174  0.4059
 4380TIP3    H137335   0.802   5.871  16.403  1.2088  2.1565 -0.3090
 4380TIP3    H237336   0.928   5.817  16.468 -0.5138 -1.5633  0.1858
 4381TIP3   OH237337   4.127   1.632  17.496 -0.0600 -0.0027 -0.4977
 4381TIP3    H137338   4.150   1.546  17.460 -0.0503  0.5439 -1.8326
 4381TIP3    H237339   4.058   1.665  17.438 -1.1494  0.2717  0.8785
 4382TIP3   OH237340   0.828   4.221  19.370 -0.1168 -0.6407  0.0200
 4382TIP3    H137341   0.739   4.186  19.364 -0.4950  0.0903  0.9822
 4382TIP3    H237342   0.816   4.316  19.370  0.4368 -0.4976  2.3283
 4383TIP3   OH237343   1.705   2.481  20.000  0.5910 -0.6519 -0.1941
 4383TIP3    H137344   1.790   2.441  19.983  1.1077  0.0052  0.7494
 4383TIP3    H237345   1.702   2.556  19.941  2.2143  1.3939  2.1165
 4384TIP3   OH237346   1.351   0.007  19.767 -0.2945  0.0208  0.0134
 4384TIP3    H137347   1.398   0.046  19.841  0.4621 -1.0582  0.1256
 4384TIP3    H237348   1.258   0.013  19.791 -0.1762  1.2744  0.2339
 4385TIP3   OH237349   3.665   3.094  19.489 -0.3073  0.2559  0.2696
 4385TIP3    H137350   3.598   3.143  19.442 -1.2776 -0.7826  0.5389
 4385TIP3    H237351   3.617   3.026  19.536  1.0180 -1.1816 -0.3678
 4386TIP3   OH237352   1.530   0.695  19.790 -0.3157  0.0360 -0.3564
 4386TIP3    H137353   1.506   0.624  19.849 -2.4822 -0.8117 -2.1077
 4386TIP3    H237354   1.469   0.765  19.811  0.3203  0.5444 -0.1680
 4387TIP3   OH237355   2.808   3.737  19.909  0.0532 -0.2081 -0.5854
 4387TIP3    H137356   2.901   3.714  19.909 -0.0524 -0.6649  0.0628
 4387TIP3    H237357   2.762   3.654  19.901 -0.3049  0.0179 -0.9113
 4388TIP3   OH237358   5.992   5.617  20.100  0.3158 -0.1214 -0.1514
 4388TIP3    H137359   6.000   5.702  20.143  1.2144  0.3342 -1.1500
 4388TIP3    H237360   6.074   5.572  20.119 -0.5847 -1.2519  1.2871
 4389TIP3   OH237361   5.484   3.905  20.180 -0.2790 -0.0532 -0.3017
 4389TIP3    H137362   5.566   3.856  20.186  0.1729  0.6352 -0.7149
 4389TIP3    H237363   5.439   3.868  20.104 -0.1328 -0.1217 -0.3553
 4390TIP3   OH237364   5.708   6.323  19.705  0.1103  0.5070 -0.2257
 4390TIP3    H137365   5.733   6.302  19.795  1.6261 -0.6828 -0.8717
 4390TIP3    H237366   5.620   6.286  19.696  1.4523 -3.1209 -0.3393
 4391TIP3   OH237367   0.655   1.521  18.230 -0.2343 -0.0397 -0.4217
 4391TIP3    H137368   0.582   1.477  18.275  1.5941  0.0529  2.9272
 4391TIP3    H237369   0.710   1.449  18.199 -0.1942 -0.1266 -0.1565
 4392TIP3   OH237370   6.494   3.275  18.553  0.6734 -0.3202 -0.2265
 4392TIP3    H137371   6.576   3.299  18.596  0.7725 -2.8162  1.2025
 4392TIP3    H237372   6.514   3.193  18.508 -1.2993 -1.7363  1.2860
 4393TIP3   OH237373   4.156   0.055  19.899 -0.1885 -0.3419 -0.0820
 4393TIP3    H137374   4.208   0.085  19.974 -3.7584  1.3152  2.0070
 4393TIP3    H237375   4.165   0.125  19.835  1.6269 -1.0128 -0.6150
 4394TIP3   OH237376   0.126   5.497  17.094  0.0861 -0.3690 -0.4057
 4394TIP3    H137377   0.165   5.411  17.106 -1.5764 -1.1431 -0.3559
 4394TIP3    H237378   0.103   5.500  17.001  0.1217  0.0264 -0.4053
 4395TIP3   OH237379   0.761   3.514  18.771  0.0755  0.6394 -0.1267
 4395TIP3    H137380   0.673   3.480  18.790 -0.3678  1.4432 -0.6655
 4395TIP3    H237381   0.816   3.479  18.840 -0.4013 -0.9743 -0.5253
 4396TIP3   OH237382   4.446   0.332  19.410  0.1697 -0.7123 -0.0724
 4396TIP3    H137383   4.464   0.410  19.358  0.9671  0.4886  1.9255
 4396TIP3    H237384   4.442   0.261  19.345  3.7609  0.2630 -1.6127
 4397TIP3   OH237385   0.145   1.772  19.934 -0.3508 -0.1429  0.8157
 4397TIP3    H137386   0.050   1.771  19.920 -0.3259  0.1608  0.6361
 4397TIP3    H237387   0.175   1.855  19.896 -0.1372  0.1850  1.6694
 4398TIP3   OH237388   4.191   2.657  18.718  0.2870  0.1298 -0.2646
 4398TIP3    H137389   4.249   2.665  18.642 -0.9464 -2.4153 -1.6251
 4398TIP3    H237390   4.184   2.562  18.732 -1.1601  0.4734  1.7516
 4399TIP3   OH237391   4.005   3.304  17.673  0.6185 -0.0044  0.2807
 4399TIP3    H137392   4.094   3.272  17.688  0.7597 -0.0805 -0.6669
 4399TIP3    H237393   3.953   3.225  17.661  0.9316  0.0694 -1.8646
 4400TIP3   OH237394   6.062   1.596  19.198  0.5621 -0.0821 -0.4850
 4400TIP3    H137395   6.023   1.516  19.163  0.2104  0.2308 -0.8241
 4400TIP3    H237396   5.990   1.640  19.243  0.1326  1.1572 -2.2620
 4401TIP3   OH237397   4.023   2.157  17.488  0.0478  0.3046  0.0909
 4401TIP3    H137398   4.000   2.130  17.399  0.4106  1.4316 -0.3651
 4401TIP3    H237399   3.940   2.158  17.536 -0.0717 -0.8606 -0.0664
 4402TIP3   OH237400   4.425   2.794  17.690  0.8507 -0.7678 -0.4683
 4402TIP3    H137401   4.460   2.808  17.778  0.0059  0.5405 -0.2949
 4402TIP3    H237402   4.389   2.706  17.692 -1.2019  0.0121  1.2861
 4403TIP3   OH237403   3.249   2.697  18.704 -0.2338  0.0922 -0.3404
 4403TIP3    H137404   3.339   2.665  18.707 -0.2731  0.0093 -0.0739
 4403TIP3    H237405   3.232   2.710  18.611  0.5604  1.5498 -0.3138
 4404TIP3   OH237406   5.316   0.483  17.322  0.1396  0.4820  0.3281
 4404TIP3    H137407   5.287   0.455  17.235  0.2792 -1.1483  0.7730
 4404TIP3    H237408   5.349   0.403  17.363  1.3120  1.4709  1.4006
 4405TIP3   OH237409   5.087   2.944  18.344 -0.1370  0.1276  0.2269
 4405TIP3    H137410   4.994   2.959  18.358 -0.3891 -0.5973 -0.5883
 4405TIP3    H237411   5.122   3.030  18.322 -1.1402  0.0083 -2.1872
 4406TIP3   OH237412   6.347   1.108  18.992  0.0215  0.2566 -0.2137
 4406TIP3    H137413   6.390   1.152  18.919 -0.9786  1.4138 -0.1398
 4406TIP3    H237414   6.393   1.139  19.070 -0.7598  1.3193 -0.1521
 4407TIP3   OH237415   0.534   1.977  20.034 -0.5023  0.5780 -0.6407
 4407TIP3    H137416   0.543   2.072  20.035  0.1601  0.5195 -0.2535
 4407TIP3    H237417   0.624   1.944  20.032 -0.7168 -0.0468 -0.4211
 4408TIP3   OH237418   3.445   4.319  19.336 -0.1187  0.4862  0.3557
 4408TIP3    H137419   3.539   4.331  19.350 -0.3022 -0.2982  2.6748
 4408TIP3    H237420   3.431   4.225  19.350 -1.1273  0.4233 -0.9189
 4409TIP3   OH237421   1.318   2.929  19.922  0.2544  0.1172 -0.1246
 4409TIP3    H137422   1.278   2.848  19.891 -0.3090  0.2432  0.2709
 4409TIP3    H237423   1.378   2.902  19.991 -0.1570  0.0721  0.2110
 4410TIP3   OH237424   3.261   2.187  19.744  0.2212  0.0557  0.1268
 4410TIP3    H137425   3.298   2.153  19.825 -0.7173 -2.9884 -0.5923
 4410TIP3    H237426   3.333   2.187  19.682  0.0599 -1.6693 -0.1055
 4411TIP3   OH237427   0.042   0.627  18.103  0.1807 -0.2568  0.1582
 4411TIP3    H137428   0.039   0.554  18.165 -2.0414 -0.4671 -0.0914
 4411TIP3    H237429   0.020   0.704  18.156  3.5360  0.5176  0.6425
 4412TIP3   OH237430   1.278   0.074  17.997 -0.3190 -0.4849 -0.0009
 4412TIP3    H137431   1.291   0.168  18.010  1.6077 -0.8554  1.2831
 4412TIP3    H237432   1.236   0.045  18.078 -0.4060 -0.8315 -0.1682
 4413TIP3   OH237433   2.075   1.108  18.448 -0.1628 -0.0156  0.1837
 4413TIP3    H137434   1.990   1.134  18.483  0.1370  0.9093  0.2504
 4413TIP3    H237435   2.055   1.034  18.391 -1.0292  0.2839  0.0780
 4414TIP3   OH237436   6.468   0.093  18.543  0.3101  0.1731  0.3745
 4414TIP3    H137437   6.453   0.154  18.616 -1.2963 -0.5766  0.7264
 4414TIP3    H237438   6.517   0.021  18.581  1.2890  0.7432  0.2095
 4415TIP3   OH237439   5.571   3.489  18.273  0.2084  0.0997  0.3922
 4415TIP3    H137440   5.590   3.395  18.279 -0.7179 -0.0469  1.0844
 4415TIP3    H237441   5.641   3.530  18.323  0.8805 -0.1772 -0.2926
 4416TIP3   OH237442   5.241   5.471  20.166 -0.5181  0.0704  0.2185
 4416TIP3    H137443   5.209   5.386  20.195  1.2295  0.1067  2.5745
 4416TIP3    H237444   5.332   5.455  20.141 -0.2878  1.1490  0.2963
 4417TIP3   OH237445   1.457   2.562  20.079 -0.0551  0.3637 -0.1630
 4417TIP3    H137446   1.548   2.530  20.081 -0.3682 -0.5116  0.7716
 4417TIP3    H237447   1.465   2.657  20.085  0.7878  0.2629  0.4553
 4418TIP3   OH237448   0.484   0.002  17.859 -0.2475  0.2220 -0.0159
 4418TIP3    H137449   0.438  -0.054  17.922 -1.6601  0.5564 -0.7007
 4418TIP3    H237450   0.537  -0.058  17.808  0.0565 -0.1912  0.7724
 4419TIP3   OH237451   1.405   5.544  18.949 -0.5934  0.1851 -0.7324
 4419TIP3    H137452   1.449   5.459  18.953 -0.7090  0.0531 -1.8081
 4419TIP3    H237453   1.443   5.595  19.021 -2.0903 -1.4833  1.3271
 4420TIP3   OH237454   6.444   3.113  20.094 -0.0950 -0.0450  0.5525
 4420TIP3    H137455   6.435   3.101  20.000 -0.9799 -0.0149  0.6265
 4420TIP3    H237456   6.539   3.117  20.109  0.0377  1.4100 -0.5130
 4421TIP3   OH237457   1.500   5.305  17.714  0.2950  0.0447  0.4319
 4421TIP3    H137458   1.477   5.340  17.800 -1.4542  0.7584 -0.2946
 4421TIP3    H237459   1.419   5.307  17.664  0.5341 -3.2382 -0.3089
 4422TIP3   OH237460   2.307   5.932  19.791 -0.0018  0.3112  0.1004
 4422TIP3    H137461   2.304   5.945  19.696  0.9121 -0.0986  0.0064
 4422TIP3    H237462   2.252   6.002  19.827  1.4942  1.9276 -0.5965
 4423TIP3   OH237463   0.041   3.054  20.122 -0.6201 -0.2566  0.1484
 4423TIP3    H137464   0.132   3.043  20.096 -0.8550 -0.3580 -0.6553
 4423TIP3    H237465   0.043   3.123  20.189 -0.1259  0.8731 -0.9933
 4424TIP3   OH237466   6.237   3.264  18.643  0.1439  0.0859  0.1483
 4424TIP3    H137467   6.327   3.272  18.613  1.3358 -0.5103  3.1633
 4424TIP3    H237468   6.221   3.170  18.648 -0.1601  0.1606  0.8185
 4425TIP3   OH237469   2.659   1.233  18.333 -0.1095  0.1971 -0.5421
 4425TIP3    H137470   2.667   1.324  18.305  1.9205  0.9334  2.0757
 4425TIP3    H237471   2.566   1.212  18.321 -0.8352  2.9375 -0.2987
 4426TIP3   OH237472   4.957   1.356  19.887 -0.1416 -0.2897 -0.2365
 4426TIP3    H137473   4.980   1.335  19.797  0.2245  1.3493 -0.5681
 4426TIP3    H237474   4.878   1.409  19.881  1.3395  2.1205  0.1219
 4427TIP3   OH237475   0.594   3.730  17.058 -0.4315  0.0640  0.8059
 4427TIP3    H137476   0.617   3.663  16.994  1.4566  1.5276 -0.1176
 4427TIP3    H237477   0.513   3.697  17.099 -0.8294 -1.6437 -1.2100
 4428TIP3   OH237478   5.089   1.747  19.327  0.3433  0.7420  0.5244
 4428TIP3    H137479   5.120   1.749  19.236  1.2267  1.5652  0.8291
 4428TIP3    H237480   5.071   1.655  19.344  1.7956  0.3518  0.0544
 4429TIP3   OH237481   2.324   2.748  18.786  0.2680  0.4247 -0.2107
 4429TIP3    H137482   2.246   2.756  18.840 -0.1833  0.1759 -0.8084
 4429TIP3    H237483   2.293   2.705  18.706  1.2286 -0.7384  0.0106
 4430TIP3   OH237484   3.963   2.287  17.987  0.3657  0.3065 -0.1479
 4430TIP3    H137485   3.942   2.276  18.080  0.8134 -0.3082 -0.1132
 4430TIP3    H237486   3.974   2.198  17.954  1.7090  0.5466 -0.4283
 4431TIP3   OH237487   2.551   2.171  19.017 -0.2367 -0.3205 -0.2943
 4431TIP3    H137488   2.587   2.083  19.025  1.3833  0.3375  0.0892
 4431TIP3    H237489   2.489   2.179  19.091  0.7012 -0.6510  0.5495
 4432TIP3   OH237490   1.289   0.270  17.657 -0.4722 -0.1080 -0.9492
 4432TIP3    H137491   1.248   0.209  17.596 -0.5432 -0.5500 -0.4674
 4432TIP3    H237492   1.262   0.239  17.743 -2.2961  1.8292 -0.7166
 4433TIP3   OH237493   1.199   1.390  18.983  0.0962 -0.3775  0.5547
 4433TIP3    H137494   1.158   1.310  19.016 -0.7021  0.0373  0.5721
 4433TIP3    H237495   1.208   1.375  18.889  2.3106 -1.5323  0.8874
 4434TIP3   OH237496   1.111   6.651  19.139  0.3051  0.3859  0.0692
 4434TIP3    H137497   1.065   6.603  19.208 -0.2768 -0.5275 -0.9247
 4434TIP3    H237498   1.192   6.602  19.126  0.3267  0.4431 -0.0097
 4435TIP3   OH237499   0.981   1.918  19.326 -0.0318 -0.3848  0.5465
 4435TIP3    H137500   0.975   1.920  19.422  2.1080  1.3180  0.7299
 4435TIP3    H237501   1.025   2.000  19.303 -1.3773 -0.2781 -2.0019
 4436TIP3   OH237502   0.312   3.272  18.532 -0.4574  0.4141 -0.4297
 4436TIP3    H137503   0.397   3.267  18.488 -0.3646 -0.2502 -0.1949
 4436TIP3    H237504   0.330   3.241  18.621 -0.9473  0.2376 -0.3853
 4437TIP3   OH237505   4.825   0.508  16.918  0.0934 -0.5278 -0.3740
 4437TIP3    H137506   4.767   0.581  16.900  1.1836  0.6344  0.6604
 4437TIP3    H237507   4.811   0.488  17.011 -0.1033 -1.5701 -0.6117
 4438TIP3   OH237508   0.044   5.274  19.375  0.0935  0.0447  0.5607
 4438TIP3    H137509  -0.026   5.295  19.436 -1.0018 -0.3634 -0.5265
 4438TIP3    H237510   0.053   5.179  19.380 -0.4614 -0.0692 -0.3833
 4439TIP3   OH237511   2.734   5.941  17.201  0.1105  0.5909  0.1773
 4439TIP3    H137512   2.654   5.977  17.240 -1.8510 -0.0161 -2.9158
 4439TIP3    H237513   2.704   5.863  17.154  2.9237 -0.7874  0.4753
 4440TIP3   OH237514   6.386   0.453  18.447 -0.0897  0.4095  0.4148
 4440TIP3    H137515   6.419   0.450  18.537  1.8045  0.5523 -0.2295
 4440TIP3    H237516   6.429   0.529  18.409  0.3519 -0.5330 -1.0380
 4441TIP3   OH237517   2.693   2.479  18.593  0.4370  0.5941  0.2360
 4441TIP3    H137518   2.685   2.387  18.566  1.4636  0.8867 -1.1582
 4441TIP3    H237519   2.687   2.476  18.688  2.6947 -1.1964  0.4044
 4442TIP3   OH237520   4.502   5.592  18.204  0.4368  0.3995  0.6418
 4442TIP3    H137521   4.411   5.593  18.236  0.1827  2.1117 -0.0426
 4442TIP3    H237522   4.555   5.606  18.282  0.0233  0.9549  0.8290
 4443TIP3   OH237523   6.438   5.547  16.812  0.1384 -0.0512 -0.8519
 4443TIP3    H137524   6.421   5.452  16.815 -0.1908 -0.0142  2.4041
 4443TIP3    H237525   6.380   5.584  16.879  2.6592  1.9679  0.4092
 4444TIP3   OH237526   4.763   0.329  18.658 -0.4977 -0.0824 -0.1569
 4444TIP3    H137527   4.856   0.327  18.681 -0.2562  0.4879 -1.0304
 4444TIP3    H237528   4.754   0.261  18.591 -0.3184  1.0911 -1.4030
 4445TIP3   OH237529   2.685   1.941  17.544 -0.3448  0.0263  0.3130
 4445TIP3    H137530   2.722   1.858  17.572  0.3096 -0.3316 -1.4977
 4445TIP3    H237531   2.636   1.972  17.620  0.3736 -1.4245  1.4177
 4446TIP3   OH237532   0.932   6.066  17.103  0.1609 -0.1861 -0.0266
 4446TIP3    H137533   0.898   6.154  17.116  1.4411  0.8009 -2.7423
 4446TIP3    H237534   0.988   6.050  17.179  0.9946  1.8818 -0.1609
 4447TIP3   OH237535   1.447   6.207  19.008  0.5042 -0.3429 -0.1239
 4447TIP3    H137536   1.503   6.235  19.080 -1.3222 -1.7308  1.9599
 4447TIP3    H237537   1.450   6.111  19.011 -0.8565 -0.4375 -0.8783
 4448TIP3   OH237538   4.922   2.409  20.188 -0.4744  0.2008  0.2148
 4448TIP3    H137539   4.966   2.386  20.270 -2.1700 -1.3214  0.7666
 4448TIP3    H237540   4.920   2.327  20.138 -0.5154  0.8286 -0.8462
 4449TIP3   OH237541   2.750   6.130  17.884 -0.0177 -0.2320 -0.0970
 4449TIP3    H137542   2.815   6.190  17.919 -0.3318  0.2142 -0.2659
 4449TIP3    H237543   2.709   6.091  17.961 -0.4736  0.4939  0.0402
 4450TIP3   OH237544   1.350   1.561  19.301 -0.0903 -0.0652 -0.0925
 4450TIP3    H137545   1.403   1.535  19.226 -0.9228  0.8182 -1.0071
 4450TIP3    H237546   1.260   1.560  19.268 -0.4084  0.9347  0.7131
 4451TIP3   OH237547   1.148   1.632  16.730 -0.2065 -0.1288  0.3759
 4451TIP3    H137548   1.121   1.719  16.759 -2.0820 -0.8209  0.8656
 4451TIP3    H237549   1.152   1.639  16.635 -0.7482  0.3970  0.3833
 4452TIP3   OH237550   5.406   2.860  18.656 -0.4736 -0.2591  0.1093
 4452TIP3    H137551   5.410   2.817  18.742 -1.7141  2.1044  1.4555
 4452TIP3    H237552   5.313   2.864  18.635 -0.2209 -0.3227 -1.1084
 4453TIP3   OH237553   0.660   6.108  16.230  0.1629  0.1848 -0.0841
 4453TIP3    H137554   0.683   6.192  16.271  0.4160 -0.2259  0.6273
 4453TIP3    H237555   0.643   6.130  16.139 -1.2137  1.2762  0.3908
 4454TIP3   OH237556   5.134   1.498  17.485  0.0716  0.0885 -0.2410
 4454TIP3    H137557   5.132   1.589  17.515  2.7713 -0.3632  1.6546
 4454TIP3    H237558   5.223   1.484  17.453  1.0700 -2.8064  3.0953
 4455TIP3   OH237559   3.267   0.541  19.972 -0.6716  0.5655 -0.4683
 4455TIP3    H137560   3.256   0.613  20.034 -2.7513 -0.9869  1.1118
 4455TIP3    H237561   3.202   0.558  19.904 -0.3965  0.7491 -0.6870
 4456TIP3   OH237562   3.837   1.241  18.203  0.2380  0.2691 -0.7636
 4456TIP3    H137563   3.899   1.314  18.208  2.0448 -1.1936 -1.1159
 4456TIP3    H237564   3.883   1.173  18.155 -1.8802 -0.6760 -1.5732
 4457TIP3   OH237565   2.887   6.603  17.570  0.0454  0.4398 -0.1109
 4457TIP3    H137566   2.962   6.544  17.556  1.1983  2.1447 -1.4930
 4457TIP3    H237567   2.897   6.633  17.660 -1.0930 -2.0916  0.9659
 4458TIP3   OH237568   0.552   5.377  18.396 -0.1431  0.0462  0.0777
 4458TIP3    H137569   0.590   5.357  18.311  0.9066 -1.8951  0.9390
 4458TIP3    H237570   0.583   5.465  18.416  2.3168 -0.7075 -0.1433
 4459TIP3   OH237571   1.849   1.195  17.898 -0.5070  0.0494 -0.2637
 4459TIP3    H137572   1.775   1.144  17.866 -0.9885  0.1382  0.6653
 4459TIP3    H237573   1.860   1.168  17.989  0.3308  0.3514 -0.2649
 4460TIP3   OH237574   3.005   3.209  19.502 -0.1542 -0.3496 -0.1209
 4460TIP3    H137575   3.094   3.231  19.473 -0.3195  0.0696 -0.3161
 4460TIP3    H237576   2.978   3.138  19.443  0.2516 -0.8537  0.2891
 4461TIP3   OH237577   4.465   3.184  18.457 -0.2062 -0.0177 -1.1135
 4461TIP3    H137578   4.388   3.154  18.408 -1.2901  1.4965 -0.4124
 4461TIP3    H237579   4.477   3.117  18.525 -1.9324  0.5179 -0.2250
 4462TIP3   OH237580   6.449   6.053  19.143 -0.3221 -0.0271  0.2128
 4462TIP3    H137581   6.370   5.999  19.143  1.0353 -2.1334 -0.2819
 4462TIP3    H237582   6.515   5.998  19.184  0.5235  2.3699  2.3057
 4463TIP3   OH237583   6.519   1.995  18.047 -0.3528 -0.4168  0.3619
 4463TIP3    H137584   6.518   1.949  17.962 -2.0022 -1.0996  0.7086
 4463TIP3    H237585   6.454   2.064  18.038  1.2138  1.1165  0.2871
 4464TIP3   OH237586   2.649   1.487  18.236 -0.5491 -0.0779  0.4945
 4464TIP3    H137587   2.731   1.537  18.238 -1.1633  0.9602  0.7198
 4464TIP3    H237588   2.632   1.472  18.143 -0.6947  0.7446  0.3783
 4465TIP3   OH237589   4.324   3.471  17.187 -0.1269 -0.0828 -0.4722
 4465TIP3    H137590   4.367   3.541  17.237  0.1690  0.5593 -1.5740
 4465TIP3    H237591   4.364   3.390  17.219  0.8234  0.3951 -0.4042
 4466TIP3   OH237592   0.560   4.608  17.216 -0.0260  0.0905  0.3783
 4466TIP3    H137593   0.536   4.696  17.248 -1.4745 -0.2819  0.3812
 4466TIP3    H237594   0.517   4.548  17.277  1.1459 -0.6526  0.5159
 4467TIP3   OH237595   5.832   2.671  18.665 -0.6071  0.0675 -0.1295
 4467TIP3    H137596   5.920   2.709  18.666 -1.0573  1.1422 -0.3984
 4467TIP3    H237597   5.775   2.741  18.697 -1.1559 -1.2220  1.9466
 4468TIP3   OH237598   5.167   4.155  19.851 -0.1919 -0.3205 -0.3032
 4468TIP3    H137599   5.170   4.231  19.909 -2.2039 -0.2514 -0.2107
 4468TIP3    H237600   5.242   4.166  19.793  0.0379  1.2947  0.2442
 4469TIP3   OH237601   2.040   1.992  19.298 -0.8684 -0.0318  0.1341
 4469TIP3    H137602   2.006   2.065  19.349  1.0742 -0.8919  2.8841
 4469TIP3    H237603   2.049   1.920  19.361  0.3158 -1.6383 -1.7424
 4470TIP3   OH237604   3.449   2.090  19.033  0.4694  0.1615  0.4440
 4470TIP3    H137605   3.405   2.010  19.004 -0.2103  0.0690  1.6544
 4470TIP3    H237606   3.475   2.134  18.952 -0.3752 -0.6148 -0.2719
 4471TIP3   OH237607   2.191   0.632  18.358 -0.2824 -0.2423 -0.2788
 4471TIP3    H137608   2.202   0.568  18.428  1.3909  0.8127  0.4921
 4471TIP3    H237609   2.276   0.635  18.313 -0.1748  1.6468 -0.0633
 4472TIP3   OH237610   0.065   4.153  19.447  0.9595 -0.1226 -0.1304
 4472TIP3    H137611   0.010   4.075  19.437 -0.2639  0.2676  2.5847
 4472TIP3    H237612   0.145   4.120  19.489  0.7235 -0.0236  0.4025
 4473TIP3   OH237613   2.148   4.449  19.661 -0.4347  0.4304  0.5294
 4473TIP3    H137614   2.228   4.482  19.702  0.3871 -0.6959 -0.1135
 4473TIP3    H237615   2.166   4.454  19.567 -1.0406 -0.0400  0.3812
 4474TIP3   OH237616   5.772   6.478  19.203  0.5953 -0.8476  0.1981
 4474TIP3    H137617   5.835   6.414  19.169  1.1188 -0.5556  0.6166
 4474TIP3    H237618   5.816   6.519  19.277 -0.3517 -1.1322  0.9434
 4475TIP3   OH237619   4.188   5.612  19.492  0.3296 -0.3036 -0.6273
 4475TIP3    H137620   4.199   5.544  19.558  0.9438 -0.7288 -1.1633
 4475TIP3    H237621   4.251   5.680  19.516 -0.9151  0.5185  0.4429
 4476TIP3   OH237622   4.689   4.003  17.711  0.1568  0.1263 -0.5703
 4476TIP3    H137623   4.595   3.996  17.732  0.5573 -0.6146  1.1342
 4476TIP3    H237624   4.715   3.914  17.689  0.4982  0.2921 -0.8337
 4477TIP3   OH237625   0.388   0.088  20.213  0.3500 -0.3405 -0.0363
 4477TIP3    H137626   0.395   0.013  20.272 -1.4460 -0.9933 -0.5973
 4477TIP3    H237627   0.309   0.071  20.161  1.7356  0.2958 -2.5077
 4478TIP3   OH237628   3.991   3.708  17.360  0.0504  0.3333 -0.1348
 4478TIP3    H137629   3.950   3.669  17.437 -0.4937 -0.8912 -1.0112
 4478TIP3    H237630   4.047   3.777  17.395  0.8403 -1.0484  1.4728
 4479TIP3   OH237631   5.314   1.053  19.633 -0.7929 -0.2397 -0.0743
 4479TIP3    H137632   5.314   1.136  19.681  4.6502  0.0628 -0.0621
 4479TIP3    H237633   5.301   1.079  19.541  0.4489  0.6701 -0.0224
 4480TIP3   OH237634   4.986   1.484  18.008  0.1042 -0.0866  0.1543
 4480TIP3    H137635   4.914   1.431  17.973 -1.1116  1.4796  0.1594
 4480TIP3    H237636   5.064   1.429  17.996 -0.9418 -1.4709 -0.7029
 4481TIP3   OH237637   4.584   1.344  17.642 -0.1962  0.2817 -0.4126
 4481TIP3    H137638   4.617   1.266  17.596  3.7226  1.7201 -0.4191
 4481TIP3    H237639   4.575   1.410  17.573  1.0291  1.0930  0.1754
 4482TIP3   OH237640   4.440   6.026  17.050 -0.4478 -0.2234  0.1131
 4482TIP3    H137641   4.433   5.965  16.976 -0.0957 -1.2644  0.9181
 4482TIP3    H237642   4.361   6.080  17.044 -1.9613 -2.2600  0.6634
 4483TIP3   OH237643   5.449   0.289  19.056  0.0118  0.2428  0.7697
 4483TIP3    H137644   5.404   0.245  19.128 -3.4110  0.8769 -0.7694
 4483TIP3    H237645   5.409   0.376  19.053  2.1336  1.2476 -0.1439
 4484TIP3   OH237646   5.889   3.722  19.095 -0.2733 -0.0556 -0.3584
 4484TIP3    H137647   5.968   3.774  19.109 -1.0027  0.6554  1.4308
 4484TIP3    H237648   5.907   3.639  19.140 -0.5037  0.0791 -0.0130
 4485TIP3   OH237649   4.230   4.261  18.954  0.1969  0.3182 -0.2712
 4485TIP3    H137650   4.168   4.286  19.023 -0.2987  0.6570 -0.8302
 4485TIP3    H237651   4.316   4.266  18.996 -0.0318  1.2655  0.1067
 4486TIP3   OH237652   2.030   4.158  17.041  0.2291 -0.2870 -1.0233
 4486TIP3    H137653   1.950   4.145  16.990 -0.3181  2.4769 -1.0034
 4486TIP3    H237654   2.101   4.155  16.977 -0.2043  0.4489 -1.5433
 4487TIP3   OH237655   5.654   4.586  20.157 -0.3194 -0.4381 -0.0882
 4487TIP3    H137656   5.723   4.546  20.210 -0.9236 -0.0168  1.0380
 4487TIP3    H237657   5.654   4.534  20.076 -0.2842 -1.9925  0.8534
 4488TIP3   OH237658   5.750   5.456  19.584  0.2779 -0.1175 -0.3653
 4488TIP3    H137659   5.677   5.513  19.560  0.2034 -0.4598 -0.9538
 4488TIP3    H237660   5.719   5.407  19.660 -0.4960 -1.0449 -1.2747
 4489TIP3   OH237661   4.694   3.643  17.333 -0.0284  0.1104  0.0631
 4489TIP3    H137662   4.730   3.732  17.334  2.6390 -0.8607  0.7365
 4489TIP3    H237663   4.727   3.606  17.251 -1.1498 -0.2656 -0.2238
 4490TIP3   OH237664   2.748   2.739  18.889  0.4168  0.0189 -0.6188
 4490TIP3    H137665   2.726   2.820  18.843  1.1380  0.3452 -0.4146
 4490TIP3    H237666   2.686   2.674  18.856 -0.9377  0.9188  0.0702
 4491TIP3   OH237667   5.000   6.389  18.182 -0.0177 -0.5770  0.1650
 4491TIP3    H137668   5.082   6.348  18.155  0.1138 -0.4019  0.2916
 4491TIP3    H237669   4.943   6.316  18.203 -0.1349 -0.7185 -0.6103
 4492TIP3   OH237670   2.353   6.659  18.052  0.3368  0.2278  0.3415
 4492TIP3    H137671   2.337   6.631  17.962 -2.4737  1.1894  0.4420
 4492TIP3    H237672   2.417   6.596  18.086  0.7009 -0.7545 -2.0094
 4493TIP3   OH237673   5.386   3.725  19.107 -0.0864 -0.1687 -0.0307
 4493TIP3    H137674   5.461   3.767  19.064 -0.3554  0.8031  0.4350
 4493TIP3    H237675   5.353   3.791  19.168 -0.6517 -0.9827  0.5673
 4494TIP3   OH237676   1.646   0.853  18.122  0.3146 -0.0802  0.2305
 4494TIP3    H137677   1.632   0.763  18.151  0.2829 -0.5460 -1.1574
 4494TIP3    H237678   1.558   0.890  18.116  0.2118 -0.4567 -0.6910
 4495TIP3   OH237679   5.647   4.182  17.322  0.5440  0.0859  0.3436
 4495TIP3    H137680   5.621   4.090  17.314 -0.1065  0.2399  0.6720
 4495TIP3    H237681   5.615   4.209  17.408  0.3366  0.7532  0.0613
 4496TIP3   OH237682   4.410   1.995  19.306  0.0691  0.3950  0.0536
 4496TIP3    H137683   4.315   1.993  19.319  0.0664 -0.6676 -0.0236
 4496TIP3    H237684   4.421   1.976  19.213  0.2811  2.9754 -0.5046
 4497TIP3   OH237685   4.605   0.242  18.218  0.1491  0.5861 -0.6266
 4497TIP3    H137686   4.545   0.317  18.223 -1.2698 -0.5340  0.0620
 4497TIP3    H237687   4.650   0.242  18.303 -0.6362  0.0508 -0.2020
 4498TIP3   OH237688   2.680   0.307  17.952  0.2159  0.0328  0.0614
 4498TIP3    H137689   2.768   0.310  17.989  0.2552 -0.0463 -0.0286
 4498TIP3    H237690   2.628   0.364  18.010  0.5581  0.9632 -0.5142
 4499TIP3   OH237691   4.798   5.290  19.855 -0.0041 -0.0371  0.2015
 4499TIP3    H137692   4.739   5.303  19.929 -1.0179 -0.0083 -0.5921
 4499TIP3    H237693   4.784   5.199  19.829  0.9222 -0.2809  0.5164
 4500TIP3   OH237694   5.886   4.625  20.371  0.2765  0.1439  0.0736
 4500TIP3    H137695   5.849   4.713  20.372 -1.1726 -0.4380  0.2314
 4500TIP3    H237696   5.940   4.622  20.293  0.0809  1.0697 -0.1083
 4501TIP3   OH237697   5.222   4.048  17.314  0.2298 -0.2006  0.0102
 4501TIP3    H137698   5.238   4.136  17.348  0.6502 -0.2859  0.0394
 4501TIP3    H237699   5.130   4.049  17.288  0.0748  0.0685  0.5465
 4502TIP3   OH237700   3.526   1.242  16.445  0.1593  0.0469 -0.3491
 4502TIP3    H137701   3.555   1.168  16.499  0.7922  0.2782 -0.3619
 4502TIP3    H237702   3.607   1.280  16.410  0.0067  1.8366  1.0786
 4503TIP3   OH237703   2.222   0.549  18.626  0.3479 -0.1587 -0.0745
 4503TIP3    H137704   2.311   0.552  18.591  0.1952 -2.1074 -0.7188
 4503TIP3    H237705   2.234   0.548  18.721  0.8985  1.5984 -0.0915
 4504TIP3   OH237706   0.414   1.477  16.367 -0.1643  0.0145 -0.7271
 4504TIP3    H137707   0.465   1.400  16.341  1.3763  0.3672  1.0521
 4504TIP3    H237708   0.323   1.451  16.355  0.3450 -0.9655 -3.1331
 4505TIP3   OH237709   1.698   0.094  19.258  0.3167 -0.0904  0.0103
 4505TIP3    H137710   1.617   0.086  19.208  0.0677  1.4830  0.1182
 4505TIP3    H237711   1.688   0.176  19.306  0.5948 -1.4481  2.5721
 4506TIP3   OH237712   1.919   1.433  18.067 -0.0802  1.0530 -0.0572
 4506TIP3    H137713   2.007   1.399  18.083 -0.6119 -0.7771 -0.7844
 4506TIP3    H237714   1.898   1.405  17.978 -2.5073 -1.1877  1.0967
 4507TIP3   OH237715   2.961   5.241  16.846 -0.2938 -0.4760 -0.2069
 4507TIP3    H137716   2.898   5.308  16.820 -0.2300 -1.5464 -3.4892
 4507TIP3    H237717   3.042   5.265  16.801  0.5331 -1.2703  0.8000
 4508TIP3   OH237718   4.675   2.396  16.588 -0.1636  0.0586  0.6313
 4508TIP3    H137719   4.598   2.360  16.544  0.4444 -2.2213  1.3286
 4508TIP3    H237720   4.640   2.445  16.662 -1.0932  2.4266 -1.2228
 4509TIP3   OH237721   1.536   0.094  19.572 -0.0001 -0.1108  0.4372
 4509TIP3    H137722   1.477   0.025  19.604  0.0619 -1.0867 -1.3867
 4509TIP3    H237723   1.478   0.157  19.530  0.1212 -0.1754  0.1726
 4510TIP3   OH237724   6.158   4.866  18.297  0.3280 -0.5814 -0.4970
 4510TIP3    H137725   6.197   4.852  18.211  0.1277 -0.1700 -0.6605
 4510TIP3    H237726   6.079   4.918  18.279  0.2339 -0.5763 -0.0772
 4511TIP3   OH237727   1.895   6.640  20.110 -0.1131 -0.2069 -0.8073
 4511TIP3    H137728   1.958   6.707  20.085 -0.1977  0.1799 -0.0124
 4511TIP3    H237729   1.897   6.639  20.206  0.3235 -1.7631 -0.8087
 4512TIP3   OH237730   4.796   3.246  17.858 -0.2454 -0.0406 -0.4423
 4512TIP3    H137731   4.862   3.262  17.925 -1.3377  0.8199  0.4504
 4512TIP3    H237732   4.810   3.155  17.832 -0.0900 -0.5465  1.2808
 4513TIP3   OH237733   4.877   5.167  18.223 -0.1634  0.0065  0.5272
 4513TIP3    H137734   4.917   5.115  18.293 -0.6310  1.1323  1.6598
 4513TIP3    H237735   4.814   5.223  18.268 -0.6803  0.5553 -0.8447
 4514TIP3   OH237736   6.418   3.223  17.092 -0.5141  0.1133  0.1222
 4514TIP3    H137737   6.384   3.134  17.079  1.4418 -1.1209  2.5344
 4514TIP3    H237738   6.446   3.251  17.005  1.0940 -2.7097 -0.4013
 4515TIP3   OH237739   3.322   0.339  18.252  0.1755  0.0721  0.1337
 4515TIP3    H137740   3.369   0.307  18.329 -2.1793 -1.2370  1.1316
 4515TIP3    H237741   3.364   0.296  18.178  1.2824 -0.1325  0.8655
 4516TIP3   OH237742   2.720   3.253  18.863  0.6940  0.3156  0.5311
 4516TIP3    H137743   2.756   3.243  18.775  0.6982  1.2255  0.4124
 4516TIP3    H237744   2.665   3.331  18.857  0.3233  0.1142  1.2231
 4517TIP3   OH237745   0.043   3.411  17.534  0.3736 -0.4138  0.2456
 4517TIP3    H137746   0.001   3.471  17.472 -0.5694 -1.0495  0.2487
 4517TIP3    H237747   0.127   3.389  17.492  0.4692  0.4183 -0.0321
 4518TIP3   OH237748   3.213   5.837  19.705  0.2651 -0.1408 -0.1965
 4518TIP3    H137749   3.305   5.860  19.718  0.7893 -1.1342 -1.8347
 4518TIP3    H237750   3.205   5.747  19.736 -0.6600  0.5549  1.7569
 4519TIP3   OH237751   4.909   3.391  17.213  0.2147  0.7382 -0.4001
 4519TIP3    H137752   4.971   3.385  17.286  0.5745  0.4971 -0.7159
 4519TIP3    H237753   4.964   3.414  17.138 -0.0889  0.5889 -0.6702
 4520TIP3   OH237754   1.318   4.020  18.794  0.0532 -0.9541 -0.5799
 4520TIP3    H137755   1.257   4.047  18.726  0.2755  2.2442  0.3246
 4520TIP3    H237756   1.402   4.058  18.768  1.0482 -2.8705 -0.3542
 4521TIP3   OH237757   2.817   5.967  18.846  0.1818 -0.2935 -0.5469
 4521TIP3    H137758   2.814   5.916  18.765  1.7796  0.0513 -0.8720
 4521TIP3    H237759   2.796   6.056  18.819 -1.3554 -0.5313 -0.1980
 4522TIP3   OH237760   1.998   1.169  19.663  0.1156  0.3273  0.2006
 4522TIP3    H137761   1.905   1.183  19.682  0.1419 -2.1990  2.8937
 4522TIP3    H237762   2.043   1.193  19.744  1.2685 -2.6559  0.5783
 4523TIP3   OH237763   2.341   3.555  19.407  0.1531  0.0602 -0.0922
 4523TIP3    H137764   2.286   3.535  19.331 -0.2055  0.8392 -0.0536
 4523TIP3    H237765   2.286   3.533  19.483  0.1262  0.2384 -0.0579
 4524TIP3   OH237766   0.404   4.360  19.757 -0.0447 -0.0701 -0.0140
 4524TIP3    H137767   0.439   4.448  19.773 -0.4676  0.1616 -0.3530
 4524TIP3    H237768   0.342   4.371  19.686 -1.3168 -0.3477  1.0180
 4525TIP3   OH237769   0.385   2.624  16.876  0.8582  0.3808 -0.3847
 4525TIP3    H137770   0.353   2.595  16.790 -0.2021  0.1924  0.0611
 4525TIP3    H237771   0.428   2.546  16.912  0.0587  0.0276 -0.1650
 4526TIP3   OH237772   2.245   3.414  17.967 -0.0320 -0.5987 -0.2362
 4526TIP3    H137773   2.268   3.456  17.884  2.1669 -1.4163 -0.1180
 4526TIP3    H237774   2.214   3.327  17.943 -0.3232 -0.4868 -0.2612
 4527TIP3   OH237775   4.612   0.705  18.863  0.3381  0.0369 -1.0879
 4527TIP3    H137776   4.695   0.657  18.871  0.2041  0.0156  0.7393
 4527TIP3    H237777   4.552   0.642  18.822  0.7969 -0.5237 -0.9164
 4528TIP3   OH237778   2.691   3.933  19.427  0.2142 -0.3853 -0.1191
 4528TIP3    H137779   2.606   3.976  19.436  0.1373 -0.6673  0.5674
 4528TIP3    H237780   2.673   3.840  19.442  0.0972 -0.9702 -3.1388
 4529TIP3   OH237781   6.061   5.336  18.647  0.2351  0.1400 -0.1834
 4529TIP3    H137782   5.997   5.286  18.699 -0.9833  1.0118 -0.7938
 4529TIP3    H237783   6.063   5.292  18.563  0.2969  0.2224 -0.2248
 4530TIP3   OH237784   6.238   6.648  18.163  0.1454 -0.0185  0.1072
 4530TIP3    H137785   6.293   6.628  18.087  1.7909  2.2244  0.6103
 4530TIP3    H237786   6.252   6.741  18.179 -0.7901 -0.2325  2.6710
 4531TIP3   OH237787   3.432   3.174  17.100  0.7191 -0.0108  0.2680
 4531TIP3    H137788   3.380   3.253  17.115  1.6897  0.8699 -0.8424
 4531TIP3    H237789   3.368   3.105  17.084 -0.1412  1.0666 -1.1537
 4532TIP3   OH237790   4.996   0.662  19.671 -0.5520 -0.1603  0.1593
 4532TIP3    H137791   5.005   0.606  19.594  0.5353 -2.1154  1.5757
 4532TIP3    H237792   5.051   0.738  19.653  0.0609 -0.8089 -0.8045
 4533TIP3   OH237793   1.449   5.929  19.040  0.1042 -0.0348 -0.1051
 4533TIP3    H137794   1.402   5.926  19.123 -2.0487 -1.4603 -1.2949
 4533TIP3    H237795   1.512   5.857  19.046  1.0458  0.8356  0.8455
 4534TIP3   OH237796   5.267   2.683  19.298 -0.0448  0.1803  0.1003
 4534TIP3    H137797   5.258   2.602  19.348  0.1250 -0.3252 -0.6759
 4534TIP3    H237798   5.358   2.709  19.310 -0.3280  0.7545  1.0874
 4535TIP3   OH237799   5.577   2.241  19.349 -0.5831  0.0973  0.3985
 4535TIP3    H137800   5.600   2.192  19.270 -3.0240 -0.9789  0.2382
 4535TIP3    H237801   5.570   2.174  19.417 -1.7482  0.5182  0.7138
 4536TIP3   OH237802   4.953   5.604  17.156 -0.2649 -0.0547 -0.6986
 4536TIP3    H137803   5.045   5.615  17.130 -0.3595 -0.6271 -1.3134
 4536TIP3    H237804   4.937   5.510  17.146 -0.4336 -0.2432  1.0965
 4537TIP3   OH237805   2.973   2.121  18.949  0.2053  0.3326 -0.0044
 4537TIP3    H137806   2.979   2.029  18.925 -0.7951 -0.0019  0.9233
 4537TIP3    H237807   3.053   2.139  18.998  0.0117 -0.2876  0.5479
 4538TIP3   OH237808   3.016   4.064  16.931  0.1151  0.1895  0.4355
 4538TIP3    H137809   2.952   4.121  16.973 -1.2428 -1.5362  0.8351
 4538TIP3    H237810   3.028   4.101  16.844 -1.1443  0.7810  0.5003
 4539TIP3   OH237811   4.543   4.985  18.073  0.0927 -0.1298  0.4852
 4539TIP3    H137812   4.539   4.956  18.164 -1.0689 -1.5203  0.0211
 4539TIP3    H237813   4.624   4.946  18.039  0.6666  0.6137  0.9782
 4540TIP3   OH237814   3.992   0.833  19.974 -0.1630 -0.1125  0.2391
 4540TIP3    H137815   4.072   0.802  19.931 -0.5831  2.1115 -2.4499
 4540TIP3    H237816   3.925   0.770  19.948  0.5803 -1.9575  2.4576
 4541TIP3   OH237817   3.313   5.424  17.391  0.1425  0.2974 -0.1926
 4541TIP3    H137818   3.307   5.384  17.305  0.4324 -1.4344  0.5448
 4541TIP3    H237819   3.224   5.422  17.425  0.2219 -0.1216  0.0003
 4542TIP3   OH237820   5.313   5.566  18.971 -0.0391 -0.7675  0.1881
 4542TIP3    H137821   5.401   5.597  18.952 -0.6953  0.2968 -1.2439
 4542TIP3    H237822   5.327   5.484  19.019  1.7211 -1.1921 -0.9480
 4543TIP3   OH237823   0.483   2.979  18.961 -0.1557 -0.0166  0.2872
 4543TIP3    H137824   0.487   2.884  18.961  2.5175 -0.3162 -5.1884
 4543TIP3    H237825   0.410   3.000  18.903  0.2899  1.1428  0.1147
 4544TIP3   OH237826   6.332   3.306  19.241 -0.0120  0.0331 -0.4285
 4544TIP3    H137827   6.289   3.228  19.277 -1.0761  2.0264  3.1818
 4544TIP3    H237828   6.259   3.365  19.220  0.8044  0.9841 -0.6404
 4545TIP3   OH237829   6.016   0.366  17.552  0.3860 -0.5684  0.5388
 4545TIP3    H137830   6.083   0.380  17.485 -0.7211 -2.3055 -1.0310
 4545TIP3    H237831   5.962   0.445  17.548  0.4244 -0.5839 -0.5173
 4546TIP3   OH237832   5.849   5.574  17.824  0.6514 -0.5356  0.4258
 4546TIP3    H137833   5.758   5.572  17.795  0.4294 -1.4618  1.1249
 4546TIP3    H237834   5.898   5.601  17.747 -0.2151 -0.0133  0.0425
 4547TIP3   OH237835   5.935   3.784  18.642 -0.1507  0.0225 -0.7626
 4547TIP3    H137836   6.021   3.742  18.634  0.7998  1.5439  0.6160
 4547TIP3    H237837   5.946   3.868  18.597 -0.5915  0.6219  0.2132
 4548TIP3   OH237838   3.702   5.234  18.246  0.7246  0.1778  0.1979
 4548TIP3    H137839   3.624   5.283  18.272  0.7363  0.3102 -0.0137
 4548TIP3    H237840   3.772   5.300  18.246  0.7647  0.1355  0.0378
 4549TIP3   OH237841   5.897   0.668  18.593  0.7100  0.1882  0.4243
 4549TIP3    H137842   5.893   0.761  18.571 -0.0146  0.4164  1.4335
 4549TIP3    H237843   5.982   0.639  18.559  0.8976  1.1928  0.0019
 4550TIP3   OH237844   0.147   3.831  19.714  0.2206 -0.3660 -0.4876
 4550TIP3    H137845   0.088   3.770  19.670  0.5949 -0.0694 -1.4426
 4550TIP3    H237846   0.227   3.781  19.727  0.9790  0.2282 -2.4180
 4551TIP3   OH237847   4.609   0.877  19.190  0.2222  0.0673 -0.4912
 4551TIP3    H137848   4.528   0.903  19.234 -0.0541 -0.2423 -0.8105
 4551TIP3    H237849   4.678   0.908  19.248 -0.1331 -0.3134  0.1572
 4552TIP3   OH237850   4.643   1.208  19.705  0.1503 -0.0280  0.5506
 4552TIP3    H137851   4.708   1.143  19.678  0.4814  0.6353 -0.2845
 4552TIP3    H237852   4.589   1.222  19.627 -0.6771 -0.1875  1.0840
 4553TIP3   OH237853   5.199   6.126  19.076 -0.4017 -0.0653  0.1347
 4553TIP3    H137854   5.284   6.157  19.042 -0.1003 -1.7316 -0.7070
 4553TIP3    H237855   5.135   6.160  19.013 -0.1433 -0.5893 -0.4158
 4554TIP3   OH237856   0.983   0.756  19.167 -0.3137  0.2436  0.3878
 4554TIP3    H137857   1.056   0.698  19.191  0.4687  1.2181  0.4287
 4554TIP3    H237858   1.006   0.840  19.207 -0.5536  1.0547 -1.1266
 4555TIP3   OH237859   2.148   0.018  18.239  1.0446  0.3467 -0.2971
 4555TIP3    H137860   2.127   0.108  18.215 -2.4567 -0.9875 -3.2519
 4555TIP3    H237861   2.220  -0.006  18.182  1.9063  1.1664  0.4111
 4556TIP3   OH237862   4.599   3.338  16.437  0.0832 -0.5316  0.6615
 4556TIP3    H137863   4.507   3.321  16.417  0.1202 -0.2040  0.2041
 4556TIP3    H237864   4.620   3.276  16.507 -0.4456 -0.7024  0.6739
 4557TIP3   OH237865   1.793   6.125  17.494  0.0326 -0.3700 -0.0952
 4557TIP3    H137866   1.874   6.098  17.451  0.1492  1.5221 -1.2143
 4557TIP3    H237867   1.820   6.149  17.583  0.5768 -0.4264 -0.2427
 4558TIP3   OH237868   2.617   4.800  19.490  0.1767 -0.0159  0.5340
 4558TIP3    H137869   2.689   4.779  19.432  0.0850  1.1940 -0.0424
 4558TIP3    H237870   2.538   4.779  19.440  0.1008 -0.5341  0.8522
 4559TIP3   OH237871   3.081   0.259  17.213 -0.4409 -0.6728 -0.3518
 4559TIP3    H137872   3.110   0.184  17.265 -3.2515 -2.1222 -0.6967
 4559TIP3    H237873   3.026   0.309  17.273 -0.9274 -0.4774 -0.9572
 4560TIP3   OH237874   0.857   1.983  17.526 -0.4277 -0.1078 -0.0656
 4560TIP3    H137875   0.876   1.906  17.474 -1.5054  0.7241 -1.8120
 4560TIP3    H237876   0.918   1.980  17.600  1.2754 -1.2606 -1.4780
 4561TIP3   OH237877   3.154   6.457  18.020  0.0805 -0.0810  0.2256
 4561TIP3    H137878   3.173   6.532  18.077  0.6340 -2.3083  3.2237
 4561TIP3    H237879   3.239   6.434  17.983  0.2849 -0.3335  0.8295
 4562TIP3   OH237880   3.495   0.320  19.122  0.6824  0.0881 -0.5306
 4562TIP3    H137881   3.482   0.320  19.027  0.6230 -2.4705 -0.5998
 4562TIP3    H237882   3.537   0.236  19.140  2.2393  1.2237  1.5490
 4563TIP3   OH237883   1.804   2.129  19.121 -0.2352  0.4242 -0.0139
 4563TIP3    H137884   1.863   2.159  19.053 -0.1069  1.7389  0.6417
 4563TIP3    H237885   1.838   2.169  19.201 -0.1299 -1.4044  0.9227
 4564TIP3   OH237886   2.070   6.643  17.808  0.4652 -0.2184 -0.3270
 4564TIP3    H137887   2.016   6.701  17.862  0.1989  1.0076 -1.8366
 4564TIP3    H237888   2.037   6.656  17.719  2.3470 -0.4726 -1.0996
 4565TIP3   OH237889   2.044   4.531  19.138 -0.9770 -0.2751  0.0474
 4565TIP3    H137890   2.011   4.556  19.052 -1.7775  0.0224  0.4349
 4565TIP3    H237891   1.982   4.568  19.200 -1.7503 -2.4867  0.7008
 4566TIP3   OH237892   1.097   0.868  19.834 -0.0090  0.1567  0.1588
 4566TIP3    H137893   1.066   0.895  19.920 -1.0213 -2.1061  0.5601
 4566TIP3    H237894   1.081   0.945  19.778 -1.5247  0.8548  1.4709
 4567TIP3   OH237895   4.830   3.838  18.321  0.2858  0.1349 -0.0058
 4567TIP3    H137896   4.893   3.827  18.249  0.1630 -0.4827 -0.0283
 4567TIP3    H237897   4.794   3.750  18.334  0.0637  0.3107  0.5890
 4568TIP3   OH237898   0.252   6.016  18.350 -0.0259 -0.6950 -0.0942
 4568TIP3    H137899   0.170   6.051  18.386  0.6913  0.0364  0.8997
 4568TIP3    H237900   0.275   5.944  18.409  1.0248  0.3497  0.8359
 4569TIP3   OH237901   2.382   1.430  17.800 -0.2306  0.4794  0.2781
 4569TIP3    H137902   2.432   1.504  17.833 -0.9771  1.4772 -0.7353
 4569TIP3    H237903   2.304   1.470  17.760  0.2473 -0.6726 -1.9572
 4570TIP3   OH237904   0.466   1.578  17.161  0.2295 -0.8622  0.0699
 4570TIP3    H137905   0.514   1.582  17.244  1.6979 -1.5018 -0.7053
 4570TIP3    H237906   0.528   1.538  17.100 -0.4956  0.4178 -1.5768
 4571TIP3   OH237907   2.230   5.272  17.575 -0.0213  0.7354 -0.1868
 4571TIP3    H137908   2.166   5.338  17.602  0.1072 -0.3590  3.2081
 4571TIP3    H237909   2.253   5.226  17.656  2.7487 -0.9733 -1.7924
 4572TIP3   OH237910   4.953   4.002  19.956  0.0457  0.3447 -0.3179
 4572TIP3    H137911   5.016   4.063  19.918  0.7365  0.4338  0.8960
 4572TIP3    H237912   4.992   3.978  20.041 -2.2582  1.5817  1.1895
 4573TIP3   OH237913   2.320   6.233  17.621  0.2246 -0.3029  0.2825
 4573TIP3    H137914   2.390   6.248  17.557 -0.0241  0.5009  0.1848
 4573TIP3    H237915   2.247   6.201  17.568 -0.1104  0.7371  0.0833
 4574TIP3   OH237916   2.756   4.458  18.590 -0.4157 -0.3462  0.3142
 4574TIP3    H137917   2.739   4.539  18.542  0.0787 -0.5632 -0.2450
 4574TIP3    H237918   2.796   4.400  18.525  0.3065 -0.6336  1.0050
 4575TIP3   OH237919   3.637   2.421  17.790 -0.1706  0.9643  0.2466
 4575TIP3    H137920   3.727   2.455  17.787  0.6302 -1.0309 -0.4052
 4575TIP3    H237921   3.590   2.473  17.725  0.7472  1.4488 -0.0539
 4576TIP3   OH237922   0.290   5.140  16.936  0.6733 -0.4637 -0.2975
 4576TIP3    H137923   0.345   5.062  16.936  1.6852  0.2260 -0.8814
 4576TIP3    H237924   0.337   5.202  16.881 -0.4033  0.3623 -0.3192
 4577TIP3   OH237925   0.786   2.455  18.695  0.3279  0.1831 -0.0933
 4577TIP3    H137926   0.772   2.493  18.781  0.0442  0.0525 -0.0804
 4577TIP3    H237927   0.792   2.531  18.636  1.4754  0.3057  0.1732
 4578TIP3   OH237928   5.679   4.444  17.401  0.2082 -0.0128  1.0001
 4578TIP3    H137929   5.734   4.408  17.331 -1.2176 -1.1799  0.4232
 4578TIP3    H237930   5.646   4.367  17.447 -2.1520  0.5316  0.3633
 4579TIP3   OH237931   3.535   1.505  18.883  0.5300 -0.1406 -0.9666
 4579TIP3    H137932   3.610   1.451  18.859  0.6864  1.0155 -3.3856
 4579TIP3    H237933   3.563   1.594  18.865 -0.5455  0.5754  0.6674
 4580TIP3   OH237934   0.973   5.034  19.854  0.1622 -0.3896 -0.2793
 4580TIP3    H137935   0.997   4.975  19.926  1.2632 -0.0433 -0.3403
 4580TIP3    H237936   0.904   5.089  19.890 -0.3832 -1.2400  0.0075
 4581TIP3   OH237937   2.872   1.531  19.001  0.3390  0.6090  0.1070
 4581TIP3    H137938   2.900   1.444  19.028 -0.8878  0.0481 -0.3693
 4581TIP3    H237939   2.797   1.551  19.056  0.1975  1.0844 -0.2455
 4582TIP3   OH237940   5.831   2.004  17.315  0.1296  0.0371 -0.1948
 4582TIP3    H137941   5.794   1.978  17.231  1.5379  1.2062 -1.2268
 4582TIP3    H237942   5.887   2.078  17.295  4.2329 -2.4236  0.9079
 4583TIP3   OH237943   6.559   3.528  19.864 -0.0539  0.0158  0.2001
 4583TIP3    H137944   6.468   3.557  19.860 -0.1345 -0.1515  0.7103
 4583TIP3    H237945   6.571   3.500  19.955  0.8445  1.1473  0.4465
 4584TIP3   OH237946   2.512   6.300  16.943 -0.3447  0.0837 -0.0588
 4584TIP3    H137947   2.436   6.359  16.938  0.4205  1.2327  1.1634
 4584TIP3    H237948   2.584   6.356  16.973  1.0295 -0.9556 -1.2812
 4585TIP3   OH237949   3.762   5.036  18.456 -0.0653 -0.3555 -0.2509
 4585TIP3    H137950   3.764   5.096  18.530  1.9359 -1.2575  0.4995
 4585TIP3    H237951   3.719   5.085  18.387 -1.5911  0.6794  1.3513
 4586TIP3   OH237952   5.070   2.861  19.382  0.3152 -0.7942  0.1934
 4586TIP3    H137953   5.102   2.782  19.337  0.2382 -1.5301  1.3805
 4586TIP3    H237954   4.978   2.868  19.355  1.0772  0.7193 -2.3834
 4587TIP3   OH237955   6.458   6.231  16.730  0.0411 -0.2040 -0.3070
 4587TIP3    H137956   6.477   6.302  16.669 -0.8093 -1.9012 -2.7163
 4587TIP3    H237957   6.392   6.267  16.789 -0.8995  0.8376 -1.9000
 4588TIP3   OH237958   0.227   2.876  19.466 -0.3068 -0.7387 -0.5709
 4588TIP3    H137959   0.307   2.862  19.415  0.5002 -0.7118  0.6563
 4588TIP3    H237960   0.233   2.814  19.539 -1.7222 -1.1825 -0.7813
 4589TIP3   OH237961   3.867   5.033  17.668  0.4607 -0.3022  0.0366
 4589TIP3    H137962   3.942   5.006  17.614  1.3539 -0.0348  1.1053
 4589TIP3    H237963   3.886   4.998  17.755 -1.7968 -2.2106 -0.1415
 4590TIP3   OH237964   6.325   5.204  18.193  0.3783  0.2968  0.9415
 4590TIP3    H137965   6.382   5.127  18.190  2.4920  1.7342  1.3700
 4590TIP3    H237966   6.251   5.182  18.137  1.4177 -1.6479  0.2410
 4591TIP3   OH237967   2.131   4.699  19.929 -0.2860 -0.1661  1.6165
 4591TIP3    H137968   2.139   4.633  19.998  1.7291 -0.5875  1.0211
 4591TIP3    H237969   2.221   4.721  19.906 -0.8786 -0.5277 -1.3723
 4592TIP3   OH237970   2.650   5.583  17.224 -0.3853  0.0115  0.2976
 4592TIP3    H137971   2.571   5.626  17.189  0.1679  0.5272 -0.3485
 4592TIP3    H237972   2.620   5.495  17.246 -1.3967  0.5256  1.0736
 4593TIP3   OH237973   2.824   2.126  18.065  0.1861  0.4770 -0.0570
 4593TIP3    H137974   2.788   2.136  18.153 -1.5388 -1.7874 -0.4147
 4593TIP3    H237975   2.775   2.188  18.012  0.0654  0.6972  0.3072
 4594TIP3   OH237976   4.345   5.246  16.789 -0.8927  0.2317 -0.4644
 4594TIP3    H137977   4.313   5.335  16.774  1.1310  1.0947  0.1122
 4594TIP3    H237978   4.276   5.205  16.840 -1.7433  1.5460 -0.4982
 4595TIP3   OH237979   5.902   4.199  16.670 -0.2891 -0.1742  0.4686
 4595TIP3    H137980   5.814   4.188  16.706 -0.3848  0.1181  0.3247
 4595TIP3    H237981   5.902   4.287  16.632 -0.9219 -1.2904 -2.3350
 4596TIP3   OH237982   0.655   3.151  18.771 -0.1504  0.5618  0.0701
 4596TIP3    H137983   0.623   3.083  18.831  2.4546  0.1166  1.1002
 4596TIP3    H237984   0.589   3.220  18.775 -2.0713 -1.1886  0.2458
 4597TIP3   OH237985   0.579   2.645  19.499 -0.0188 -0.1821 -0.1892
 4597TIP3    H137986   0.601   2.686  19.582  0.0841 -1.0611  0.2335
 4597TIP3    H237987   0.597   2.712  19.433 -0.2244  0.5679  0.4996
 4598TIP3   OH237988   6.397   1.707  20.190 -0.0371 -1.0212 -0.8507
 4598TIP3    H137989   6.392   1.698  20.285  2.4504 -1.1678 -0.6476
 4598TIP3    H237990   6.307   1.721  20.161 -0.6255  1.5338  1.7714
 4599TIP3   OH237991   5.680   5.206  17.143  0.0847 -0.4454 -0.1689
 4599TIP3    H137992   5.730   5.277  17.183 -1.0240 -0.0894  0.6183
 4599TIP3    H237993   5.747   5.148  17.106  1.0640  0.1556  0.6117
 4600TIP3   OH237994   4.270   6.090  16.743 -0.2653  0.2101  0.0266
 4600TIP3    H137995   4.208   6.020  16.724 -0.5513  0.6288 -0.6667
 4600TIP3    H237996   4.261   6.150  16.668  0.3081  0.7425  0.3736
 4601TIP3   OH237997   1.728   4.270  19.767  0.5298  0.3266 -0.8170
 4601TIP3    H137998   1.686   4.217  19.836  0.0237 -1.7109 -2.5877
 4601TIP3    H237999   1.675   4.349  19.762 -0.9317 -0.6019 -0.5289
 4602TIP3   OH238000   1.891   0.155  17.919  0.9212  0.1538 -0.9462
 4602TIP3    H138001   1.898   0.206  17.999 -2.0068 -0.7055 -0.0221
 4602TIP3    H238002   1.869   0.219  17.851  0.9258  0.5892 -0.5378
 4603TIP3   OH238003   6.503   2.632  19.487 -0.0175 -0.4946  0.2272
 4603TIP3    H138004   6.435   2.593  19.543 -0.5433 -0.0149 -0.0728
 4603TIP3    H238005   6.534   2.707  19.537  0.8053 -1.1248  0.6838
 4604TIP3   OH238006   0.688   4.962  18.481  0.4969 -0.4409 -0.1209
 4604TIP3    H138007   0.604   4.965  18.434  0.6354 -1.6444 -0.4723
 4604TIP3    H238008   0.706   5.053  18.504 -1.5035 -0.2609  1.0055
 4605TIP3   OH238009   0.575   1.332  20.103  0.2954 -0.3489 -0.0439
 4605TIP3    H138010   0.538   1.317  20.189  1.0630  0.7750  0.5159
 4605TIP3    H238011   0.509   1.299  20.041 -1.1657  0.6855  0.9154
 4606TIP3   OH238012   1.759   6.399  16.743 -0.5740  0.3502  0.3557
 4606TIP3    H138013   1.826   6.365  16.683 -0.1562  1.0441  0.4115
 4606TIP3    H238014   1.809   6.448  16.809 -1.0473 -0.2024  1.1356
 4607TIP3   OH238015   1.322   4.056  17.944 -0.2811  0.1487  0.1725
 4607TIP3    H138016   1.371   4.088  17.869 -2.3877  0.6844 -1.0616
 4607TIP3    H238017   1.343   4.117  18.014 -0.8449  1.6794 -0.9380
 4608TIP3   OH238018   3.846   1.888  18.775  0.3534 -0.1590  0.3814
 4608TIP3    H138019   3.873   1.902  18.684  0.9932 -0.2780  0.5449
 4608TIP3    H238020   3.840   1.976  18.811 -0.1513 -0.0988  0.1563
 4609TIP3   OH238021   2.505   3.211  17.765 -0.7615 -0.1558 -0.2151
 4609TIP3    H138022   2.495   3.262  17.685  0.5280 -1.7512 -1.4597
 4609TIP3    H238023   2.579   3.251  17.810  0.3666 -0.9999 -1.2772
 4610TIP3   OH238024   6.553   2.123  19.155  0.0688 -0.4654  0.0948
 4610TIP3    H138025   6.569   2.124  19.250 -2.0496  1.3350  0.5276
 4610TIP3    H238026   6.606   2.196  19.122  0.1857 -0.5858  0.0172
 4611TIP3   OH238027   4.167   2.721  19.722 -0.3301  0.3070 -0.1992
 4611TIP3    H138028   4.244   2.667  19.735 -0.7355 -0.4032 -0.6814
 4611TIP3    H238029   4.201   2.808  19.703  0.3407  0.0793 -0.0466
 4612TIP3   OH238030   4.089   5.626  18.056 -0.0688 -0.4461 -0.0546
 4612TIP3    H138031   4.178   5.600  18.033 -0.3850  0.4626 -2.6130
 4612TIP3    H238032   4.099   5.707  18.105  0.4945  0.9576 -2.3631
 4613TIP3   OH238033   0.702   5.886  17.871 -0.1630  0.1790  0.5101
 4613TIP3    H138034   0.663   5.963  17.913  0.8578  0.6291  0.6480
 4613TIP3    H238035   0.747   5.921  17.794  0.3305 -0.2761  0.5836
 4614TIP3   OH238036   2.126   6.098  19.909 -0.9445 -0.3625  0.2493
 4614TIP3    H138037   2.039   6.137  19.903 -0.9346 -0.2327  0.8662
 4614TIP3    H238038   2.134   6.073  20.001 -0.7103 -1.2601 -0.0011
 4615TIP3   OH238039   4.464   5.485  19.356  0.5588 -0.2246  0.5963
 4615TIP3    H138040   4.372   5.458  19.349  0.2279  0.6370  1.4289
 4615TIP3    H238041   4.506   5.412  19.403  0.6059 -1.2385 -0.9642
 4616TIP3   OH238042   3.078   3.302  17.651  0.3655 -0.1359 -0.2599
 4616TIP3    H138043   3.034   3.342  17.576  1.8949  1.7914 -0.2064
 4616TIP3    H238044   3.031   3.220  17.666 -1.1411  0.3250 -2.1504
 4617TIP3   OH238045   6.039   2.449  17.241  0.4799  0.1426 -0.1636
 4617TIP3    H138046   6.019   2.517  17.306 -0.1116  2.1823 -2.3204
 4617TIP3    H238047   6.080   2.497  17.168  1.7095 -2.1251 -1.0576
 4618TIP3   OH238048   6.226   4.728  16.776  0.0849  0.0706  0.1726
 4618TIP3    H138049   6.266   4.771  16.700  1.2103  0.8542  1.1679
 4618TIP3    H238050   6.292   4.736  16.845 -0.0909 -2.3615  0.7150
 4619TIP3   OH238051   2.599   0.812  18.578 -0.0911  0.0160 -0.1317
 4619TIP3    H138052   2.562   0.874  18.640  0.4595  0.3073 -0.0980
 4619TIP3    H238053   2.640   0.866  18.511 -0.7754 -0.2946 -0.8136
 4620TIP3   OH238054   0.007   0.430  17.579  0.1161  0.1499 -0.1280
 4620TIP3    H138055  -0.014   0.516  17.543  1.6601 -0.0115 -1.5441
 4620TIP3    H238056   0.046   0.448  17.664 -0.4801  0.7685  0.0271
 4621TIP3   OH238057   5.347   2.505  18.409 -0.0444 -0.1876  0.0194
 4621TIP3    H138058   5.292   2.573  18.371  0.4933 -0.7687 -1.9412
 4621TIP3    H238059   5.295   2.425  18.402 -1.4679  0.1395  4.0387
 4622TIP3   OH238060   2.383   2.454  19.016 -0.5041  0.2612  0.1382
 4622TIP3    H138061   2.307   2.413  19.056 -1.6771  1.5101 -0.6943
 4622TIP3    H238062   2.404   2.528  19.073 -1.4219  1.3177 -0.8391
 4623TIP3   OH238063   1.164   2.505  17.507 -0.4470 -0.5855 -0.4659
 4623TIP3    H138064   1.126   2.423  17.539  0.3838 -0.3455  1.2373
 4623TIP3    H238065   1.247   2.480  17.467 -0.0871 -0.5620  0.2554
 4624TIP3   OH238066   4.493   4.075  19.650 -0.1709  0.4585  0.2413
 4624TIP3    H138067   4.408   4.098  19.688 -0.3378  1.8386 -0.9138
 4624TIP3    H238068   4.487   3.980  19.636 -1.4424  0.4974  0.3638
 4625TIP3   OH238069   2.322   4.175  20.047 -0.6404 -0.1259  0.5446
 4625TIP3    H138070   2.353   4.159  19.958 -2.1570 -0.4627  0.0503
 4625TIP3    H238071   2.380   4.244  20.080 -1.3677  1.5788 -1.4681
 4626TIP3   OH238072   0.441   5.699  18.446 -0.5210 -0.1480  0.1181
 4626TIP3    H138073   0.389   5.644  18.388 -0.7599  0.4461 -0.2356
 4626TIP3    H238074   0.409   5.679  18.533 -0.0383 -1.1834  0.0744
 4627TIP3   OH238075   1.392   1.512  17.608  0.2529  0.0576  0.3349
 4627TIP3    H138076   1.303   1.508  17.572 -0.0482 -2.5552  1.1642
 4627TIP3    H238077   1.379   1.507  17.703  1.2717 -1.9860  0.4271
 4628TIP3   OH238078   1.236   1.379  18.695 -0.4361 -0.3433 -0.4008
 4628TIP3    H138079   1.301   1.371  18.625 -1.8150 -1.4936 -1.6145
 4628TIP3    H238080   1.217   1.473  18.700 -0.7055 -0.2917 -1.9727
 4629TIP3   OH238081   3.702   1.256  18.466  0.0205 -0.1592  0.3689
 4629TIP3    H138082   3.723   1.295  18.381  0.4997  0.5525  0.8080
 4629TIP3    H238083   3.607   1.264  18.473  0.1638  1.4211  0.6838
 4630TIP3   OH238084   3.990   6.232  18.947  0.6808 -0.7728  0.0702
 4630TIP3    H138085   3.940   6.160  18.984 -1.4844 -0.2760 -1.6622
 4630TIP3    H238086   3.962   6.309  18.996 -0.3980 -0.4789 -0.9621
 4631TIP3   OH238087   5.941   5.185  18.860 -0.2727  0.1505  0.8259
 4631TIP3    H138088   5.964   5.228  18.943  0.9249  1.8032 -0.3171
 4631TIP3    H238089   5.986   5.101  18.864  1.7569  1.1684  0.9085
 4632TIP3   OH238090   3.803   5.713  19.498 -0.1845  0.0038 -0.0799
 4632TIP3    H138091   3.744   5.638  19.503 -0.8284  0.5290  0.5685
 4632TIP3    H238092   3.745   5.787  19.478  0.1309  0.6474  1.2446
 4633TIP3   OH238093   5.097   5.410  19.795 -0.3987 -0.0837  0.2488
 4633TIP3    H138094   5.093   5.317  19.818  2.1665 -1.0313 -2.5999
 4633TIP3    H238095   5.187   5.435  19.814 -0.2947  1.0438 -1.5620
 4634TIP3   OH238096   0.490   4.411  17.388  0.3140 -0.1324 -0.1174
 4634TIP3    H138097   0.497   4.316  17.396 -0.4378 -0.1743  0.1410
 4634TIP3    H238098   0.435   4.437  17.462  1.9614  0.7148  0.8665
 4635TIP3   OH238099   3.917   3.430  17.285  0.6376  0.5318  0.1296
 4635TIP3    H138100   3.941   3.518  17.316  1.5890  0.4429 -0.3027
 4635TIP3    H238101   3.839   3.407  17.334 -1.7320  3.0016 -2.1355
 4636TIP3   OH238102   4.355   3.162  17.990 -0.2009  0.4734  0.4301
 4636TIP3    H138103   4.376   3.237  17.933 -1.2194 -0.4604 -1.2491
 4636TIP3    H238104   4.282   3.192  18.043 -0.4225  0.7620 -0.0321
 4637TIP3   OH238105   3.195   1.521  17.042  0.0745 -0.3347  0.2414
 4637TIP3    H138106   3.253   1.520  16.965  2.4008 -1.0052  1.9013
 4637TIP3    H238107   3.201   1.611  17.074 -0.3650 -0.2256  0.0170
 4638TIP3   OH238108   3.893   0.584  19.335 -0.1284 -0.4245 -0.2394
 4638TIP3    H138109   3.911   0.510  19.278 -2.5246 -1.7665  0.6240
 4638TIP3    H238110   3.833   0.639  19.285 -0.6310 -0.5646  0.1989
 4639TIP3   OH238111   3.651   3.190  17.912 -0.1076 -0.2656 -0.8770
 4639TIP3    H138112   3.674   3.099  17.891 -0.4098  0.0269 -2.6360
 4639TIP3    H238113   3.556   3.187  17.925 -0.1501 -0.1563 -1.1692
 4640TIP3   OH238114   2.107   5.372  17.951 -0.3896  0.3000  0.5257
 4640TIP3    H138115   2.118   5.407  17.862  1.1530 -1.0019  0.1606
 4640TIP3    H238116   2.062   5.442  17.999 -2.7819  0.4237 -1.6706
 4641TIP3   OH238117   4.137   4.810  19.005 -0.4049 -0.3775  0.3421
 4641TIP3    H138118   4.115   4.790  19.096  1.0050 -0.6311  0.6491
 4641TIP3    H238119   4.214   4.867  19.011 -0.7729  0.2558 -0.6814
 4642TIP3   OH238120   3.101   3.151  18.767  0.1501  0.0246 -0.8920
 4642TIP3    H138121   3.121   3.071  18.815  3.3206  1.3699  0.3128
 4642TIP3    H238122   3.032   3.194  18.818  1.8228  0.2973  1.3023
 4643TIP3   OH238123   2.605   3.792  18.115  0.1435 -0.0444  0.2614
 4643TIP3    H138124   2.599   3.888  18.115 -0.4007 -0.0115  3.1177
 4643TIP3    H238125   2.519   3.763  18.084  0.6353  0.3216 -1.5963
 4644TIP3   OH238126   4.090   4.094  18.579 -0.3662 -0.5762  0.3564
 4644TIP3    H138127   4.120   4.010  18.543 -0.3035 -0.3751 -0.0694
 4644TIP3    H238128   4.160   4.156  18.556 -0.0381 -0.5558  1.3463
 4645TIP3   OH238129   0.535   1.834  18.201 -0.0313  0.3748 -0.3375
 4645TIP3    H138130   0.595   1.801  18.134 -0.0699 -1.3975  0.4410
 4645TIP3    H238131   0.592   1.865  18.271 -0.0016  0.6410 -0.4821
 4646TIP3   OH238132   4.110   5.288  19.857 -0.3215 -0.0209 -0.2504
 4646TIP3    H138133   4.154   5.205  19.877  0.6387  0.4012 -0.5468
 4646TIP3    H238134   4.125   5.301  19.763 -1.4498 -0.0638 -0.4533
 4647TIP3   OH238135   5.760   5.336  18.620 -0.3526  0.4658  0.2588
 4647TIP3    H138136   5.766   5.430  18.637 -1.7299  0.8095 -0.9298
 4647TIP3    H238137   5.817   5.321  18.545 -0.4745  0.4389  0.1712
 4648TIP3   OH238138   3.909   1.725  19.432 -0.3044 -0.0796  0.4197
 4648TIP3    H138139   3.816   1.719  19.455 -0.1638 -2.7806  0.6731
 4648TIP3    H238140   3.952   1.753  19.513 -0.9479  2.4650 -0.0402
 4649TIP3   OH238141   0.440   0.877  19.977  0.2929  0.2226 -0.2319
 4649TIP3    H138142   0.408   0.804  20.030  2.1368  0.4082  1.2228
 4649TIP3    H238143   0.369   0.941  19.979 -0.6243 -0.7660 -0.0347
 4650TIP3   OH238144   0.083   0.138  16.954 -0.2131 -0.0657  0.1523
 4650TIP3    H138145   0.003   0.088  16.972  0.1390 -0.7067 -0.0347
 4650TIP3    H238146   0.123   0.092  16.881  1.8197 -1.5109  2.0519
 4651TIP3   OH238147   0.594   0.887  17.289 -0.5319 -0.2837 -0.6883
 4651TIP3    H138148   0.509   0.866  17.250  0.1969 -0.3138 -2.3046
 4651TIP3    H238149   0.658   0.836  17.239  0.3940 -0.9331  1.0549
 4652TIP3   OH238150   3.017   4.939  18.489 -0.5498 -0.1967 -0.3239
 4652TIP3    H138151   3.097   4.979  18.456 -0.2676 -0.2599  0.2648
 4652TIP3    H238152   3.046   4.859  18.532 -0.6927  0.6215  1.3984
 4653TIP3   OH238153   4.504   0.406  16.459  0.7274 -0.0919  0.9278
 4653TIP3    H138154   4.417   0.444  16.448  0.4631 -0.4944  1.5979
 4653TIP3    H238155   4.488   0.315  16.483  1.3502 -0.8881 -1.3907
 4654TIP3   OH238156   4.482   1.993  19.962 -0.1515  0.1663  0.5274
 4654TIP3    H138157   4.440   1.911  19.986 -0.5356 -0.0129 -0.7142
 4654TIP3    H238158   4.555   2.002  20.024  0.1194 -1.2896  0.4347
 4655TIP3   OH238159   4.433   1.711  19.975  0.0716  0.4583 -0.3814
 4655TIP3    H138160   4.384   1.712  19.893  1.4912  1.2590 -1.2682
 4655TIP3    H238161   4.473   1.624  19.979 -0.9570 -0.0076  0.0829
 4656TIP3   OH238162   0.889   3.622  18.250 -0.0352 -0.0715 -0.2311
 4656TIP3    H138163   0.835   3.693  18.286 -0.2174 -0.2532 -0.1483
 4656TIP3    H238164   0.889   3.555  18.317  0.3274 -0.0585 -0.2153
 4657TIP3   OH238165   4.009   0.569  18.046  0.0799  0.5570  0.1600
 4657TIP3    H138166   3.982   0.569  17.954 -1.1266  2.0373  0.4673
 4657TIP3    H238167   4.061   0.489  18.056 -0.5499 -0.1212 -1.5704
 4658TIP3   OH238168   0.190   1.181  18.454  0.1218  0.5208  0.3889
 4658TIP3    H138169   0.169   1.274  18.443 -0.8080  0.3068  0.2655
 4658TIP3    H238170   0.223   1.154  18.368  1.9473  1.1007  0.8636
 4659TIP3   OH238171   3.342   4.650  19.288  0.1975  0.1882  0.0160
 4659TIP3    H138172   3.263   4.610  19.324  0.0311 -0.0454 -0.5790
 4659TIP3    H238173   3.310   4.711  19.221  0.5234 -0.2420 -0.5511
 4660TIP3   OH238174   4.069   1.314  19.938  0.1853  0.3077  0.5875
 4660TIP3    H138175   4.002   1.296  19.871 -0.0334 -0.1578  0.9238
 4660TIP3    H238176   4.084   1.408  19.932  0.6771  0.1713 -0.5921
 4661TIP3   OH238177   6.605   4.193  17.017  0.0558 -0.3929 -0.3508
 4661TIP3    H138178   6.587   4.244  17.095 -0.3181 -0.1553 -0.5872
 4661TIP3    H238179   6.528   4.136  17.008  1.0639 -1.9661  0.6643
 4662TIP3   OH238180   6.388   1.931  18.298  0.1759 -0.5350  0.1896
 4662TIP3    H138181   6.423   1.918  18.210  0.4427 -3.5975  0.6081
 4662TIP3    H238182   6.444   1.998  18.337  0.3578  0.5208 -1.7717
 4663TIP3   OH238183   3.445   4.209  18.766  0.4131  0.2650 -0.2971
 4663TIP3    H138184   3.469   4.175  18.680 -0.0632 -0.1210 -0.2822
 4663TIP3    H238185   3.354   4.236  18.757  0.8890  1.9104 -0.4055
 4664TIP3   OH238186   1.415   4.823  17.719 -0.2206 -0.2755 -0.3948
 4664TIP3    H138187   1.345   4.818  17.654  0.0779  0.0647 -0.7427
 4664TIP3    H238188   1.460   4.905  17.699 -1.4276  0.9394  1.5233
 4665TIP3   OH238189   3.481   2.172  16.959 -0.6549  0.1046  0.1802
 4665TIP3    H138190   3.550   2.144  17.020  0.9760 -0.5444 -1.8416
 4665TIP3    H238191   3.462   2.093  16.907  0.4811  1.3966 -2.3616
 4666TIP3   OH238192   0.064   5.094  17.417  0.0684 -0.0972  0.0053
 4666TIP3    H138193   0.126   5.024  17.437  0.2199  0.1861  0.5797
 4666TIP3    H238194   0.110   5.174  17.443 -0.3257  0.1607 -0.0816
 4667TIP3   OH238195   1.714   3.983  18.601  0.1806  0.4538  0.5884
 4667TIP3    H138196   1.672   3.898  18.583 -1.0072  1.1092  0.1602
 4667TIP3    H238197   1.778   3.963  18.669 -0.2012 -0.7655  0.6280
 4668TIP3   OH238198   2.048   3.633  17.475 -1.0336  0.5792  0.4876
 4668TIP3    H138199   2.095   3.706  17.515 -1.5506  1.9802 -1.2728
 4668TIP3    H238200   1.984   3.606  17.540  0.6428  0.1695  2.0296
 4669TIP3   OH238201   1.829   5.058  17.863 -0.0989 -0.0700  0.2202
 4669TIP3    H138202   1.892   5.055  17.791 -0.0301 -0.2641  0.2848
 4669TIP3    H238203   1.746   5.029  17.824  0.1055 -0.8981  0.3821
 4670TIP3   OH238204   3.670   2.012  17.784  0.2080 -0.2266  0.5800
 4670TIP3    H138205   3.703   2.071  17.717 -0.1363 -0.0448  0.5694
 4670TIP3    H238206   3.613   2.066  17.839 -2.0550 -1.0227 -0.8248
 4671TIP3   OH238207   2.578   3.053  16.635  0.0687 -0.6873  0.6293
 4671TIP3    H138208   2.568   3.004  16.553 -1.3498  0.3449  0.1502
 4671TIP3    H238209   2.490   3.086  16.653  1.3215  3.9479 -0.5302
 4672TIP3   OH238210   5.636   2.131  19.106  0.4370 -0.0540  0.4304
 4672TIP3    H138211   5.732   2.122  19.107  0.5817  1.3039  0.3968
 4672TIP3    H238212   5.605   2.045  19.076  1.6461 -0.4345  0.1706
 4673TIP3   OH238213   0.644   5.553  18.633  0.1180 -0.3547 -0.2213
 4673TIP3    H138214   0.695   5.589  18.560  1.1017 -0.0414  0.5896
 4673TIP3    H238215   0.699   5.484  18.669 -0.6881 -1.0129 -0.2337
 4674TIP3   OH238216   2.754   0.986  18.445 -0.6806  0.5822 -0.4728
 4674TIP3    H138217   2.849   0.993  18.455 -0.7535  1.4148 -0.3167
 4674TIP3    H238218   2.726   1.070  18.409 -1.4101  0.5151 -0.1028
 4675TIP3   OH238219   3.129   2.761  18.442 -0.0871  0.0388  0.0242
 4675TIP3    H138220   3.159   2.831  18.384  0.6899 -0.7174 -0.5121
 4675TIP3    H238221   3.036   2.779  18.455 -0.5408 -0.3240 -2.2679
 4676TIP3   OH238222   1.342   0.371  18.577 -0.0710  0.3051  0.2170
 4676TIP3    H138223   1.422   0.406  18.616 -0.8337 -0.1233  2.2729
 4676TIP3    H238224   1.357   0.276  18.571  0.6977  0.5139 -2.2388
 4677TIP3   OH238225   2.409   4.936  17.657 -0.0997  0.1488 -0.4312
 4677TIP3    H138226   2.496   4.909  17.688  0.6916  1.4699 -1.3778
 4677TIP3    H238227   2.404   4.900  17.568 -0.3737  0.3500 -0.4982
 4678TIP3   OH238228   3.267   3.017  18.420 -0.4124  0.1537  0.2838
 4678TIP3    H138229   3.335   3.075  18.387  0.2489 -0.8789 -0.2137
 4678TIP3    H238230   3.293   2.998  18.511  1.7514 -2.7091 -0.7977
 4679TIP3   OH238231   1.579   4.680  19.000 -0.7841  0.1544  0.4030
 4679TIP3    H138232   1.555   4.769  19.027 -1.9124  0.5623 -1.7761
 4679TIP3    H238233   1.583   4.684  18.905  0.5139 -1.8215  0.3246
 4680TIP3   OH238234   2.075   0.256  20.027  0.0931 -0.1926 -0.4081
 4680TIP3    H138235   2.063   0.270  19.933 -1.5999 -1.1981 -0.3737
 4680TIP3    H238236   2.169   0.236  20.036  0.1763 -0.6598 -1.9639
 4681TIP3   OH238237   3.468   2.620  17.374 -0.4763 -0.0035 -0.0872
 4681TIP3    H138238   3.509   2.703  17.350 -1.9266  1.1322  1.1792
 4681TIP3    H238239   3.475   2.567  17.295  1.0471  1.0622 -0.7311
 4682TIP3   OH238240   4.176   3.110  17.748  0.0673 -0.0266  0.1754
 4682TIP3    H138241   4.153   3.018  17.736  0.4534  0.1554 -2.9017
 4682TIP3    H238242   4.266   3.108  17.780 -0.1226 -0.7098  0.6769
 4683TIP3   OH238243   6.022   0.645  17.896  0.4942 -0.2419  0.1991
 4683TIP3    H138244   6.016   0.564  17.946  0.9614 -1.9342 -2.3495
 4683TIP3    H238245   5.935   0.656  17.856  1.1620 -0.9223 -1.5102
 4684TIP3   OH238246   5.677   1.161  18.566  0.8550 -0.2660 -0.1064
 4684TIP3    H138247   5.755   1.203  18.529 -0.0253  0.1217 -1.6110
 4684TIP3    H238248   5.689   1.168  18.661  1.6831  1.6463 -0.2964
 4685TIP3   OH238249   2.838   6.235  19.093 -0.0093 -0.3601 -0.0288
 4685TIP3    H138250   2.838   6.238  18.997  0.1991  0.3751 -0.0109
 4685TIP3    H238251   2.828   6.326  19.120  1.0689 -0.4345  0.6527
 4686TIP3   OH238252   4.429   3.339  17.805  0.0495 -0.6606 -0.1908
 4686TIP3    H138253   4.351   3.382  17.769  0.2697 -2.4695 -3.1409
 4686TIP3    H238254   4.501   3.399  17.783 -0.0111 -1.0350 -1.4736
 4687TIP3   OH238255   1.363   3.057  18.585 -0.5402 -0.2510 -0.2798
 4687TIP3    H138256   1.435   2.998  18.563 -0.5992 -0.0601 -1.0006
 4687TIP3    H238257   1.311   3.008  18.648 -1.6360 -1.7566 -2.2446
 4688TIP3   OH238258   0.360   0.562  19.213 -0.2521 -0.4814  0.5666
 4688TIP3    H138259   0.430   0.554  19.148 -0.8918 -0.1621 -0.1848
 4688TIP3    H238260   0.399   0.612  19.285  1.1071 -2.6110  1.3999
 4689TIP3   OH238261   4.553   4.885  18.332 -0.0271  0.6770 -0.1941
 4689TIP3    H138262   4.470   4.839  18.321  0.0729  0.6183 -0.7411
 4689TIP3    H238263   4.618   4.816  18.341  0.1453  0.6874 -1.1759
 4690TIP3   OH238264   2.207   3.442  19.216 -0.1583  0.3020  0.3834
 4690TIP3    H138265   2.120   3.437  19.175 -0.3529 -0.7196  0.8788
 4690TIP3    H238266   2.218   3.356  19.257  0.8995  0.5894  0.7116
 4691TIP3   OH238267   5.542   1.259  20.290  0.0133 -0.2896  0.1482
 4691TIP3    H138268   5.565   1.223  20.376 -0.9685  2.8756  1.8693
 4691TIP3    H238269   5.623   1.302  20.260  0.0246 -0.4081  0.0063
 4692TIP3   OH238270   1.188   4.725  17.841  0.0236 -0.0179 -0.2756
 4692TIP3    H138271   1.233   4.800  17.881  0.5791  0.4565 -1.7142
 4692TIP3    H238272   1.115   4.764  17.792 -1.3727 -0.6961  1.1841
 4693TIP3   OH238273   3.454   0.013  17.740 -0.3764 -0.1504 -0.7717
 4693TIP3    H138274   3.474   0.107  17.738  1.4298 -0.4169  1.2644
 4693TIP3    H238275   3.494  -0.021  17.660  1.3162  0.4487 -0.2287
 4694TIP3   OH238276   4.313   0.181  18.232  0.1842 -0.1891 -0.2181
 4694TIP3    H138277   4.385   0.125  18.262  0.5745 -0.8375 -2.2058
 4694TIP3    H238278   4.234   0.131  18.253  0.4314 -0.5987 -0.2376
 4695TIP3   OH238279   1.048   5.129  18.487 -0.1490 -0.3940 -0.3541
 4695TIP3    H138280   1.096   5.052  18.457  2.0448  0.1898  1.3597
 4695TIP3    H238281   1.049   5.122  18.583  0.6752  2.0144 -0.1139
 4696TIP3   OH238282   1.923   0.359  18.461 -0.2693 -0.4870  0.1633
 4696TIP3    H138283   1.865   0.379  18.387 -0.7419  0.2442  0.7220
 4696TIP3    H238284   2.007   0.340  18.420 -0.3917  0.4094 -0.5423
 4697TIP3   OH238285   4.341   0.756  16.985 -0.1668 -0.0696  0.0905
 4697TIP3    H138286   4.342   0.753  17.080  0.8927  1.4470  0.1472
 4697TIP3    H238287   4.251   0.782  16.962 -0.1170  0.6414  0.7080
 4698TIP3   OH238288   6.209   2.912  17.609  0.6327  0.3778 -0.1512
 4698TIP3    H138289   6.133   2.863  17.641  0.0589  0.9795 -0.5809
 4698TIP3    H238290   6.281   2.884  17.666  0.0243  0.0332  0.4583
 4699TIP3   OH238291   4.737   2.598  18.208 -0.1698 -0.0530 -0.6008
 4699TIP3    H138292   4.771   2.561  18.289 -1.4161  1.0762  0.4843
 4699TIP3    H238293   4.799   2.668  18.185  0.2332 -0.4348 -0.7001
 4700TIP3   OH238294   1.901   5.344  18.299 -0.0944  0.0993 -0.3911
 4700TIP3    H138295   1.941   5.277  18.356 -0.4763 -2.1272 -2.5743
 4700TIP3    H238296   1.816   5.362  18.340 -0.0180 -0.8081  0.1971
 4701TIP3   OH238297   5.986   2.747  19.008 -0.1971  0.5122 -0.0389
 4701TIP3    H138298   6.056   2.754  19.073  0.7447 -0.5713 -0.8819
 4701TIP3    H238299   5.932   2.674  19.039 -1.0311  1.3877  0.6451
 4702TIP3   OH238300   3.209   2.748  19.792 -0.2411  0.3447  0.3323
 4702TIP3    H138301   3.144   2.816  19.805 -1.5600 -1.0147  1.2129
 4702TIP3    H238302   3.166   2.668  19.822  1.9025 -0.5873  1.1453
 4703TIP3   OH238303   3.996   3.396  19.490 -0.0628  0.0132 -0.2125
 4703TIP3    H138304   3.937   3.347  19.547  0.5939 -0.9823 -0.3598
 4703TIP3    H238305   3.940   3.461  19.446 -1.0333 -0.8711 -0.3097
 4704TIP3   OH238306   5.402   6.154  18.587  0.3846 -0.4059  0.1575
 4704TIP3    H138307   5.492   6.148  18.553 -0.0667 -1.8730 -0.8397
 4704TIP3    H238308   5.375   6.243  18.566  1.6533  0.1340  0.6467
 4705TIP3   OH238309   0.143   1.578  20.132 -0.2231 -0.5741  0.4690
 4705TIP3    H138310   0.171   1.646  20.071  1.4315 -1.4824  0.1444
 4705TIP3    H238311   0.080   1.526  20.082  1.3975 -1.5327 -0.6719
 4706TIP3   OH238312   0.635   6.650  17.420 -0.2825 -0.5162 -0.1350
 4706TIP3    H138313   0.575   6.578  17.439  0.6812 -1.1333  0.6752
 4706TIP3    H238314   0.585   6.729  17.440 -1.4433 -0.9274 -1.3020
 4707TIP3   OH238315   4.303   2.167  18.321  0.1041 -0.1969 -0.1242
 4707TIP3    H138316   4.328   2.239  18.263  0.6270 -1.7093 -1.8471
 4707TIP3    H238317   4.299   2.090  18.264  0.4136 -1.7239  1.8220
 4708TIP3   OH238318   1.674   1.432  18.226  0.1361  0.1075  0.0980
 4708TIP3    H138319   1.619   1.354  18.228 -1.2780  1.0716  1.8591
 4708TIP3    H238320   1.629   1.491  18.165 -1.2434  1.1257  1.9812
 4709TIP3   OH238321   3.772   6.248  17.091 -0.1766 -0.0461  0.3197
 4709TIP3    H138322   3.826   6.170  17.080 -1.0327 -0.4505 -1.1802
 4709TIP3    H238323   3.756   6.253  17.185  0.1373 -1.4919  0.4662
 4710TIP3   OH238324   3.526   2.998  16.550  1.0649 -0.1633 -0.5197
 4710TIP3    H138325   3.513   3.045  16.632 -0.5114 -0.3396 -0.6497
 4710TIP3    H238326   3.621   2.995  16.539  1.2636  0.6823  0.8145
 4711TIP3   OH238327   1.124   4.541  19.163  0.6202  0.0582  0.9822
 4711TIP3    H138328   1.137   4.449  19.140  0.9599  0.4491 -0.5501
 4711TIP3    H238329   1.183   4.588  19.103 -1.9653  1.4589 -0.6515
 4712TIP3   OH238330   6.388   5.832  19.974  0.1606 -0.5131 -0.0842
 4712TIP3    H138331   6.304   5.847  19.932 -0.2635 -0.5807  0.7261
 4712TIP3    H238332   6.369   5.829  20.068  1.0513 -0.6051  0.1093
 4713TIP3   OH238333   2.575   5.826  17.668 -0.1350 -0.2267  0.0327
 4713TIP3    H138334   2.643   5.761  17.687  1.4573  1.1319 -0.7339
 4713TIP3    H238335   2.516   5.781  17.607 -0.1701 -1.5459  0.9780
 4714TIP3   OH238336   5.527   6.071  19.492  0.3087  0.3959  0.0743
 4714TIP3    H138337   5.494   6.157  19.466 -0.2557 -0.3505 -1.9058
 4714TIP3    H238338   5.549   6.028  19.409  1.4181 -1.0502  1.0704
 4715TIP3   OH238339   5.210   6.264  18.037 -0.0940 -0.5166 -0.1776
 4715TIP3    H138340   5.274   6.296  18.101  0.5551 -1.6363 -0.2317
 4715TIP3    H238341   5.235   6.307  17.955  0.2982 -0.5765 -0.0943
 4716TIP3   OH238342   0.322   1.563  18.625 -0.5142 -0.3175  0.1290
 4716TIP3    H138343   0.238   1.528  18.597 -1.3889  1.3921  0.4794
 4716TIP3    H238344   0.366   1.489  18.667 -0.3552 -2.1853 -2.9876
 4717TIP3   OH238345   0.975   1.254  19.367 -0.1382 -0.2204 -0.0437
 4717TIP3    H138346   0.985   1.315  19.440  0.1702  0.3992 -0.5929
 4717TIP3    H238347   0.886   1.221  19.374 -0.2309  0.1213  0.3967
 4718TIP3   OH238348   3.708   3.144  20.129  0.3760  0.8345 -0.1366
 4718TIP3    H138349   3.679   3.152  20.220 -0.4852  2.0071 -0.4809
 4718TIP3    H238350   3.627   3.149  20.078  1.0320  2.9334 -1.0774
 4719TIP3   OH238351   1.187   6.347  16.645 -0.4726  0.0904 -0.1541
 4719TIP3    H138352   1.186   6.427  16.593 -0.1671 -0.5253 -1.1228
 4719TIP3    H238353   1.278   6.337  16.672  0.0353 -1.2496 -2.1595
 4720TIP3   OH238354   4.636   6.269  17.303  0.6256  0.3537  0.1041
 4720TIP3    H138355   4.673   6.352  17.332 -1.2620  0.7629  1.5667
 4720TIP3    H238356   4.706   6.205  17.315  1.4240  1.3613  1.0183
 4721TIP3   OH238357   3.569   2.124  17.253  0.0395 -0.3943 -0.2076
 4721TIP3    H138358   3.632   2.099  17.186  0.5806 -0.4327  0.3029
 4721TIP3    H238359   3.485   2.092  17.221  0.1931  0.0804 -1.1284
 4722TIP3   OH238360   3.161   0.409  19.051  0.2520  0.5853  0.8919
 4722TIP3    H138361   3.085   0.384  18.999  0.9865  1.3033 -0.5829
 4722TIP3    H238362   3.139   0.381  19.140 -1.1634 -0.4168  0.2676
 4723TIP3   OH238363   0.794   5.595  18.365  0.2380 -0.1786  0.5900
 4723TIP3    H138364   0.812   5.583  18.272 -0.0946 -0.8375  0.6031
 4723TIP3    H238365   0.864   5.549  18.410  0.2070 -0.1574  0.6604
 4724TIP3   OH238366   2.234   3.623  18.341  0.8185 -0.2726 -0.4159
 4724TIP3    H138367   2.168   3.568  18.299 -0.3180 -0.7078  1.7889
 4724TIP3    H238368   2.317   3.596  18.301  0.0286 -2.0295 -0.9755
 4725TIP3   OH238369   6.528   2.355  16.544 -0.6037 -0.3945 -0.4174
 4725TIP3    H138370   6.469   2.309  16.483 -1.6365 -0.8767  0.8980
 4725TIP3    H238371   6.544   2.439  16.502 -2.3698 -0.1878 -0.7661
 4726TIP3   OH238372   6.209   3.972  18.320  0.3854 -0.1614 -0.0176
 4726TIP3    H138373   6.225   3.880  18.299  2.5116 -0.9972  4.2723
 4726TIP3    H238374   6.134   3.970  18.379 -0.1048  1.0164 -0.5716
 4727TIP3   OH238375   6.081   1.036  18.387 -0.2895  0.0388 -0.0433
 4727TIP3    H138376   6.132   1.047  18.306 -0.3693  0.1312 -0.0802
 4727TIP3    H238377   6.008   0.980  18.363  0.6858 -1.4805  0.3959
 4728TIP3   OH238378   5.892   2.657  17.385 -0.2590  0.1598  0.3885
 4728TIP3    H138379   5.859   2.572  17.413  0.4380  0.1463  1.2153
 4728TIP3    H238380   5.833   2.720  17.424 -0.5007  0.0728  0.1666
 4729TIP3   OH238381   0.823   0.274  18.125 -0.0027  0.0817  0.0225
 4729TIP3    H138382   0.789   0.358  18.156  1.7838 -0.1284  2.8137
 4729TIP3    H238383   0.859   0.293  18.038  0.6205  2.2824  0.7088
 4730TIP3   OH238384   6.200   3.074  17.856  0.1538  0.0077 -0.0006
 4730TIP3    H138385   6.123   3.102  17.904 -0.1291 -0.2149 -0.3169
 4730TIP3    H238386   6.178   2.986  17.824  0.8351 -0.3840  0.5709
 4731TIP3   OH238387   3.619   5.388  19.144 -0.4459 -0.5428 -0.5073
 4731TIP3    H138388   3.541   5.358  19.190 -0.3651  0.9240  0.6741
 4731TIP3    H238389   3.592   5.395  19.052 -1.4153 -0.9656 -0.2627
 4732TIP3   OH238390   0.349   0.849  19.356 -0.5379 -0.7518 -0.1886
 4732TIP3    H138391   0.254   0.846  19.349 -0.6966  0.3361  0.9827
 4732TIP3    H238392   0.374   0.932  19.315 -0.2491 -0.4164  0.6333
 4733TIP3   OH238393   0.825   0.233  17.210  0.2400 -0.0900 -0.0642
 4733TIP3    H138394   0.893   0.192  17.264 -0.0121 -0.8010 -0.2826
 4733TIP3    H238395   0.779   0.291  17.271 -1.0428 -2.0300  0.9147
 4734TIP3   OH238396   0.062   4.558  17.158  0.3380 -0.2943  0.5298
 4734TIP3    H138397   0.015   4.630  17.200  0.2892  0.0224 -0.0601
 4734TIP3    H238398   0.012   4.480  17.182  0.5156 -0.1626  1.3540
 4735TIP3   OH238399   6.514   3.806  18.949  0.4653 -0.0956 -0.0742
 4735TIP3    H138400   6.481   3.717  18.952 -2.4091  0.8677 -0.2498
 4735TIP3    H238401   6.437   3.861  18.961  2.1775  2.3871  0.3399
 4736TIP3   OH238402   4.634   5.929  18.142 -0.5998  0.5512 -0.0424
 4736TIP3    H138403   4.563   5.993  18.150 -1.1571 -0.2401  1.9811
 4736TIP3    H238404   4.600   5.864  18.080 -0.9933  0.9834 -0.2898
 4737TIP3   OH238405   5.249   3.630  17.529 -0.2120 -0.2593 -0.0129
 4737TIP3    H138406   5.247   3.724  17.509 -0.2708 -0.0364  0.9749
 4737TIP3    H238407   5.217   3.625  17.619  0.6032 -1.1516  0.2352
 4738TIP3   OH238408   0.892   2.841  18.811  0.3514  0.4283  0.5712
 4738TIP3    H138409   0.888   2.885  18.726 -2.2886 -0.3966  0.1769
 4738TIP3    H238410   0.951   2.896  18.864 -0.3444  2.6652 -0.8410
 4739TIP3   OH238411   0.749   5.350  19.160 -1.0901 -0.2551  0.0536
 4739TIP3    H138412   0.760   5.345  19.255 -0.9301  2.4408  0.2509
 4739TIP3    H238413   0.694   5.274  19.138 -1.5677 -0.6443  2.3577
 4740TIP3   OH238414   3.162   6.441  17.525 -0.5476 -0.5301 -0.0200
 4740TIP3    H138415   3.252   6.431  17.555 -0.9979  0.0343  1.6541
 4740TIP3    H238416   3.144   6.361  17.475  0.4095 -1.3421  0.8920
 4741TIP3   OH238417   3.254   0.130  19.820 -0.1377 -0.0987 -0.2541
 4741TIP3    H138418   3.207   0.203  19.780 -0.1957  0.7656  1.3108
 4741TIP3    H238419   3.198   0.102  19.892  0.5159 -0.8131 -0.0093
 4742TIP3   OH238420   5.931   2.353  19.484  0.3056 -0.0764  0.3797
 4742TIP3    H138421   5.980   2.357  19.402  0.5605 -2.8003  0.3101
 4742TIP3    H238422   5.844   2.320  19.458  0.2093 -0.4321  1.1283
 4743TIP3   OH238423   1.938   4.009  19.362  0.3515 -0.5304  1.3456
 4743TIP3    H138424   1.999   3.944  19.327  1.8617  1.2835  0.4268
 4743TIP3    H238425   1.991   4.064  19.419 -0.3192  1.1898  0.4238
 4744TIP3   OH238426   5.885   4.240  18.434 -0.0571 -0.2756  0.3636
 4744TIP3    H138427   5.869   4.333  18.451 -1.4996 -0.7562  2.0240
 4744TIP3    H238428   5.797   4.201  18.432  0.5519 -1.7747  0.9946
 4745TIP3   OH238429   0.214   1.821  17.518 -0.2581  0.2326  0.3944
 4745TIP3    H138430   0.250   1.839  17.605 -1.3151 -0.7281  1.0522
 4745TIP3    H238431   0.215   1.906  17.474  1.0415  0.5811  1.0329
 4746TIP3   OH238432   1.044   6.403  18.959 -0.0731 -0.1133  0.1325
 4746TIP3    H138433   1.059   6.476  18.899 -0.0924 -0.4497 -0.2829
 4746TIP3    H238434   1.004   6.444  19.036 -0.6570  0.2272 -0.3452
 4747TIP3   OH238435   3.870   2.745  19.679  0.4280 -0.1504 -0.0774
 4747TIP3    H138436   3.838   2.714  19.595 -0.3425 -0.5259  0.3463
 4747TIP3    H238437   3.963   2.761  19.665  0.8522 -2.5004 -0.3587
 4748TIP3   OH238438   0.144   5.234  17.808 -0.2069  0.1002 -0.1022
 4748TIP3    H138439   0.137   5.239  17.713  0.9791 -0.1132 -0.2095
 4748TIP3    H238440   0.230   5.271  17.829 -1.2977  2.1947  1.0863
 4749TIP3   OH238441   4.030   3.301  19.100  0.9097 -0.4972 -0.0871
 4749TIP3    H138442   3.951   3.356  19.097 -0.2567 -2.0530  0.4978
 4749TIP3    H238443   4.101   3.358  19.071 -0.4359  0.9571 -0.6312
 4750TIP3   OH238444   3.047   1.959  18.042 -0.3964 -0.2944 -0.0247
 4750TIP3    H138445   3.090   2.004  18.115 -0.9169 -1.0720  0.7763
 4750TIP3    H238446   2.984   2.023  18.009  0.2373  0.2677 -0.1710
 4751TIP3   OH238447   6.490   5.254  17.703 -0.5274 -0.1222  0.0971
 4751TIP3    H138448   6.521   5.328  17.651 -1.4216  1.3309  1.5510
 4751TIP3    H238449   6.534   5.264  17.787 -1.5955 -0.5407  0.7189
 4752TIP3   OH238450   3.294   4.077  17.991 -0.3295 -0.1434 -0.1631
 4752TIP3    H138451   3.387   4.068  17.971 -0.0863  0.7863  0.4974
 4752TIP3    H238452   3.272   4.166  17.964 -1.1430 -0.4952 -0.7167
 4753TIP3   OH238453   4.652   5.032  17.345 -0.3260 -0.0332 -0.0245
 4753TIP3    H138454   4.704   5.081  17.409  0.8563  1.4562 -1.9910
 4753TIP3    H238455   4.573   5.084  17.334  0.3901  0.8685 -1.2159
 4754TIP3   OH238456   3.674   5.660  16.347 -0.2170 -0.8823  0.1608
 4754TIP3    H138457   3.685   5.748  16.385  0.0022 -1.6348  1.9795
 4754TIP3    H238458   3.725   5.662  16.266 -1.3949  1.0883 -0.5980
 4755TIP3   OH238459   5.850   0.595  18.193 -0.4763 -0.1794  0.1401
 4755TIP3    H138460   5.902   0.520  18.168  0.3774 -0.3216  2.1170
 4755TIP3    H238461   5.763   0.579  18.156  0.0564 -1.4682 -0.5724
 4756TIP3   OH238462   3.332   4.511  18.985  0.3320 -0.5133  0.0515
 4756TIP3    H138463   3.363   4.520  18.895  1.0476 -1.2009  0.2191
 4756TIP3    H238464   3.367   4.587  19.031  1.9692 -1.3514  0.2753
 4757TIP3   OH238465   5.231   1.919  17.760 -0.3710  0.1331 -0.3727
 4757TIP3    H138466   5.272   2.005  17.754 -1.5841  0.6939 -0.9690
 4757TIP3    H238467   5.170   1.926  17.833 -0.3243 -0.2857 -0.2902
 4758TIP3   OH238468   2.251   0.510  17.932  0.1731 -0.2490 -0.3799
 4758TIP3    H138469   2.327   0.467  17.971 -0.1426 -1.1829 -0.7676
 4758TIP3    H238470   2.194   0.438  17.905  0.7434  0.3141 -3.3525
 4759TIP3   OH238471   6.487   6.279  17.064  0.1455  0.0398  0.0352
 4759TIP3    H138472   6.564   6.270  17.009 -0.5124  2.0257 -1.3208
 4759TIP3    H238473   6.425   6.329  17.011 -1.4489 -0.0630  1.6912
 4760TIP3   OH238474   1.054   5.597  19.549 -0.4435  0.3740  0.3254
 4760TIP3    H138475   1.006   5.679  19.534 -4.0290 -1.7388 -1.2853
 4760TIP3    H238476   1.014   5.560  19.627  0.2318 -0.3846  0.3214
 4761TIP3   OH238477   3.506   0.373  20.056  0.1679  0.3218  0.0417
 4761TIP3    H138478   3.412   0.388  20.046  0.5223  2.1815 -1.0585
 4761TIP3    H238479   3.539   0.457  20.090  1.2614 -0.7555  1.7576
 4762TIP3   OH238480   6.398   5.778  19.318  0.1037 -0.3615 -0.3816
 4762TIP3    H138481   6.458   5.782  19.392 -1.7967 -1.8220  1.3730
 4762TIP3    H238482   6.395   5.686  19.294 -0.1740 -0.0665 -1.5723
 4763TIP3   OH238483   0.250   4.690  19.771  0.7344 -0.2032  0.0324
 4763TIP3    H138484   0.303   4.767  19.752  1.6924 -0.7763  0.3530
 4763TIP3    H238485   0.228   4.698  19.864 -1.1116  0.8477 -0.4390
 4764TIP3   OH238486   4.925   2.560  17.434 -0.0093  0.1196  0.2404
 4764TIP3    H138487   4.924   2.623  17.506 -0.0231  1.1305 -0.6195
 4764TIP3    H238488   4.884   2.606  17.361  1.1979 -0.3971 -0.8084
 4765TIP3   OH238489   1.422   1.394  18.493 -0.3805 -0.0093  0.1198
 4765TIP3    H138490   1.500   1.381  18.547 -0.8330 -0.2362  0.7267
 4765TIP3    H238491   1.436   1.337  18.416 -1.1525 -2.2033  1.5053
 4766TIP3   OH238492   0.796   6.548  18.548  0.1846  0.0132 -0.4005
 4766TIP3    H138493   0.733   6.602  18.500  0.0178 -0.3697 -0.6126
 4766TIP3    H238494   0.772   6.458  18.527  2.4384 -0.1578 -2.5883
 4767TIP3   OH238495   4.371   3.673  18.515  0.1764  0.2220  0.1065
 4767TIP3    H138496   4.325   3.611  18.458 -0.9937  2.2936 -1.3434
 4767TIP3    H238497   4.458   3.680  18.478 -0.0830  0.3425 -0.4999
 4768TIP3   OH238498   4.561   6.569  19.144  0.1687  0.1285  0.1433
 4768TIP3    H138499   4.519   6.487  19.171  1.3682 -0.2453  0.9626
 4768TIP3    H238500   4.621   6.543  19.075  1.8324 -0.0252  1.5758
 4769TIP3   OH238501   0.592   6.495  19.296  0.2689  0.1701  0.1306
 4769TIP3    H138502   0.644   6.441  19.355  1.0690  0.4920 -0.2597
 4769TIP3    H238503   0.645   6.502  19.216  0.8389  2.6241  0.6418
 4770TIP3   OH238504   0.597   1.441  19.145  0.1425  0.1140  0.6392
 4770TIP3    H138505   0.508   1.411  19.125  0.0477 -1.1212  2.6292
 4770TIP3    H238506   0.654   1.376  19.104  0.3009  2.0674 -2.5164
 4771TIP3   OH238507   4.664   0.347  18.997 -0.3484 -0.5743 -0.3112
 4771TIP3    H138508   4.671   0.341  18.901 -0.7976 -1.9184 -0.2899
 4771TIP3    H238509   4.571   0.363  19.013 -0.0268  1.2977 -0.1274
 4772TIP3   OH238510   4.761   1.681  18.798 -0.0664  0.2664  0.2383
 4772TIP3    H138511   4.791   1.664  18.887 -0.3224  0.1658  0.3040
 4772TIP3    H238512   4.774   1.775  18.787  1.4505  0.0250 -0.1695
 4773TIP3   OH238513   3.319   2.241  19.243  0.5629 -0.0717  0.1255
 4773TIP3    H138514   3.374   2.244  19.322  0.7623  0.7952 -0.0365
 4773TIP3    H238515   3.380   2.221  19.173  0.1789 -2.2372  0.3516
 4774TIP3   OH238516   0.493   2.369  17.775  0.6665 -0.3906  0.1856
 4774TIP3    H138517   0.576   2.337  17.739  0.6404 -0.2027 -0.0444
 4774TIP3    H238518   0.512   2.383  17.868  0.6475 -1.1649  0.3131
 4775TIP3   OH238519   6.515   1.548  18.221  0.1551  0.1412  0.1252
 4775TIP3    H138520   6.547   1.508  18.140  0.7389 -1.0299  0.8988
 4775TIP3    H238521   6.593   1.584  18.262  0.2152 -0.9908  1.0747
 4776TIP3   OH238522   5.752   0.487  19.843  0.5590  0.0040  0.4977
 4776TIP3    H138523   5.700   0.467  19.764 -0.3324 -0.5373  1.2004
 4776TIP3    H238524   5.696   0.545  19.894  1.3231  0.7189  0.5357
 4777TIP3   OH238525   2.115   3.297  20.310 -0.2020  0.4415  0.0421
 4777TIP3    H138526   2.144   3.262  20.226 -1.7086 -0.8949  0.0396
 4777TIP3    H238527   2.191   3.288  20.367  0.3877  0.0190 -0.7908
 4778TIP3   OH238528   3.553   4.792  19.111  0.2781  0.1714 -0.1487
 4778TIP3    H138529   3.613   4.720  19.096  0.5849  0.3783  0.0756
 4778TIP3    H238530   3.537   4.792  19.206  3.0130  2.4997  0.4708
 4779TIP3   OH238531   5.611   4.259  18.981 -0.5916 -0.4541 -0.3496
 4779TIP3    H138532   5.662   4.244  18.901  1.7125 -1.5048  1.1983
 4779TIP3    H238533   5.611   4.174  19.026  0.1937  0.6150  1.8251
 4780TIP3   OH238534   1.213   4.556  19.449  0.1663 -0.2734 -0.3803
 4780TIP3    H138535   1.233   4.647  19.473 -0.8520 -0.4534  1.3566
 4780TIP3    H238536   1.203   4.558  19.354 -0.0809  1.4787 -0.3637
 4781TIP3   OH238537   0.687   1.404  19.749  0.0455  0.4467 -0.0339
 4781TIP3    H138538   0.724   1.485  19.785  0.7432  0.5864 -1.0238
 4781TIP3    H238539   0.671   1.424  19.657  0.7849 -0.7286 -0.4329
 4782TIP3   OH238540   1.153   4.350  18.208  0.0470  0.6028 -0.1250
 4782TIP3    H138541   1.203   4.369  18.287  2.4198 -1.6193 -0.9773
 4782TIP3    H238542   1.068   4.320  18.240 -0.1157  2.5241  1.4199
 4783TIP3   OH238543   0.236   4.475  19.088  0.4051 -0.1202  0.0788
 4783TIP3    H138544   0.202   4.533  19.021 -0.3027  0.3343  0.8125
 4783TIP3    H238545   0.291   4.532  19.143 -0.1551 -0.1775  0.7028
 4784TIP3   OH238546   6.572   4.662  17.970  0.5620 -0.2176  0.3328
 4784TIP3    H138547   6.519   4.739  17.949  0.7355 -0.3811 -0.7423
 4784TIP3    H238548   6.625   4.690  18.045 -0.7407  0.0786  1.1974
 4785TIP3   OH238549   4.980   5.415  19.525  0.0878  0.0580  0.1125
 4785TIP3    H138550   4.905   5.359  19.547 -0.8861  1.6173  0.9678
 4785TIP3    H238551   5.037   5.411  19.602  1.7588 -2.3603 -1.1294
 4786TIP3   OH238552   3.218   4.978  17.226  0.3403 -0.5312 -0.2901
 4786TIP3    H138553   3.208   5.009  17.136 -0.7867  0.3693  0.1199
 4786TIP3    H238554   3.233   4.884  17.218 -0.1617 -0.5238 -1.4010
 4787TIP3   OH238555   0.849   2.673  18.558  0.0065  0.1777  0.0867
 4787TIP3    H138556   0.938   2.637  18.557 -0.1355 -0.1896 -1.6011
 4787TIP3    H238557   0.858   2.761  18.521  0.0494  1.2317  2.4317
 4788TIP3   OH238558   0.302   0.495  17.510 -0.1049  0.7557  0.8386
 4788TIP3    H138559   0.207   0.487  17.518 -0.1632  1.0139  0.4641
 4788TIP3    H238560   0.337   0.428  17.569 -0.5313  0.1364  0.4061
 4789TIP3   OH238561   0.274   5.013  17.962  0.3821 -0.2107 -0.5161
 4789TIP3    H138562   0.224   4.932  17.952  0.3388 -0.2058 -0.3448
 4789TIP3    H238563   0.225   5.078  17.912  0.0943 -0.1531 -0.1613
 4790TIP3   OH238564   3.474   4.770  19.527 -0.2823  0.2297  0.5366
 4790TIP3    H138565   3.479   4.845  19.469  2.0706 -1.6252 -1.9009
 4790TIP3    H238566   3.407   4.714  19.489 -0.1154 -0.1199  0.7488
 4791TIP3   OH238567   3.659   2.222  19.582 -0.3985  0.4469  0.8061
 4791TIP3    H138568   3.705   2.243  19.663 -1.0187  1.2594  0.9613
 4791TIP3    H238569   3.637   2.308  19.545 -1.4824  0.0684  0.5559
 4792TIP3   OH238570   4.939   4.447  19.101  0.1620  0.3036 -0.4008
 4792TIP3    H138571   4.887   4.378  19.060 -1.7516  0.8631  0.9392
 4792TIP3    H238572   4.946   4.515  19.034  1.9893 -1.0693 -1.7038
 4793TIP3   OH238573   0.694   1.944  17.252  0.3196  0.0521  0.1925
 4793TIP3    H138574   0.721   2.003  17.322  0.8865  0.8466 -0.6762
 4793TIP3    H238575   0.616   1.985  17.214  0.5425  0.0962 -0.2231
 4794TIP3   OH238576   1.369   3.039  17.505 -0.2019  0.0222 -0.3563
 4794TIP3    H138577   1.386   2.969  17.568  0.3736  0.4234 -0.0528
 4794TIP3    H238578   1.330   3.109  17.556 -2.0318 -0.5515 -0.8933
 4795TIP3   OH238579   2.582   2.939  19.236 -0.0965  0.3965 -0.2820
 4795TIP3    H138580   2.498   2.982  19.253 -0.0727  0.0791  0.7368
 4795TIP3    H238581   2.620   2.989  19.164 -0.8160  1.0323 -0.2407
 4796TIP3   OH238582   4.325   6.593  18.765 -0.4395 -0.2229  0.3307
 4796TIP3    H138583   4.411   6.560  18.740 -0.7278 -0.7563  0.0133
 4796TIP3    H238584   4.326   6.684  18.738  0.1351 -0.1410  0.6143
 4797TIP3   OH238585   4.877   4.256  19.801  0.1922 -0.2457  0.3891
 4797TIP3    H138586   4.809   4.295  19.856 -1.0250  0.1132 -1.2797
 4797TIP3    H238587   4.883   4.165  19.831 -1.9497 -0.6406 -0.1799
 4798TIP3   OH238588   6.488   1.328  18.774  0.3501  0.8331  0.0632
 4798TIP3    H138589   6.565   1.275  18.754  0.5890  0.8339  0.9578
 4798TIP3    H238590   6.489   1.397  18.707  0.8143  0.5199 -0.2604
 4799TIP3   OH238591   2.946   1.067  17.718  0.5093 -0.4035  0.0380
 4799TIP3    H138592   2.851   1.063  17.721  0.5728 -2.1114  0.6892
 4799TIP3    H238593   2.968   1.151  17.758 -0.6685 -0.6905  1.3319
 4800TIP3   OH238594   0.323   1.441  19.622 -0.1736  0.1964 -0.2294
 4800TIP3    H138595   0.278   1.407  19.699  0.1756  1.1180  0.3964
 4800TIP3    H238596   0.381   1.370  19.595  0.1007  0.0621  0.6925
 4801TIP3   OH238597   5.725   2.055  18.183  0.3132 -0.5802 -0.0072
 4801TIP3    H138598   5.677   1.973  18.188 -1.0149  0.0895 -0.9611
 4801TIP3    H238599   5.710   2.098  18.268 -0.7092 -0.4299 -0.2577
 4802TIP3   OH238600   0.795   1.684  19.696 -0.6329  0.3790  0.1864
 4802TIP3    H138601   0.721   1.695  19.636 -1.0649 -2.2183  0.1456
 4802TIP3    H238602   0.873   1.692  19.640 -0.8553  1.9861  0.0424
 4803TIP3   OH238603   4.680   4.008  16.793 -0.2265  0.1960  0.0838
 4803TIP3    H138604   4.679   4.052  16.878 -0.3788  0.4152 -0.0277
 4803TIP3    H238605   4.762   4.037  16.752  1.1593 -1.9577  1.1872
 4804TIP3   OH238606   3.116   5.987  16.689  0.3225 -0.4082  0.2333
 4804TIP3    H138607   3.051   5.941  16.743  0.4262 -0.5219  0.2636
 4804TIP3    H238608   3.065   6.050  16.638  0.1177 -0.8805 -0.1507
 4805TIP3   OH238609   6.509   0.032  20.085 -0.1993 -0.2879  0.2466
 4805TIP3    H138610   6.503  -0.051  20.132 -0.8515  0.8922  2.4001
 4805TIP3    H238611   6.425   0.075  20.102  0.5346  1.2622  0.1076
 4806TIP3   OH238612   6.530   5.368  18.123  0.1117 -0.2432  0.4702
 4806TIP3    H138613   6.456   5.390  18.067 -0.9984  1.0830  2.3587
 4806TIP3    H238614   6.503   5.288  18.169  0.5279 -0.6532  0.0178
 4807TIP3   OH238615   1.483   1.026  19.227 -0.3375  0.0981  0.4506
 4807TIP3    H138616   1.473   1.111  19.269 -1.7724 -0.6733  1.7725
 4807TIP3    H238617   1.577   1.017  19.210  0.2292  0.7061  2.9652
 4808TIP3   OH238618   6.019   1.049  17.851 -0.3085  0.6425 -0.0643
 4808TIP3    H138619   6.077   1.002  17.790  2.1783  2.5508  0.6308
 4808TIP3    H238620   6.013   0.992  17.927 -0.1384 -0.0255 -0.5421
 4809TIP3   OH238621   2.501   1.238  16.951  0.1828 -0.3582  0.6563
 4809TIP3    H138622   2.422   1.290  16.964  0.4215  0.1053  0.2529
 4809TIP3    H238623   2.572   1.302  16.948  0.5531 -0.7570  0.8142
 4810TIP3   OH238624   4.863   4.262  16.917 -0.4705  0.4104 -0.3818
 4810TIP3    H138625   4.911   4.180  16.915 -0.4629  0.4196 -0.6275
 4810TIP3    H238626   4.930   4.330  16.912 -0.5562  0.4253 -2.7425
 4811TIP3   OH238627   2.025   3.734  19.349 -0.0139 -0.0292  0.4529
 4811TIP3    H138628   2.005   3.735  19.443  2.7748  0.8534  1.1487
 4811TIP3    H238629   2.058   3.646  19.332  0.0089 -0.0210  0.4527
 4812TIP3   OH238630   6.241   3.051  17.378 -0.8107  0.2111  0.1294
 4812TIP3    H138631   6.184   2.984  17.341 -0.6816 -0.2297  0.7167
 4812TIP3    H238632   6.243   3.032  17.471  0.5315  0.0478  0.0836
 4813TIP3   OH238633   6.550   2.758  18.580 -0.0218  0.9094 -0.1530
 4813TIP3    H138634   6.610   2.732  18.649 -1.0206  0.5465  0.6056
 4813TIP3    H238635   6.587   2.720  18.500 -0.1365 -0.7582  0.5577
 4814TIP3   OH238636   2.715   2.237  19.442 -0.4285 -0.2174  0.2780
 4814TIP3    H138637   2.809   2.251  19.450 -0.4764 -0.5138  1.4668
 4814TIP3    H238638   2.692   2.280  19.359  1.0749 -1.8667 -1.0835
 4815TIP3   OH238639   0.637   2.432  20.061 -0.0290 -0.0657 -0.1895
 4815TIP3    H138640   0.687   2.467  19.987  0.2589 -0.8152 -0.3646
 4815TIP3    H238641   0.547   2.429  20.029 -0.5774  3.1036  0.7778
 4816TIP3   OH238642   2.144   6.303  19.709  0.1253 -0.0196  0.2809
 4816TIP3    H138643   2.239   6.314  19.700  0.2991 -1.8514 -0.6704
 4816TIP3    H238644   2.133   6.260  19.794  0.2830 -0.8455 -0.1000
 4817TIP3   OH238645   4.636   5.556  17.391 -0.1250 -0.0420 -0.9571
 4817TIP3    H138646   4.579   5.605  17.450  1.6183  0.4253  0.4148
 4817TIP3    H238647   4.617   5.592  17.304 -0.9390  1.0448 -0.3592
 4818TIP3   OH238648   1.556   3.964  16.667 -0.8194  0.1154 -0.2250
 4818TIP3    H138649   1.550   4.055  16.693  1.0565  0.4364 -0.7502
 4818TIP3    H238650   1.468   3.929  16.679 -1.5566  1.9693  0.0253
 4819TIP3   OH238651   1.922   4.029  17.519 -0.2268  0.4182  0.6569
 4819TIP3    H138652   1.931   4.002  17.428  1.0252 -3.2915  1.7061
 4819TIP3    H238653   2.013   4.036  17.550 -0.5908 -1.3117  2.2793
 4820TIP3   OH238654   5.509   6.143  16.411  0.5002  0.1736 -0.6735
 4820TIP3    H138655   5.504   6.078  16.481  0.6111  1.6069  0.7009
 4820TIP3    H238656   5.420   6.146  16.376 -0.3530  1.5588  1.4257
 4821TIP3   OH238657   5.838   3.707  17.665 -0.1524  0.0568 -0.2014
 4821TIP3    H138658   5.745   3.729  17.670  0.3488  2.5295 -0.4388
 4821TIP3    H238659   5.843   3.618  17.699 -2.6920 -0.4591 -0.9527
 4822TIP3   OH238660   1.333   0.008  18.817  0.6948  0.0031  0.1197
 4822TIP3    H138661   1.373   0.046  18.739  2.0388 -1.8435 -0.1466
 4822TIP3    H238662   1.366  -0.082  18.821 -3.8957 -2.0136 -0.4767
 4823TIP3   OH238663   6.629   1.932  20.173 -0.1639 -0.7652 -0.1313
 4823TIP3    H138664   6.577   1.893  20.243  0.3403 -0.0757  0.6375
 4823TIP3    H238665   6.618   1.871  20.099  0.6648 -2.4316  1.0435
 4824TIP3   OH238666   4.657   2.617  18.559 -0.7709 -0.5791  0.1212
 4824TIP3    H138667   4.600   2.574  18.623 -0.1814 -0.3363  0.8265
 4824TIP3    H238668   4.696   2.545  18.509 -3.1140 -0.7062 -1.6722
 4825TIP3   OH238669   0.678   4.117  18.801  0.4643 -0.1981  0.3529
 4825TIP3    H138670   0.610   4.049  18.799 -0.2978  0.5179  1.2708
 4825TIP3    H238671   0.731   4.095  18.877  2.3409 -1.7222 -1.2754
 4826TIP3   OH238672   4.505   0.652  16.788  0.0721 -0.0490 -0.0479
 4826TIP3    H138673   4.453   0.702  16.851  1.0208  0.8268  0.0636
 4826TIP3    H238674   4.476   0.682  16.702 -1.7362 -1.7542 -0.1201
 4827TIP3   OH238675   5.476   6.471  20.199  0.4000 -0.0313 -0.0125
 4827TIP3    H138676   5.385   6.493  20.221 -0.1921 -1.5795 -0.7333
 4827TIP3    H238677   5.488   6.505  20.111  0.2819 -0.4290 -0.1850
 4828TIP3   OH238678   0.006   2.926  17.134  0.1969 -0.2479  0.0819
 4828TIP3    H138679   0.046   2.842  17.157  0.6246 -0.3527 -0.9816
 4828TIP3    H238680  -0.066   2.936  17.196  0.5311 -1.0966  0.6292
 4829TIP3   OH238681   2.095   4.407  18.014 -0.2944 -0.1879  0.0847
 4829TIP3    H138682   2.136   4.484  17.974 -2.3633  1.7580  1.4184
 4829TIP3    H238683   2.084   4.345  17.943  1.5220  0.7158 -1.0429
 4830TIP3   OH238684   2.325   4.210  18.595 -0.0801 -0.0310 -0.0932
 4830TIP3    H138685   2.379   4.139  18.629 -0.2009  0.0322  0.2395
 4830TIP3    H238686   2.380   4.288  18.602  0.0289 -0.0837 -0.3948
 4831TIP3   OH238687   3.072   0.891  18.472  0.5170 -0.0923  0.0265
 4831TIP3    H138688   3.068   0.797  18.455  2.4359 -0.4404  1.2788
 4831TIP3    H238689   3.041   0.901  18.562  0.0975  0.5266 -0.1745
 4832TIP3   OH238690   4.038   0.381  17.717 -0.0848  0.1588  0.0466
 4832TIP3    H138691   4.046   0.472  17.691 -0.5244  0.0365 -0.5344
 4832TIP3    H238692   4.113   0.337  17.676  0.0189  0.2241  0.1663
 4833TIP3   OH238693   1.085   0.123  20.176  0.0003  0.3441  0.4056
 4833TIP3    H138694   1.151   0.192  20.169 -1.0917  1.3236 -0.5822
 4833TIP3    H238695   1.007   0.168  20.207 -0.5971 -0.5460  0.2076
 4834TIP3   OH238696   3.689   4.244  19.095  0.5708 -0.3209 -0.6616
 4834TIP3    H138697   3.599   4.214  19.081  1.1874 -1.8201 -1.6857
 4834TIP3    H238698   3.688   4.285  19.181 -1.3316  0.7119 -1.1273
 4835TIP3   OH238699   4.638   4.335  19.982 -0.1216  0.0239  0.0558
 4835TIP3    H138700   4.585   4.258  19.963  0.5062 -0.8708  1.7120
 4835TIP3    H238701   4.593   4.407  19.938 -1.2472 -1.1243 -0.7407
 4836TIP3   OH238702   3.645   5.973  17.573  0.7472  0.5201  0.1755
 4836TIP3    H138703   3.569   6.018  17.536  0.8323  1.5840  1.2578
 4836TIP3    H238704   3.702   5.958  17.498 -0.0845  0.5976 -0.4893
 4837TIP3   OH238705   5.290   5.346  18.113 -0.0198  0.0194  0.7265
 4837TIP3    H138706   5.342   5.278  18.156  1.9445 -0.9073 -2.7190
 4837TIP3    H238707   5.354   5.411  18.085 -0.9234 -0.0246 -1.6814
 4838TIP3   OH238708   4.280   4.010  16.838 -0.7618  0.0696 -0.7162
 4838TIP3    H138709   4.300   4.060  16.759  1.0864  1.4033  0.5054
 4838TIP3    H238710   4.244   4.075  16.899  0.1626 -0.3883  0.3585
 4839TIP3   OH238711   2.906   6.347  17.940  0.5417 -0.3763 -0.0469
 4839TIP3    H138712   2.857   6.371  18.019  1.5709  0.7364  0.2805
 4839TIP3    H238713   2.996   6.374  17.959  1.0363 -1.2208 -1.1341
 4840TIP3   OH238714   2.320   4.599  19.013  0.2059  0.1019  0.0457
 4840TIP3    H138715   2.277   4.558  19.089  1.8973  0.8190  1.4725
 4840TIP3    H238716   2.347   4.525  18.958 -0.3852 -0.4851  0.5355
 4841TIP3   OH238717   1.741   1.858  19.154 -0.3009 -0.5050  0.2138
 4841TIP3    H138718   1.767   1.949  19.140  0.0121 -0.6894 -0.4376
 4841TIP3    H238719   1.723   1.853  19.248 -0.5898  0.2932  0.2099
 4842TIP3   OH238720   6.118   3.699  17.316 -0.1112  0.3161 -0.2073
 4842TIP3    H138721   6.091   3.783  17.353 -1.0474  0.1634 -0.5007
 4842TIP3    H238722   6.213   3.699  17.322 -0.1620  0.9177  0.8293
 4843TIP3   OH238723   1.815   0.733  20.148 -0.3761 -0.1492 -0.6097
 4843TIP3    H138724   1.859   0.648  20.153  0.3333  0.2787  1.7301
 4843TIP3    H238725   1.882   0.796  20.175 -1.7202  0.7933  0.6623
 4844TIP3   OH238726   1.790   6.457  17.563 -0.3276 -0.2413 -0.8299
 4844TIP3    H138727   1.818   6.376  17.521  1.2889  0.3430 -0.9854
 4844TIP3    H238728   1.871   6.494  17.599 -1.0335  1.2745 -0.7268
 4845TIP3   OH238729   0.032   5.781  17.510  0.6464 -0.3599  0.1491
 4845TIP3    H138730  -0.003   5.726  17.440 -0.0633 -1.0502  1.0200
 4845TIP3    H238731  -0.044   5.806  17.561  1.1960 -0.2518  0.9391
 4846TIP3   OH238732   0.328   6.180  17.121  0.2234  0.2969  0.2030
 4846TIP3    H138733   0.270   6.174  17.196 -1.2819  0.0421 -0.9293
 4846TIP3    H238734   0.273   6.214  17.050  1.4559  0.0731 -0.9121
 4847TIP3   OH238735   5.094   2.084  18.154  0.3499  0.9388  0.0754
 4847TIP3    H138736   5.188   2.067  18.166  0.2816 -0.5748 -1.2107
 4847TIP3    H238737   5.058   2.083  18.243  1.3167 -0.1407  0.4892
 4848TIP3   OH238738   6.056   3.972  17.368 -0.1182  0.0907  0.4065
 4848TIP3    H138739   5.970   4.015  17.371 -0.0539  0.1649  1.6828
 4848TIP3    H238740   6.100   4.002  17.447  0.0359 -2.1156  1.2230
 4849TIP3   OH238741   4.104   0.623  16.153 -0.2584  0.5962  0.4500
 4849TIP3    H138742   4.149   0.605  16.070  0.5798  0.1547  0.9894
 4849TIP3    H238743   4.082   0.537  16.188 -0.7765  0.7855  0.6068
 4850TIP3   OH238744   5.348   3.568  16.850  0.1445  0.7008 -0.0052
 4850TIP3    H138745   5.353   3.473  16.847 -0.7345  0.6606 -0.5271
 4850TIP3    H238746   5.424   3.595  16.902  1.6010 -0.1619 -1.5895
 4851TIP3   OH238747   2.706   3.351  16.959  0.3711 -0.6678 -0.0559
 4851TIP3    H138748   2.630   3.386  16.912 -2.5300 -2.2693  3.0562
 4851TIP3    H238749   2.700   3.256  16.949  2.3257 -0.8377 -0.1370
 4852TIP3   OH238750   4.348   1.118  17.179  0.2627 -0.1784 -0.0010
 4852TIP3    H138751   4.369   1.027  17.161  1.2856  0.2691 -1.1505
 4852TIP3    H238752   4.372   1.130  17.271  0.2609 -1.0186  0.1208
 4853TIP3   OH238753   4.436   0.440  18.279  0.1869  0.2103 -0.1296
 4853TIP3    H138754   4.406   0.525  18.313  1.7043  0.2419  1.2454
 4853TIP3    H238755   4.370   0.378  18.309  1.0776  0.3524  2.3587
 4854TIP3   OH238756   4.760   6.546  18.939 -0.5166 -0.5703  0.7469
 4854TIP3    H138757   4.781   6.634  18.971 -0.2292 -0.9670  1.6888
 4854TIP3    H238758   4.710   6.561  18.858  2.5968  0.4313 -1.1435
 4855TIP3   OH238759   5.308   6.425  19.147  0.3686 -0.6752 -0.0347
 4855TIP3    H138760   5.290   6.503  19.200  0.5196  0.6874 -1.8804
 4855TIP3    H238761   5.230   6.416  19.092  0.5535 -1.5874 -0.1552
 4856TIP3   OH238762   6.256   2.600  17.532 -0.5746 -0.4755  0.3500
 4856TIP3    H138763   6.256   2.692  17.505  0.7801 -0.1592  1.3706
 4856TIP3    H238764   6.287   2.553  17.455 -0.9134 -0.0519 -0.0545
 4857TIP3   OH238765   4.989   0.672  17.069  0.3333  0.2993  0.4230
 4857TIP3    H138766   4.918   0.643  17.012  0.5584  1.0066 -0.2322
 4857TIP3    H238767   5.006   0.763  17.043  1.5572  0.1098  0.4737
 4858TIP3   OH238768   5.616   1.829  17.393  0.2701  0.4547 -0.3925
 4858TIP3    H138769   5.588   1.785  17.474  2.3403 -0.6974 -0.2190
 4858TIP3    H238770   5.676   1.897  17.423  1.3080 -0.1924 -0.9470
 4859TIP3   OH238771   5.344   1.815  19.290  0.2205  0.5531  0.3622
 4859TIP3    H138772   5.273   1.822  19.354  1.1280  1.2528  1.3336
 4859TIP3    H238773   5.396   1.741  19.320 -0.1568 -0.0519 -0.4318
 4860TIP3   OH238774   2.111   0.456  19.322 -0.4736 -0.5958  0.5272
 4860TIP3    H138775   2.060   0.395  19.375 -2.1160  0.1396 -0.1503
 4860TIP3    H238776   2.103   0.423  19.233 -0.4722 -0.0085  0.3042
 4861TIP3   OH238777   2.200   3.715  18.615 -0.1911 -0.2668  0.7163
 4861TIP3    H138778   2.249   3.687  18.537 -1.8654 -0.1709 -0.4392
 4861TIP3    H238779   2.266   3.751  18.674  1.6202 -3.3346  0.7807
 4862TIP3   OH238780   1.905   4.661  20.051 -0.0643  0.5001  0.8203
 4862TIP3    H138781   1.881   4.568  20.044 -0.7004  0.4499  2.8868
 4862TIP3    H238782   1.974   4.673  19.985 -0.5313 -1.2316 -0.0427
 4863TIP3   OH238783   2.169   0.165  19.477  0.5224 -0.0489 -0.4759
 4863TIP3    H138784   2.156   0.074  19.506  1.1003 -0.8735 -2.6351
 4863TIP3    H238785   2.084   0.207  19.489  0.0383 -1.0905 -0.1548
 4864TIP3   OH238786   5.833   2.590  19.629  0.0057 -0.3061 -0.3681
 4864TIP3    H138787   5.834   2.668  19.573  0.6557  1.2930  1.7441
 4864TIP3    H238788   5.873   2.522  19.576  0.9723  1.2286 -1.7184
 4865TIP3   OH238789   3.445   5.088  18.559 -0.3962  0.6960  1.1531
 4865TIP3    H138790   3.459   5.025  18.630 -0.7077 -0.3834  0.2917
 4865TIP3    H238791   3.515   5.152  18.569  0.4847 -0.2960  1.5353
 4866TIP3   OH238792   3.009   3.924  19.563  0.2035 -0.8114 -0.4168
 4866TIP3    H138793   3.036   3.976  19.487  1.1579  0.7330  0.9089
 4866TIP3    H238794   2.952   3.856  19.527  2.5212 -1.6485 -2.8222
 4867TIP3   OH238795   0.168   5.360  19.717 -0.0045  0.6565 -0.6648
 4867TIP3    H138796   0.101   5.334  19.780  1.3831 -0.7106  0.3244
 4867TIP3    H238797   0.138   5.445  19.683 -3.3217 -0.8801 -1.9459
 4868TIP3   OH238798   3.738   3.790  18.943 -0.4242  0.4551  0.1193
 4868TIP3    H138799   3.681   3.849  18.894  0.2243 -0.2448 -1.5535
 4868TIP3    H238800   3.797   3.754  18.877 -0.5758 -1.8237  1.1453
 4869TIP3   OH238801   6.631   1.083  17.041 -0.5463 -0.6452 -0.0628
 4869TIP3    H138802   6.592   0.997  17.025 -1.4763 -0.1204 -0.7392
 4869TIP3    H238803   6.706   1.066  17.098  0.0123 -2.0414 -1.1718
 4870TIP3   OH238804   4.188   1.388  17.361 -0.2430  0.1000 -0.4351
 4870TIP3    H138805   4.133   1.348  17.293  2.0809 -1.0319 -1.7582
 4870TIP3    H238806   4.213   1.314  17.417  1.3424  0.2362 -0.9194
 4871TIP3   OH238807   2.248   5.570  18.876  0.0996  0.4921 -0.2895
 4871TIP3    H138808   2.318   5.542  18.935 -0.6712 -0.2451  0.2889
 4871TIP3    H238809   2.294   5.598  18.796  1.0922  0.6780  0.3275
 4872TIP3   OH238810   5.904   0.559  19.435  0.1061 -0.3910 -0.1756
 4872TIP3    H138811   5.949   0.475  19.439  0.5909 -0.1253 -0.0024
 4872TIP3    H238812   5.816   0.538  19.402 -0.2892 -1.1739  1.3081
 4873TIP3   OH238813   6.385   6.211  19.970 -0.1739  0.2149  0.5791
 4873TIP3    H138814   6.422   6.281  19.916  1.8660 -0.8005  0.5912
 4873TIP3    H238815   6.325   6.165  19.911  1.9390 -0.8178 -0.9108
 4874TIP3   OH238816   0.200   3.854  18.053  0.0732  0.3276 -0.1162
 4874TIP3    H138817   0.186   3.760  18.067 -2.9472  0.2218 -2.6586
 4874TIP3    H238818   0.251   3.859  17.973 -0.6738  0.8260 -0.5741
 4875TIP3   OH238819   0.418   1.758  19.900 -0.5717  0.0097 -0.1879
 4875TIP3    H138820   0.436   1.842  19.943 -1.1315 -0.9637  2.1240
 4875TIP3    H238821   0.322   1.751  19.902 -0.6620  0.2333 -2.3083
 4876TIP3   OH238822   0.973   3.948  18.268  0.0379 -0.2579  0.4797
 4876TIP3    H138823   0.961   3.894  18.190 -0.6276  0.4521  0.0807
 4876TIP3    H238824   0.905   3.918  18.328  0.4062 -0.6484  0.7077
 4877TIP3   OH238825   2.583   4.980  17.975 -0.1212 -0.2033 -0.6361
 4877TIP3    H138826   2.584   4.944  18.064  0.7010 -0.2536 -0.6635
 4877TIP3    H238827   2.595   5.074  17.987  2.7459 -0.4636 -0.7931
 4878TIP3   OH238828   3.624   4.521  19.049 -0.2367  0.1801  0.1563
 4878TIP3    H138829   3.701   4.567  19.014  1.2749 -1.9082  0.5497
 4878TIP3    H238830   3.594   4.467  18.976 -1.4455  1.0561 -0.0246
 4879TIP3   OH238831   0.846   5.263  18.385  0.4575 -0.3787 -0.0447
 4879TIP3    H138832   0.815   5.301  18.467 -0.1660 -2.1650  0.5962
 4879TIP3    H238833   0.935   5.231  18.406  0.4823 -0.4028 -0.1879
 4880TIP3   OH238834   4.858   6.579  18.050 -0.0636 -0.3251 -0.1566
 4880TIP3    H138835   4.893   6.660  18.013 -0.4944 -0.1960 -0.2867
 4880TIP3    H238836   4.929   6.544  18.104  0.8458 -0.8779 -1.6516
 4881TIP3   OH238837   0.954   5.484  18.568 -0.0799 -0.0121  0.0089
 4881TIP3    H138838   0.949   5.390  18.584 -2.7478  0.0863  0.1276
 4881TIP3    H238839   0.946   5.523  18.655  0.4927  0.3634 -0.1006
 4882TIP3   OH238840   4.768   4.340  17.149 -0.3947  0.1423 -0.5302
 4882TIP3    H138841   4.796   4.327  17.058 -0.2435  0.3458 -0.5151
 4882TIP3    H238842   4.756   4.434  17.157 -0.4639  0.1192 -0.3540
 4883TIP3   OH238843   6.278   4.280  20.096  0.0246  1.0052 -0.0853
 4883TIP3    H138844   6.364   4.237  20.094 -0.3490  0.2623 -0.5773
 4883TIP3    H238845   6.255   4.283  20.188  0.0075  0.0329 -0.0462
 4884TIP3   OH238846   2.726   5.400  18.811 -0.5485 -0.0705 -0.2692
 4884TIP3    H138847   2.686   5.434  18.731 -1.5472  1.2815  0.7377
 4884TIP3    H238848   2.652   5.391  18.872 -0.1101 -2.8128 -0.0110
 4885TIP3   OH238849   6.446   3.152  19.037 -0.9262 -0.7292  0.1594
 4885TIP3    H138850   6.481   3.185  18.955  1.5441 -0.9735  1.0230
 4885TIP3    H238851   6.416   3.231  19.083 -2.0338 -0.5624 -0.8223
 4886TIP3   OH238852   4.943   0.147  18.335  0.0826  0.1511 -0.3351
 4886TIP3    H138853   4.911   0.187  18.254  0.0577 -0.3077 -0.5581
 4886TIP3    H238854   5.032   0.180  18.345  0.5141 -0.6988 -1.1887
 4887TIP3   OH238855   3.470   3.231  19.300  0.1550 -0.3095 -0.0017
 4887TIP3    H138856   3.505   3.176  19.230  2.3840  1.1316 -0.1191
 4887TIP3    H238857   3.381   3.250  19.274  1.3576  1.4957 -3.3877
 4888TIP3   OH238858   3.003   6.583  18.931 -0.3582 -0.3572 -0.2990
 4888TIP3    H138859   2.976   6.598  18.841  0.0751  0.2031 -0.3416
 4888TIP3    H238860   3.098   6.597  18.930 -0.1174 -1.8563 -0.0669
 4889TIP3   OH238861   6.465   5.981  18.029  0.2852  0.0288  0.2402
 4889TIP3    H138862   6.553   5.953  18.056 -0.2803 -0.4631  1.6553
 4889TIP3    H238863   6.464   6.075  18.044  0.9086  0.2269 -0.8290
 4890TIP3   OH238864   3.043   0.899  17.978  0.5628  0.2388 -0.0236
 4890TIP3    H138865   3.026   0.953  17.901  0.1097 -0.4323 -0.4012
 4890TIP3    H238866   3.137   0.884  17.978  0.2899 -1.8987 -1.9137
 4891TIP3   OH238867   3.692   5.127  19.630  0.4763 -0.7799  0.2870
 4891TIP3    H138868   3.630   5.150  19.561 -0.8327 -2.1597  0.9554
 4891TIP3    H238869   3.769   5.181  19.612 -1.2969  1.8520  0.0764
 4892TIP3   OH238870   0.317   2.991  20.102  0.4406 -0.4898  0.0451
 4892TIP3    H138871   0.352   3.064  20.153  0.4695  0.1073 -0.8039
 4892TIP3    H238872   0.388   2.927  20.100  0.9526  0.0807 -0.4124
 4893TIP3   OH238873   4.335   3.963  17.259 -0.7461  0.0041  0.0155
 4893TIP3    H138874   4.372   4.047  17.232 -0.1037 -0.5066 -0.7499
 4893TIP3    H238875   4.329   3.912  17.177 -1.6278 -0.5056  0.3802
 4894TIP3   OH238876   2.718   4.258  19.309 -0.0677  0.0512  0.1071
 4894TIP3    H138877   2.725   4.347  19.276  1.1066  0.2333  0.7907
 4894TIP3    H238878   2.633   4.255  19.354 -0.8895  0.2982 -1.3782
 4895TIP3   OH238879   1.887   4.393  19.993 -0.0834  0.3079 -0.2196
 4895TIP3    H138880   1.835   4.369  19.916 -0.7332  0.1041  0.2693
 4895TIP3    H238881   1.918   4.309  20.028  0.2700  0.4052 -0.2925
 4896TIP3   OH238882   2.890   5.990  17.651  0.5811  0.3155 -0.2603
 4896TIP3    H138883   2.798   5.991  17.623 -0.1516  1.9796  1.9450
 4896TIP3    H238884   2.897   6.063  17.712  3.2635 -0.1204  0.0493
 4897TIP3   OH238885   4.516   6.295  18.659  0.8711  0.3894  0.2899
 4897TIP3    H138886   4.467   6.248  18.727 -0.0610  2.0416  0.8097
 4897TIP3    H238887   4.506   6.241  18.581  1.8022 -1.4642  1.3839
 4898TIP3   OH238888   3.926   6.030  16.979  0.7515  0.2046  0.2736
 4898TIP3    H138889   3.863   6.043  16.908  0.0144  0.8988  1.0220
 4898TIP3    H238890   3.934   5.935  16.987 -2.7730 -0.1182  2.2743
 4899TIP3   OH238891   5.772   2.811  20.068  0.5509  0.6379  0.2364
 4899TIP3    H138892   5.741   2.863  19.994  1.0686  1.5673  0.6498
 4899TIP3    H238893   5.861   2.843  20.083 -0.0040  1.4524  2.1107
 4900TIP3   OH238894   1.901   4.980  16.395 -0.1086  0.6388  0.2156
 4900TIP3    H138895   1.990   4.970  16.429 -0.3157  0.3626  0.6780
 4900TIP3    H238896   1.852   4.907  16.432 -0.3777  0.4277 -0.5523
 4901TIP3   OH238897   4.298   5.035  17.988 -0.1143 -0.4548 -0.7945
 4901TIP3    H138898   4.311   5.090  17.911  0.1378  0.8428  0.1423
 4901TIP3    H238899   4.387   5.024  18.024 -0.3642 -0.0142 -0.0165
 4902TIP3   OH238900   3.021   1.471  17.243  0.1087  0.1478 -0.2328
 4902TIP3    H138901   2.939   1.512  17.216  0.3175  1.6105  1.2110
 4902TIP3    H238902   3.076   1.473  17.164 -0.3647  1.4580 -0.5511
 4903TIP3   OH238903   1.472   6.448  18.880  0.2049 -0.1055  0.4903
 4903TIP3    H138904   1.457   6.354  18.891 -1.0562  0.0262  0.1126
 4903TIP3    H238905   1.548   6.467  18.935  0.2142 -1.2626  0.9069
 4904TIP3   OH238906   4.636   2.354  19.432 -0.3455 -0.5580  0.3557
 4904TIP3    H138907   4.632   2.259  19.446 -1.6654 -0.4255  1.0368
 4904TIP3    H238908   4.563   2.372  19.373 -0.1273  0.0471  0.2652
 4905TIP3   OH238909   3.939   4.042  19.956 -0.1209 -0.0619 -0.9515
 4905TIP3    H138910   3.983   3.965  19.992  0.4711  1.0373  0.8232
 4905TIP3    H238911   3.916   4.017  19.866  0.8987 -1.9460 -0.7409
 4906TIP3   OH238912   4.427   3.080  18.986 -0.0900  0.0463 -0.1281
 4906TIP3    H138913   4.351   3.138  18.994  0.3610  0.7824 -0.9896
 4906TIP3    H238914   4.403   3.021  18.914 -0.2308 -0.3531  0.2411
 4907TIP3   OH238915   5.344   1.115  18.905 -0.2195 -0.7093  0.0247
 4907TIP3    H138916   5.388   1.173  18.843  0.6379 -0.5619  0.7529
 4907TIP3    H238917   5.361   1.154  18.991 -0.7737 -1.3025  0.4149
 4908TIP3   OH238918   2.379   2.442  17.053  0.0533 -0.4731  0.1908
 4908TIP3    H138919   2.473   2.439  17.068  1.0039 -0.4017 -4.3547
 4908TIP3    H238920   2.356   2.534  17.065  0.6464 -0.4216  0.9776
 4909TIP3   OH238921   5.219   0.860  18.978  0.6483  0.0826 -0.0516
 4909TIP3    H138922   5.185   0.855  18.889  0.0461 -0.5854  0.1987
 4909TIP3    H238923   5.285   0.929  18.975 -0.4775  1.1782 -0.6408
 4910TIP3   OH238924   3.843   0.772  18.971 -0.6222 -0.0727  0.1128
 4910TIP3    H138925   3.891   0.810  19.045  1.1002 -0.7771 -0.5801
 4910TIP3    H238926   3.814   0.847  18.919  0.9767  0.3892 -0.1679
 4911TIP3   OH238927   0.348   6.577  16.994 -0.2100  0.0233  0.3064
 4911TIP3    H138928   0.375   6.658  16.951  0.2144  0.5233  1.4486
 4911TIP3    H238929   0.258   6.563  16.966  0.3332 -0.1829 -1.4361
 4912TIP3   OH238930   6.465   0.333  17.171  0.2224  0.2020 -0.2672
 4912TIP3    H138931   6.419   0.249  17.178 -0.9771  0.8899  0.3826
 4912TIP3    H238932   6.395   0.398  17.167  1.1248  1.3606  1.5852
 4913TIP3   OH238933   3.289   3.358  16.834  0.7706 -0.3833 -0.0853
 4913TIP3    H138934   3.208   3.346  16.783  1.5326 -0.1038 -1.4205
 4913TIP3    H238935   3.261   3.406  16.912 -0.3987 -0.5039 -0.4092
 4914TIP3   OH238936   5.921   4.124  20.235 -0.2409 -0.3527  0.2022
 4914TIP3    H138937   5.902   4.215  20.213  0.5365 -0.1480  0.3294
 4914TIP3    H238938   5.991   4.129  20.300 -0.6614 -1.0272  0.7253
 4915TIP3   OH238939   2.184   5.655  16.706 -0.5236  0.0065 -0.8865
 4915TIP3    H138940   2.132   5.576  16.693  1.3667 -1.5313  0.3704
 4915TIP3    H238941   2.164   5.684  16.795 -1.2358  1.0020 -1.3519
 4916TIP3   OH238942   1.323   6.485  19.131  0.2378 -0.0115  0.3020
 4916TIP3    H138943   1.362   6.460  19.047 -0.2263 -0.1627  0.1247
 4916TIP3    H238944   1.276   6.406  19.159  1.1481 -0.2713  1.1609
 4917TIP3   OH238945   3.524   0.689  17.297 -0.0335  0.1402  0.0865
 4917TIP3    H138946   3.599   0.743  17.321 -0.0457  0.6728 -0.9863
 4917TIP3    H238947   3.555   0.634  17.225 -0.9313  1.1486 -1.1259
 4918TIP3   OH238948   0.019   3.116  18.428  0.0613 -0.3020  0.4548
 4918TIP3    H138949   0.071   3.053  18.378 -0.7693  0.6788 -1.7683
 4918TIP3    H238950   0.083   3.175  18.468  0.8186 -2.0764  2.0409
 4919TIP3   OH238951   2.668   5.572  17.753 -0.3034 -0.0454  0.1028
 4919TIP3    H138952   2.576   5.582  17.730 -0.2781 -0.1737 -0.0555
 4919TIP3    H238953   2.667   5.534  17.841 -0.3987  0.3124  0.2593
 4920TIP3   OH238954   6.025   0.867  18.062  0.5299  0.1669 -0.2662
 4920TIP3    H138955   6.086   0.838  18.129 -0.3187 -0.1857  0.3745
 4920TIP3    H238956   6.036   0.804  17.990 -0.6975 -1.3186  0.7779
 4921TIP3   OH238957   5.292   2.015  19.114 -0.4764  0.1720  0.7000
 4921TIP3    H138958   5.283   2.107  19.141 -1.5532  0.0172  0.8855
 4921TIP3    H238959   5.297   1.967  19.197 -0.9370 -0.0364  0.6059
 4922TIP3   OH238960   5.156   3.231  19.066  0.0448  0.2558  0.3429
 4922TIP3    H138961   5.098   3.167  19.024  1.0448 -0.2785 -0.2547
 4922TIP3    H238962   5.106   3.313  19.064 -0.2086  0.0921 -1.2982
 4923TIP3   OH238963   1.846   5.801  19.099  0.0561 -0.3475 -0.2298
 4923TIP3    H138964   1.887   5.749  19.030  0.3775  1.7075 -1.6803
 4923TIP3    H238965   1.913   5.865  19.124 -0.6339 -0.0065  0.8021
 4924TIP3   OH238966   0.207   4.315  17.794 -0.5765  0.6992  0.6071
 4924TIP3    H138967   0.132   4.266  17.828  0.0275  0.5188  1.7408
 4924TIP3    H238968   0.191   4.405  17.821 -0.6762  0.7602  0.3396
 4925TIP3   OH238969   4.566   4.571  19.806  0.2302 -0.1308 -0.1490
 4925TIP3    H138970   4.478   4.597  19.779 -0.2044 -1.7733 -0.4201
 4925TIP3    H238971   4.612   4.551  19.725  1.2343  1.6644 -0.0928
 4926TIP3   OH238972   3.838   1.505  17.367  0.3393  0.0190  0.3820
 4926TIP3    H138973   3.884   1.587  17.386  1.5706 -0.1352 -1.6906
 4926TIP3    H238974   3.745   1.528  17.374  0.6263  1.9021 -1.1326
 4927TIP3   OH238975   4.598   4.807  17.738  0.2874  0.2674  0.1189
 4927TIP3    H138976   4.639   4.857  17.809 -2.3730  1.9868  0.5657
 4927TIP3    H238977   4.671   4.759  17.699  2.1765  0.6765  2.8053
 4928TIP3   OH238978   5.037   0.249  19.162 -0.3495 -0.2344 -0.1027
 4928TIP3    H138979   5.064   0.225  19.251  0.5854 -2.2576 -0.8748
 4928TIP3    H238980   5.114   0.293  19.125 -0.5588  0.1428 -0.0988
 4929TIP3   OH238981   4.284   3.839  17.948  0.2431  0.1215  0.1568
 4929TIP3    H138982   4.315   3.748  17.950  0.7018  0.2875  1.5924
 4929TIP3    H238983   4.339   3.884  18.013 -2.8182  0.5012  2.6885
 4930TIP3   OH238984   5.139   3.912  18.210 -0.2347  0.0159 -0.1857
 4930TIP3    H138985   5.178   3.873  18.288  0.4928  1.1687  0.0507
 4930TIP3    H238986   5.076   3.847  18.180 -0.9438 -0.2275  1.6882
 4931TIP3   OH238987   2.431   1.275  19.551 -0.6195 -0.2663  0.1061
 4931TIP3    H138988   2.525   1.257  19.564 -0.9118 -0.6245  2.1661
 4931TIP3    H238989   2.406   1.325  19.629 -1.9487  0.6953 -0.9021
 4932TIP3   OH238990   2.642   6.443  19.812  0.5347  0.4095 -0.6119
 4932TIP3    H138991   2.643   6.380  19.884  0.6629 -0.3662 -1.2779
 4932TIP3    H238992   2.549   6.457  19.794  0.3381  3.0097  1.7136
 4933TIP3   OH238993   3.023   5.345  19.688  0.0687  0.2608 -0.3220
 4933TIP3    H138994   3.109   5.302  19.685 -0.4851 -0.9296  0.2488
 4933TIP3    H238995   3.016   5.377  19.778 -0.3781 -0.2630 -0.1710
 4934TIP3   OH238996   1.570   0.556  19.527  0.4535  0.4045 -0.1622
 4934TIP3    H138997   1.586   0.626  19.463 -1.7291  0.8994 -0.2504
 4934TIP3    H238998   1.566   0.602  19.611 -0.2336  0.2913 -0.1300
 4935TIP3   OH238999   4.458   0.757  16.508  0.1313  0.0451  0.1137
 4935TIP3    H139000   4.511   0.824  16.551  0.6331  1.5196 -2.5575
 4935TIP3    H239001   4.522   0.701  16.463 -0.4181 -0.4988 -0.0055
 4936TIP3   OH239002   2.749   5.797  19.605  0.1950 -0.4064 -0.2195
 4936TIP3    H139003   2.688   5.730  19.634 -1.1340  0.8895  0.0957
 4936TIP3    H239004   2.708   5.834  19.527  1.3907 -0.5967 -0.9701
 4937TIP3   OH239005   6.348   1.332  17.503  0.2485  0.0970 -0.2215
 4937TIP3    H139006   6.425   1.302  17.551 -0.5075  2.4207  2.7091
 4937TIP3    H239007   6.383   1.370  17.423  1.9996 -0.2981  0.3119
 4938TIP3   OH239008   5.523   1.825  18.228 -0.3317  0.2476 -0.1391
 4938TIP3    H139009   5.521   1.740  18.182 -2.3220  1.0534 -1.6971
 4938TIP3    H239010   5.492   1.805  18.316 -1.1180 -0.6040 -0.5897
 4939TIP3   OH239011   3.718   0.385  18.054 -0.2320  0.5371 -0.5776
 4939TIP3    H139012   3.753   0.370  17.966 -1.2783 -0.7533 -0.8015
 4939TIP3    H239013   3.650   0.451  18.041  1.0390  1.9256 -0.3785
 4940TIP3   OH239014   6.124   2.877  17.215 -0.7355  0.3043 -0.4610
 4940TIP3    H139015   6.104   2.784  17.224 -1.7522  0.4879 -0.6900
 4940TIP3    H239016   6.126   2.892  17.121 -1.2189  0.6391 -0.4212
 4941TIP3   OH239017   1.991   1.850  17.740  0.6655 -0.7878  0.6287
 4941TIP3    H139018   1.996   1.926  17.798  0.3856 -0.4569  0.2226
 4941TIP3    H239019   1.899   1.823  17.744 -0.0378  0.9714 -1.8366
 4942TIP3   OH239020   6.423   5.749  16.652  0.8364 -0.2098 -0.0212
 4942TIP3    H139021   6.428   5.671  16.707  0.7914  0.7677  1.4182
 4942TIP3    H239022   6.504   5.747  16.601  0.7436 -1.2919 -0.1522
 4943TIP3   OH239023   2.774   2.273  20.046 -0.3473 -0.0454  0.4232
 4943TIP3    H139024   2.827   2.197  20.022 -0.1770  0.2551 -0.1562
 4943TIP3    H239025   2.707   2.237  20.105  0.0726 -0.5458  0.6099
 4944TIP3   OH239026   5.787   5.896  19.528  0.0097  0.2812  0.1810
 4944TIP3    H139027   5.715   5.869  19.585  2.4500 -3.1427  2.0023
 4944TIP3    H239028   5.835   5.960  19.580 -0.8325  1.4617 -0.4464
 4945TIP3   OH239029   5.392   5.236  19.785 -0.0864  0.4654  1.1832
 4945TIP3    H139030   5.305   5.197  19.795  0.0603  0.2316  1.5866
 4945TIP3    H239031   5.381   5.327  19.815 -0.0770  0.2909  1.7344
 4946TIP3   OH239032   4.054   4.559  17.866  0.3152  0.3510 -0.8289
 4946TIP3    H139033   4.118   4.621  17.901  1.4225 -0.3701 -1.5289
 4946TIP3    H239034   3.988   4.614  17.823 -0.5242  1.2093  1.3770
 4947TIP3   OH239035   1.898   4.480  18.206 -0.0758  0.2014 -0.2066
 4947TIP3    H139036   1.839   4.516  18.139  0.4455  2.7144  0.5634
 4947TIP3    H239037   1.973   4.446  18.157  0.2507  1.8998 -0.9650
 4948TIP3   OH239038   1.713   4.586  18.017  0.3221  0.3720  0.4149
 4948TIP3    H139039   1.634   4.634  17.994  0.8057 -0.3009 -3.2977
 4948TIP3    H239040   1.683   4.496  18.033  0.0918  0.6652  1.8013
 4949TIP3   OH239041   0.663   5.608  17.072  0.1690  0.1876  0.1649
 4949TIP3    H139042   0.656   5.546  17.145  0.2639  0.0456  0.0530
 4949TIP3    H239043   0.659   5.694  17.113  0.0435  0.1078  0.3206
 4950TIP3   OH239044   0.164   0.690  20.009 -0.0227  0.0287  0.0427
 4950TIP3    H139045   0.244   0.650  20.044 -0.7596 -2.0079 -0.4691
 4950TIP3    H239046   0.093   0.647  20.057 -0.8830  0.5681 -0.7167
 4951TIP3   OH239047   0.600   0.321  18.440 -0.0559  0.0502 -0.2041
 4951TIP3    H139048   0.592   0.313  18.535  0.0839  1.0748 -0.0967
 4951TIP3    H239049   0.646   0.404  18.427  0.4133 -0.3457 -1.1514
 4952TIP3   OH239050   3.999   0.871  19.191  0.0830 -0.8544 -0.8822
 4952TIP3    H139051   3.927   0.916  19.234  0.2019 -0.8910 -0.6407
 4952TIP3    H239052   4.048   0.941  19.148  2.1953 -0.2046  2.2264
 4953TIP3   OH239053   0.142   6.597  17.680 -0.2464 -0.1179 -0.0614
 4953TIP3    H139054   0.170   6.562  17.595 -0.3469  0.9004 -0.5279
 4953TIP3    H239055   0.190   6.679  17.689  1.0371 -0.9719  1.6428
 4954TIP3   OH239056   5.773   5.877  18.266 -0.4243  0.1250  0.9818
 4954TIP3    H139057   5.854   5.827  18.262 -0.7382 -0.4423  1.5899
 4954TIP3    H239058   5.750   5.893  18.174  0.1554 -0.0584  0.8028
 4955TIP3   OH239059   1.799   1.224  18.506  0.0427 -0.2327 -0.4705
 4955TIP3    H139060   1.761   1.293  18.560  0.6718 -0.2180 -0.0361
 4955TIP3    H239061   1.730   1.158  18.498 -0.0238 -0.2841  0.4413
 4956TIP3   OH239062   4.620   3.064  17.132 -0.3803 -0.4735 -0.2046
 4956TIP3    H139063   4.636   3.023  17.047  1.3587 -1.0756  0.3795
 4956TIP3    H239064   4.583   2.994  17.185 -0.6761 -0.3280 -0.2185
 4957TIP3   OH239065   4.456   5.543  16.540  0.0122 -0.1193  0.2687
 4957TIP3    H139066   4.432   5.465  16.489  1.1512 -0.5393  0.3531
 4957TIP3    H239067   4.392   5.545  16.612 -0.9603 -0.1093 -0.5665
 4958TIP3   OH239068   5.999   3.610  19.855 -0.1374  0.6677  0.2599
 4958TIP3    H139069   5.986   3.682  19.917 -1.6240 -0.1024  0.8723
 4958TIP3    H239070   5.960   3.641  19.774 -0.2354  0.7794  0.3482
 4959TIP3   OH239071   1.117   1.444  19.984 -0.2438  0.5708 -0.1010
 4959TIP3    H139072   1.041   1.396  20.015  1.5318 -1.9298  0.6288
 4959TIP3    H239073   1.158   1.386  19.919  1.5311  1.4258  0.1776
 4960TIP3   OH239074   1.322   4.712  19.847 -0.0086 -0.1659  0.1284
 4960TIP3    H139075   1.297   4.713  19.939 -1.5475  1.8716 -0.2285
 4960TIP3    H239076   1.417   4.725  19.847 -0.0455  0.1902  1.4152
 4961TIP3   OH239077   2.049   5.203  16.950  0.2198  0.0071  0.2907
 4961TIP3    H139078   1.955   5.216  16.937  0.4637  1.3098 -0.3367
 4961TIP3    H239079   2.065   5.113  16.920 -0.7448 -0.0687 -0.0398
 4962TIP3   OH239080   0.704   0.629  20.043 -0.7435  0.6158 -0.1446
 4962TIP3    H139081   0.687   0.535  20.036 -2.3084  0.9111 -0.6121
 4962TIP3    H239082   0.797   0.638  20.024  0.3527 -1.1919  3.4712
 4963TIP3   OH239083   0.634   5.839  18.310  0.1643 -0.1404 -0.2149
 4963TIP3    H139084   0.573   5.795  18.368  0.3724  0.9094  0.8343
 4963TIP3    H239085   0.708   5.778  18.302 -0.1863 -0.6013  0.0392
 4964TIP3   OH239086   5.038   2.041  16.842 -0.0181  0.2385 -0.3666
 4964TIP3    H139087   5.044   1.984  16.766 -1.2385  1.3045 -1.3112
 4964TIP3    H239088   4.944   2.061  16.851  0.2379  1.1551  0.6337
 4965TIP3   OH239089   4.225   3.692  19.241  0.0421  0.7489  0.2564
 4965TIP3    H139090   4.313   3.658  19.258 -0.4178 -0.6203  0.0909
 4965TIP3    H239091   4.218   3.693  19.146  0.5526  2.7807  0.1994
 4966TIP3   OH239092   6.321   3.470  20.089  0.2852 -0.3297 -0.3050
 4966TIP3    H139093   6.270   3.407  20.038  0.4345 -0.3631 -0.4136
 4966TIP3    H239094   6.257   3.510  20.148 -0.2554  0.9273 -1.6652
 4967TIP3   OH239095   3.522   0.095  19.913 -0.3353  0.3738 -0.0901
 4967TIP3    H139096   3.544   0.156  19.984 -0.9507  0.3632  0.1193
 4967TIP3    H239097   3.431   0.115  19.892 -0.4886 -0.3544 -0.1378
 4968TIP3   OH239098   0.066   0.907  17.386 -0.4524 -0.3828 -0.1263
 4968TIP3    H139099   0.069   0.814  17.366  0.7852 -0.2381 -0.7659
 4968TIP3    H239100   0.121   0.947  17.318 -0.8752  0.7943  0.2076
 4969TIP3   OH239101   2.869   5.916  16.731  0.4934  0.2031 -0.0966
 4969TIP3    H139102   2.829   5.829  16.734 -0.2237  0.5422  1.9045
 4969TIP3    H239103   2.804   5.973  16.772  1.2268  1.5699 -0.7936
 4970TIP3   OH239104   5.322   3.303  16.922  0.5584 -0.2090 -0.0459
 4970TIP3    H139105   5.281   3.303  16.835 -0.7349 -1.9122  0.5060
 4970TIP3    H239106   5.416   3.302  16.903  0.3850  1.8783 -1.3642
 4971TIP3   OH239107   3.032   4.119  19.001  0.6405 -0.2740  0.7157
 4971TIP3    H139108   2.981   4.195  18.974  1.4785  0.2618  0.5874
 4971TIP3    H239109   3.005   4.102  19.091 -0.5611 -0.6940  0.2900
 4972TIP3   OH239110   4.036   0.638  17.647 -0.2741  0.0062 -0.1418
 4972TIP3    H139111   4.004   0.707  17.705  0.1147  0.1723 -0.1281
 4972TIP3    H239112   4.048   0.681  17.563 -0.4051 -0.1345 -0.2340
 4973TIP3   OH239113   0.654   4.008  20.063 -0.3195  0.2343 -0.3034
 4973TIP3    H139114   0.681   3.937  20.006 -1.1025 -0.3403  0.0385
 4973TIP3    H239115   0.718   4.077  20.046 -0.0435 -0.2358 -1.2455
 4974TIP3   OH239116   6.489   1.921  20.456  0.4187 -0.0236  0.2295
 4974TIP3    H139117   6.408   1.955  20.417 -1.4103 -2.1419  1.8638
 4974TIP3    H239118   6.525   1.995  20.504 -2.0441  0.4281  1.5919
 4975TIP3   OH239119   0.039   4.571  19.337 -0.0242 -0.1384  0.5447
 4975TIP3    H139120   0.063   4.631  19.407 -0.4458 -1.6639  2.0482
 4975TIP3    H239121   0.111   4.509  19.332  0.5826  0.6295 -1.2458
 4976TIP3   OH239122   2.430   2.110  17.361  0.4280 -0.4170  0.4478
 4976TIP3    H139123   2.461   2.101  17.452  0.3070  2.7890  0.9530
 4976TIP3    H239124   2.494   2.168  17.320 -0.9074  0.3109 -0.7055
 4977TIP3   OH239125   1.035   5.379  16.560  0.0136  0.5627 -0.7125
 4977TIP3    H139126   0.956   5.338  16.594 -0.0118  2.3303  1.5861
 4977TIP3    H239127   1.042   5.347  16.470 -1.7832 -1.7429 -0.1103
 4978TIP3   OH239128   1.890   4.927  18.712 -0.3335  0.0913 -0.2480
 4978TIP3    H139129   1.895   4.967  18.625  0.8310  1.4050  0.3715
 4978TIP3    H239130   1.858   4.838  18.696 -0.5202  0.4233 -1.9668
 4979TIP3   OH239131   5.425   4.807  20.010 -0.1017 -0.6506 -0.7758
 4979TIP3    H139132   5.430   4.714  20.031  0.6733 -0.1837  1.3070
 4979TIP3    H239133   5.516   4.834  19.997 -0.1356  0.1994  0.5718
 4980TIP3   OH239134   6.546   2.276  17.502  0.1651  0.0763  0.0975
 4980TIP3    H139135   6.504   2.191  17.490 -0.9680  0.6627 -0.1644
 4980TIP3    H239136   6.583   2.297  17.416 -0.4775  0.3286 -0.1217
 4981TIP3   OH239137   5.859   5.347  17.300 -0.0706  0.8943  0.1479
 4981TIP3    H139138   5.826   5.388  17.380  0.3464  0.2690  0.6501
 4981TIP3    H239139   5.912   5.274  17.330 -0.6911  0.0474 -0.7154
 4982TIP3   OH239140   1.512   0.506  18.773  0.4867 -0.3015 -0.1252
 4982TIP3    H139141   1.428   0.536  18.807  0.8571  0.1639  0.3912
 4982TIP3    H239142   1.524   0.419  18.811  0.0114 -0.5800 -0.5977
 4983TIP3   OH239143   3.865   0.356  16.652  0.1070  0.4737 -0.2760
 4983TIP3    H139144   3.905   0.358  16.565  0.0763 -1.0013 -0.3425
 4983TIP3    H239145   3.779   0.316  16.638 -1.2409  3.0511 -0.0353
 4984TIP3   OH239146   0.327   2.183  17.677 -0.1447 -0.4228  0.2192
 4984TIP3    H139147   0.378   2.253  17.718  0.6866 -0.9953  0.1857
 4984TIP3    H239148   0.257   2.164  17.740  1.0822 -1.2516  1.3806
 4985TIP3   OH239149   4.076   3.005  17.061 -0.4967 -0.0237 -0.1261
 4985TIP3    H139150   4.076   3.099  17.081 -1.2900 -0.3015  1.3288
 4985TIP3    H239151   4.012   2.996  16.990 -1.9362  0.3283  1.0642
 4986TIP3   OH239152   1.653   6.217  19.935  0.3366  0.3635 -0.3792
 4986TIP3    H139153   1.634   6.274  20.009  1.3413 -1.9644  1.7997
 4986TIP3    H239154   1.571   6.214  19.886 -0.4685  1.7046  0.8041
 4987TIP3   OH239155   6.584   3.893  18.032 -0.7695  0.3236  0.0907
 4987TIP3    H139156   6.679   3.900  18.044 -1.0722  1.9293  2.2564
 4987TIP3    H239157   6.568   3.801  18.014  1.1841  0.0188 -0.2538
 4988TIP3   OH239158   0.323   5.442  16.184  0.5253 -0.6715 -0.3182
 4988TIP3    H139159   0.293   5.474  16.269 -0.6537 -2.0387 -0.1680
 4988TIP3    H239160   0.279   5.497  16.120 -0.2509 -0.9606 -0.0477
 4989TIP3   OH239161   4.204   4.778  17.912 -0.1253  0.6912  0.0333
 4989TIP3    H139162   4.293   4.745  17.921 -0.1849  0.1862 -1.0727
 4989TIP3    H239163   4.209   4.868  17.945  0.2255 -0.1098  2.2786
 4990TIP3   OH239164   0.846   6.044  18.330  0.4961  0.2349 -0.2082
 4990TIP3    H139165   0.784   5.971  18.325  2.2939 -1.4618  0.9410
 4990TIP3    H239166   0.904   6.021  18.403 -0.1999  3.9252  1.7687
 4991TIP3   OH239167   4.363   4.416  19.589 -0.6578  0.1084 -0.2971
 4991TIP3    H139168   4.338   4.506  19.609 -0.6521  0.5257 -2.0639
 4991TIP3    H239169   4.459   4.418  19.586 -0.6581  0.0396 -0.3452
 4992TIP3   OH239170   0.293   6.120  18.880 -0.0829 -0.7407  0.2615
 4992TIP3    H139171   0.388   6.108  18.877 -0.1565 -1.3001  0.1378
 4992TIP3    H239172   0.258   6.059  18.815 -0.5499 -0.8037  0.5613
 4993TIP3   OH239173   3.912   2.559  18.324 -0.3108 -0.5932  0.6873
 4993TIP3    H139174   3.959   2.475  18.326  0.6146 -0.0809  0.9576
 4993TIP3    H239175   3.825   2.537  18.290  0.3477 -1.4531 -0.5120
 4994TIP3   OH239176   0.078   2.671  18.744 -0.0092  0.4940 -0.0968
 4994TIP3    H139177   0.064   2.697  18.834  1.9029 -0.7786  0.6270
 4994TIP3    H239178   0.069   2.575  18.745 -1.5078  0.5645 -1.5874
 4995TIP3   OH239179   0.771   0.543  19.351  0.6489 -0.2655  0.2264
 4995TIP3    H139180   0.753   0.637  19.348 -0.4028 -0.4729 -0.6162
 4995TIP3    H239181   0.749   0.516  19.440  1.2282  0.3236  0.5568
 4996TIP3   OH239182   3.288   5.310  19.722 -0.4451 -0.4920 -0.4742
 4996TIP3    H139183   3.336   5.334  19.643 -1.2522 -0.5934 -1.0126
 4996TIP3    H239184   3.328   5.229  19.752 -0.5172 -0.7676 -1.1195
 4997TIP3   OH239185   5.377   4.547  20.202 -0.5036 -0.3553 -0.1734
 4997TIP3    H139186   5.354   4.474  20.145  0.5380 -2.0848  1.4693
 4997TIP3    H239187   5.473   4.546  20.204 -0.4258  1.8367 -1.0073
 4998TIP3   OH239188   1.401   4.377  17.624  0.0011 -0.3569  0.4284
 4998TIP3    H139189   1.347   4.416  17.693  0.6310  0.1079  0.6635
 4998TIP3    H239190   1.415   4.287  17.652  1.2896  0.1615  1.5576
 4999TIP3   OH239191   3.814   0.998  17.218  0.3279 -0.0924  0.6501
 4999TIP3    H139192   3.803   0.955  17.133  1.3744  0.1271  0.3843
 4999TIP3    H239193   3.800   0.928  17.282  1.5970 -0.7647  0.2304
 5000TIP3   OH239194   5.154   1.902  19.541  0.1818 -0.2902 -0.0465
 5000TIP3    H139195   5.124   1.847  19.468 -0.7409 -0.4897  0.4749
 5000TIP3    H239196   5.082   1.963  19.557  1.5130  1.7558 -1.2251
 5001TIP3   OH239197   3.900   0.633  18.359 -0.1155 -0.2891  0.1156
 5001TIP3    H139198   3.827   0.640  18.421  0.6466  1.3824  0.8758
 5001TIP3    H239199   3.876   0.691  18.287  1.0384  1.4036  1.0269
 5002TIP3   OH239200   3.773   0.851  16.972 -0.1821  0.0891 -0.3704
 5002TIP3    H139201   3.689   0.808  16.958 -1.2809  1.9185  0.1534
 5002TIP3    H239202   3.814   0.853  16.885 -0.1808 -1.7511 -0.4329
 5003TIP3   OH239203   2.829   6.497  19.163 -0.2446 -0.2431  0.6041
 5003TIP3    H139204   2.743   6.536  19.172 -0.5577 -1.0197  1.1248
 5003TIP3    H239205   2.884   6.566  19.127 -0.9564  0.4245  0.7868
 5004TIP3   OH239206   3.590   5.172  17.929  0.5480  0.9647  0.1553
 5004TIP3    H139207   3.621   5.184  18.019  0.1077  1.0560  0.2974
 5004TIP3    H239208   3.594   5.259  17.890  2.7883  0.5958 -0.6014
 5005TIP3   OH239209   1.631   3.790  17.936  0.2804  0.1361 -0.5651
 5005TIP3    H139210   1.663   3.712  17.981 -1.0757 -0.2639 -0.2481
 5005TIP3    H239211   1.636   3.860  18.001 -2.8633 -0.6989  0.7427
 5006TIP3   OH239212   5.678   5.169  19.373  0.6240  0.4433  0.4558
 5006TIP3    H139213   5.638   5.178  19.459  1.2346 -1.3133  0.9731
 5006TIP3    H239214   5.613   5.202  19.311  0.1884  1.7486  1.5772
 5007TIP3   OH239215   1.257   1.284  16.764  0.7509  0.0154 -0.3286
 5007TIP3    H139216   1.195   1.248  16.701  0.0057  1.1576 -0.2786
 5007TIP3    H239217   1.306   1.350  16.714 -1.9223  3.2003  0.8761
 5008TIP3   OH239218   5.381   4.614  17.846  0.4026 -0.6130 -0.5596
 5008TIP3    H139219   5.353   4.614  17.755  0.9709 -1.9144 -0.7577
 5008TIP3    H239220   5.449   4.547  17.850 -2.2355 -3.4084  1.6018
 5009TIP3   OH239221   4.506   3.673  19.289  0.2181 -0.7790 -0.5988
 5009TIP3    H139222   4.532   3.760  19.319  0.4504 -0.6712 -1.0999
 5009TIP3    H239223   4.588   3.622  19.290 -0.0503 -1.2225  0.4441
 5010TIP3   OH239224   4.852   1.359  17.751  0.5696 -0.1538 -0.1607
 5010TIP3    H139225   4.836   1.402  17.667 -2.2684  0.7536  0.7443
 5010TIP3    H239226   4.768   1.320  17.775  1.4775 -0.9782  1.9460
 5011TIP3   OH239227   1.430   4.203  18.386 -0.0903 -0.7628  0.2646
 5011TIP3    H139228   1.373   4.270  18.424  1.0021  0.7177 -0.6343
 5011TIP3    H239229   1.370   4.137  18.351 -1.1617 -0.9494  2.3291
 5012TIP3   OH239230   1.280   6.076  17.642 -0.3026  0.7127 -0.5648
 5012TIP3    H139231   1.209   6.014  17.621 -0.2491 -0.2643  1.8754
 5012TIP3    H239232   1.347   6.058  17.576 -0.1329 -2.1786  0.2594
 5013TIP3   OH239233   0.999   2.404  19.261 -0.0878  0.8437 -0.2620
 5013TIP3    H139234   1.017   2.455  19.182 -1.7095  2.9954  0.6358
 5013TIP3    H239235   1.058   2.441  19.327  0.1873  0.1077 -0.0920
 5014TIP3   OH239236   4.999   3.427  20.156  0.8567  0.8190 -0.0867
 5014TIP3    H139237   4.946   3.348  20.143  1.4736  0.5809 -1.2995
 5014TIP3    H239238   4.936   3.499  20.147  0.0907  0.5025  2.0250
 5015TIP3   OH239239   5.004   5.543  17.634  0.1051 -0.0321 -0.0422
 5015TIP3    H139240   5.039   5.460  17.667 -0.1937  0.1522  0.7802
 5015TIP3    H239241   4.932   5.563  17.694  0.7625  1.2833  0.3327
 5016TIP3   OH239242   3.334   1.124  18.116 -0.2041 -0.2030 -0.3613
 5016TIP3    H139243   3.422   1.159  18.102  0.5225 -1.7805  0.0947
 5016TIP3    H239244   3.335   1.092  18.207 -1.2227 -0.3083 -0.3757
 5017TIP3   OH239245   2.983   1.252  18.836  0.3440 -0.2607 -0.3443
 5017TIP3    H139246   2.941   1.259  18.922 -1.4156  1.6436 -1.2792
 5017TIP3    H239247   3.070   1.216  18.855  0.1821  0.5136  2.2795
 5018TIP3   OH239248   4.917   1.401  20.217  0.2816 -0.2942 -0.1616
 5018TIP3    H139249   4.831   1.393  20.175 -0.1335 -0.4958  0.7012
 5018TIP3    H239250   4.978   1.366  20.152 -0.5457 -2.4206  0.1065
 5019TIP3   OH239251   6.143   4.419  17.639  0.1699  0.3830  0.0012
 5019TIP3    H139252   6.218   4.472  17.667  0.8425 -1.2877  1.5596
 5019TIP3    H239253   6.069   4.454  17.689 -0.0177  1.6738 -1.1279
 5020TIP3   OH239254   0.144   5.022  18.298 -1.0899  0.6998  0.2757
 5020TIP3    H139255   0.238   5.035  18.291 -1.1102  0.6131 -0.1955
 5020TIP3    H239256   0.131   4.928  18.284 -1.3069  0.8182 -0.3355
 5021TIP3   OH239257   4.044   1.398  18.336 -0.0970 -0.6021 -0.2366
 5021TIP3    H139258   4.022   1.353  18.418 -0.3008 -0.3533 -0.1528
 5021TIP3    H239259   4.027   1.490  18.354 -2.5307 -0.7600 -1.3075
 5022TIP3   OH239260   3.096   1.337  18.609 -0.6582 -0.2327  0.0477
 5022TIP3    H139261   3.061   1.327  18.697  0.7157  0.3820  0.6870
 5022TIP3    H239262   3.185   1.367  18.621  0.4871 -2.6576 -1.4900
 5023TIP3   OH239263   1.901   5.219  17.217  0.6943  0.2764  0.0109
 5023TIP3    H139264   1.886   5.159  17.145 -0.3920  0.5486 -0.0115
 5023TIP3    H239265   1.950   5.292  17.179 -1.2356  1.2017 -0.8888
 5024TIP3   OH239266   5.547   0.132  16.906 -0.8476 -0.2034  0.0921
 5024TIP3    H139267   5.486   0.087  16.846 -3.1499  1.4943  1.0224
 5024TIP3    H239268   5.579   0.062  16.963 -0.4575 -1.4463 -1.5539
 5025TIP3   OH239269   5.359   3.089  17.302  0.2618  0.9377  0.5681
 5025TIP3    H139270   5.336   3.021  17.238 -0.6992  1.6212  0.1687
 5025TIP3    H239271   5.318   3.060  17.384  0.4547  0.6890  0.5796
 5026TIP3   OH239272   2.223   3.781  17.608  0.3952  0.8547  0.7503
 5026TIP3    H139273   2.203   3.865  17.650  1.9666  1.1687  0.9147
 5026TIP3    H239274   2.293   3.801  17.546  0.4343 -0.2442  0.4225
 5027TIP3   OH239275   0.655   2.174  17.430  0.4942 -0.0392  0.1047
 5027TIP3    H139276   0.698   2.259  17.421  2.4210 -1.0256 -0.7924
 5027TIP3    H239277   0.716   2.123  17.483  0.1110 -1.2946 -0.6314
 5028TIP3   OH239278   1.977   2.081  17.901 -0.0450  0.0429  0.0525
 5028TIP3    H139279   1.949   2.117  17.986  0.9470  0.1992  0.3205
 5028TIP3    H239280   1.949   2.146  17.837  0.0675  0.3965  0.3562
 5029TIP3   OH239281   6.568   5.029  18.821 -0.3923 -0.0064 -0.8443
 5029TIP3    H139282   6.601   5.114  18.851  0.3467 -0.2327 -0.9957
 5029TIP3    H239283   6.546   5.043  18.729 -0.1939  0.0053 -0.8908
 5030TIP3   OH239284   4.013   5.876  19.233  0.1515  0.2551  0.2000
 5030TIP3    H139285   3.944   5.854  19.170 -0.2904  0.5160  0.5881
 5030TIP3    H239286   3.984   5.958  19.273  0.3116 -0.0419  0.9270
 5031TIP3   OH239287   1.299   4.297  16.911 -0.0227 -0.4521 -0.0482
 5031TIP3    H139288   1.311   4.268  17.002 -1.7263 -1.1145 -0.0067
 5031TIP3    H239289   1.262   4.222  16.867 -1.0059  0.4792 -0.8492
 5032TIP3   OH239290   4.549   0.421  19.869  0.3134 -0.4795  0.1464
 5032TIP3    H139291   4.636   0.394  19.839  0.1719 -0.6175 -0.1412
 5032TIP3    H239292   4.525   0.494  19.812  1.4366  1.4880  2.0163
 5033TIP3   OH239293   2.104   2.847  16.666  0.1384  0.1525  0.2907
 5033TIP3    H139294   2.176   2.786  16.659 -0.1008 -0.1967  0.7950
 5033TIP3    H239295   2.097   2.886  16.579 -0.8197 -1.8054 -0.5801
 5034TIP3   OH239296   6.651   5.925  18.342  0.3915  0.2988 -0.8281
 5034TIP3    H139297   6.581   5.860  18.336  1.3494 -0.8071 -0.4511
 5034TIP3    H239298   6.685   5.933  18.253  2.7387 -2.6142 -0.3764
 5035TIP3   OH239299   0.856   2.804  18.220 -0.3809 -0.0205  0.2042
 5035TIP3    H139300   0.823   2.714  18.218  0.6787 -0.4677  1.1527
 5035TIP3    H239301   0.821   2.840  18.301  0.2220 -0.0136  0.4664
 5036TIP3   OH239302   2.570   3.489  18.837  0.0652  0.2709 -0.2206
 5036TIP3    H139303   2.517   3.463  18.761  2.1177  0.0057 -1.6374
 5036TIP3    H239304   2.587   3.582  18.823  0.6164  0.1746 -0.2022
 5037TIP3   OH239305   1.424   6.267  17.239 -0.3163  0.0360  0.3382
 5037TIP3    H139306   1.356   6.201  17.249 -0.9344  0.3516 -1.4625
 5037TIP3    H239307   1.460   6.278  17.327 -0.6628 -2.1776  0.7950
 5038TIP3   OH239308   3.771   2.733  18.985 -0.3751  0.0942  0.1251
 5038TIP3    H139309   3.846   2.762  19.037  0.2808  1.8285 -1.6472
 5038TIP3    H239310   3.808   2.670  18.923 -0.4150  0.8076 -0.6279
 5039TIP3   OH239311   4.113   6.025  17.361 -0.5600 -0.1393  0.2384
 5039TIP3    H139312   4.029   5.983  17.374 -1.0861  1.1364  1.1774
 5039TIP3    H239313   4.158   6.015  17.445 -0.3896  0.4828  0.2250
 5040TIP3   OH239314   4.010   2.246  19.581  0.0855 -0.5424  0.0683
 5040TIP3    H139315   4.049   2.332  19.599 -0.2755 -0.5221  0.7861
 5040TIP3    H239316   4.044   2.222  19.494  1.8119 -0.5995  0.7087
 5041TIP3   OH239317   6.250   2.056  18.546  0.2676 -0.1750 -0.5859
 5041TIP3    H139318   6.284   2.013  18.467 -3.0004  0.0247 -2.2545
 5041TIP3    H239319   6.226   1.983  18.603  0.2863 -0.3983 -0.8571
 5042TIP3   OH239320   5.965   5.041  16.505 -0.2819 -0.2259 -0.3706
 5042TIP3    H139321   6.054   5.010  16.523 -0.0176  1.3720  1.3057
 5042TIP3    H239322   5.943   5.001  16.421  2.6741  0.6666 -1.7016
 5043TIP3   OH239323   3.291   1.277  17.496 -0.6250 -0.5932  0.2243
 5043TIP3    H139324   3.346   1.351  17.522 -1.2433  0.0554 -0.2657
 5043TIP3    H239325   3.284   1.284  17.401 -0.7159 -1.2770  0.1709
 5044TIP3   OH239326   3.841   1.580  17.772 -0.8308 -1.1130 -0.4502
 5044TIP3    H139327   3.875   1.629  17.697  0.0687 -1.0846 -0.0415
 5044TIP3    H239328   3.915   1.528  17.801 -0.9410 -0.5668  0.8783
 5045TIP3   OH239329   1.086   1.913  16.765  0.3094  0.0356  0.1015
 5045TIP3    H139330   1.005   1.926  16.717 -1.6548 -0.6511  2.9562
 5045TIP3    H239331   1.123   2.001  16.776  0.1661  0.3152 -1.5204
 5046TIP3   OH239332   2.328   2.722  19.305  0.1701  0.4971 -0.4270
 5046TIP3    H139333   2.310   2.642  19.354 -1.2566  0.1697 -1.4106
 5046TIP3    H239334   2.394   2.697  19.241  0.6496  0.4507  0.0723
 5047TIP3   OH239335   3.496   6.249  18.205 -0.2689 -0.0837 -0.4271
 5047TIP3    H139336   3.536   6.323  18.160  0.6842 -0.3548 -0.0618
 5047TIP3    H239337   3.402   6.258  18.188 -0.0016  0.1831 -1.9007
 5048TIP3   OH239338   0.957   5.945  19.737  0.0795  0.5252 -0.4424
 5048TIP3    H139339   1.016   5.980  19.670  0.8457  1.7114  0.8058
 5048TIP3    H239340   0.912   6.022  19.771  0.0443  0.0026  0.7168
 5049TIP3   OH239341   3.974   5.072  17.361  0.5528  0.5115  0.6685
 5049TIP3    H139342   4.008   5.134  17.297 -2.8171  2.3102  0.3792
 5049TIP3    H239343   3.917   5.014  17.311 -0.2424  0.3943  1.6781
 5050TIP3   OH239344   2.516   2.632  19.864 -0.0486  0.1084  0.5209
 5050TIP3    H139345   2.601   2.590  19.858 -0.4497 -1.3066  3.0529
 5050TIP3    H239346   2.457   2.574  19.816  0.3210  1.0071 -1.0969
 5051TIP3   OH239347   5.573   0.922  17.779  0.5339 -0.3527 -0.2625
 5051TIP3    H139348   5.546   0.911  17.871  1.0349 -1.4218 -0.2291
 5051TIP3    H239349   5.620   1.006  17.778  1.9263 -1.0817  0.8090
 5052TIP3   OH239350   6.061   5.784  18.788  0.6529 -0.7000 -0.0174
 5052TIP3    H139351   6.086   5.738  18.708  0.3771 -1.5645  0.3932
 5052TIP3    H239352   6.048   5.716  18.853  1.2985  0.0170  0.8989
 5053TIP3   OH239353   4.000   6.483  18.581 -0.4262  0.0088 -0.3080
 5053TIP3    H139354   3.982   6.391  18.598  2.0168 -0.1636  2.1061
 5053TIP3    H239355   4.094   6.486  18.561 -0.3274  2.0006  0.2096
 5054TIP3   OH239356   4.741   2.999  18.227  0.3118 -0.3332  0.0209
 5054TIP3    H139357   4.719   3.000  18.133  0.4533 -0.0412 -0.0088
 5054TIP3    H239358   4.801   3.072  18.238 -2.0683  1.6326  0.9267
 5055TIP3   OH239359   1.762   4.241  17.353  0.1029  0.8875 -0.0739
 5055TIP3    H139360   1.774   4.323  17.305 -0.9660  0.5597 -0.9485
 5055TIP3    H239361   1.823   4.247  17.427 -1.4993  3.4309  1.1794
 5056TIP3   OH239362   3.027   5.259  19.126 -1.2738 -0.1136  0.0701
 5056TIP3    H139363   3.112   5.291  19.155 -1.7365  1.6456 -0.3750
 5056TIP3    H239364   3.031   5.165  19.139  1.7540 -0.5213 -2.4828
 5057TIP3   OH239365   4.085   3.572  18.718 -0.8300  0.0948 -0.7932
 5057TIP3    H139366   4.093   3.537  18.629 -0.7730 -3.6887  0.5230
 5057TIP3    H239367   4.001   3.618  18.718 -0.6181  0.6050 -2.8522
 5058TIP3   OH239368   5.755   3.119  18.266 -0.0570  0.2374  0.1667
 5058TIP3    H139369   5.806   3.087  18.340 -0.7893  0.4364  0.7732
 5058TIP3    H239370   5.697   3.046  18.243  0.6596 -0.0868 -0.6934
 5059TIP3   OH239371   0.180   0.309  18.708  0.3696  0.3370  0.0399
 5059TIP3    H139372   0.154   0.322  18.799 -2.1561 -0.6939 -0.4603
 5059TIP3    H239373   0.251   0.245  18.712  0.3755  0.4136  1.2894
 5060TIP3   OH239374   4.861   4.610  17.916 -0.2363 -0.4906 -0.4307
 5060TIP3    H139375   4.855   4.545  17.846 -0.4723 -0.9564  0.0144
 5060TIP3    H239376   4.953   4.635  17.917 -0.0244 -1.2513 -0.2276
 5061TIP3   OH239377   0.480   0.223  19.439  0.4262 -0.7315  0.1552
 5061TIP3    H139378   0.544   0.192  19.504 -0.2184 -0.8749  0.7342
 5061TIP3    H239379   0.400   0.175  19.461 -0.1568  0.1989  0.0753
 5062TIP3   OH239380   6.409   2.677  17.031 -0.4593 -0.2688 -0.0329
 5062TIP3    H139381   6.504   2.676  17.015 -0.6956 -1.1608 -1.5501
 5062TIP3    H239382   6.378   2.754  16.983 -0.2682  1.4831  2.4178
 5063TIP3   OH239383   3.798   3.236  18.122 -0.0265 -0.4659  0.1077
 5063TIP3    H139384   3.886   3.211  18.094  0.0051 -0.0720 -0.1543
 5063TIP3    H239385   3.742   3.212  18.048 -0.2454 -1.3740  0.5556
 5064TIP3   OH239386   2.903   4.605  18.765  0.3972 -0.8274  0.0539
 5064TIP3    H139387   2.826   4.658  18.785 -0.3880 -1.7419 -0.4232
 5064TIP3    H239388   2.867   4.523  18.730  1.5754 -1.4557  0.2439
 5065TIP3   OH239389   0.751   5.171  17.104  0.4935  0.2705 -0.4164
 5065TIP3    H139390   0.750   5.215  17.019  1.2722  1.5438  0.1819
 5065TIP3    H239391   0.710   5.087  17.089  1.2708  0.1708 -2.2200
 5066TIP3   OH239392   6.563   3.377  20.133 -0.1938  0.0601  0.1154
 5066TIP3    H139393   6.488   3.432  20.154 -0.4418 -0.9181  2.0032
 5066TIP3    H239394   6.525   3.291  20.113  0.1951  0.4447 -2.6601
 5067TIP3   OH239395   3.195   4.287  18.859 -0.0159 -0.3084 -0.3451
 5067TIP3    H139396   3.146   4.232  18.921  2.1183 -0.7431  1.0929
 5067TIP3    H239397   3.230   4.358  18.912  0.8795 -0.0042 -1.3017
 5068TIP3   OH239398   1.033   5.654  16.519  0.7182 -0.1256  0.2750
 5068TIP3    H139399   1.127   5.641  16.533  0.9258  1.0686  0.0901
 5068TIP3    H239400   0.993   5.572  16.547  1.5975  0.2044  2.7763
 5069TIP3   OH239401   5.331   4.978  19.133 -0.1284  0.0882 -0.1256
 5069TIP3    H139402   5.389   4.906  19.156  0.9957  0.1548 -2.4301
 5069TIP3    H239403   5.269   4.940  19.071 -0.3803  0.7863 -0.3142
 5070TIP3   OH239404   2.615   0.463  19.603  0.0578 -0.1991 -0.0289
 5070TIP3    H139405   2.571   0.418  19.676  0.4357 -1.6252 -0.6470
 5070TIP3    H239406   2.544   0.501  19.552 -0.4592 -1.9749 -0.6947
 5071TIP3   OH239407   4.144   0.643  19.119  0.2321 -0.0556 -0.0003
 5071TIP3    H139408   4.089   0.719  19.138  1.6787  0.5234  2.2853
 5071TIP3    H239409   4.231   0.679  19.103  1.1414 -1.1640  1.9592
 5072TIP3   OH239410   2.678   2.235  18.476  0.0923 -0.0808  0.2526
 5072TIP3    H139411   2.647   2.162  18.530  1.2255 -0.3314  0.5894
 5072TIP3    H239412   2.642   2.217  18.389  0.1808 -0.9266  0.3795
 5073TIP3   OH239413   1.728   2.817  17.843 -0.2783  0.2958  0.3705
 5073TIP3    H139414   1.723   2.912  17.837  0.2692  0.3245  0.3982
 5073TIP3    H239415   1.690   2.785  17.761  0.2006  0.5459  0.0549
 5074TIP3   OH239416   0.880   6.613  20.189  0.2337 -0.3406  0.4812
 5074TIP3    H139417   0.959   6.666  20.201  0.8623 -0.7324 -1.5333
 5074TIP3    H239418   0.913   6.526  20.168 -0.6994 -0.3725 -0.9770
 5075TIP3   OH239419   1.905   0.590  17.554  0.7012  0.0032 -0.2053
 5075TIP3    H139420   1.965   0.663  17.572  1.5861 -0.2131 -2.0849
 5075TIP3    H239421   1.915   0.574  17.460 -1.4001 -0.8686 -0.3192
 5076TIP3   OH239422   4.615   5.925  18.577 -0.4056  0.0471  0.4610
 5076TIP3    H139423   4.704   5.961  18.576 -0.8803  1.5579  3.3101
 5076TIP3    H239424   4.565   5.984  18.520  0.0836  0.1210  0.0985
 5077TIP3   OH239425   5.552   5.220  19.033 -0.8453  0.5474  0.0466
 5077TIP3    H139426   5.493   5.276  19.083 -0.7562 -0.0105  0.7808
 5077TIP3    H239427   5.624   5.278  19.007  0.0489  0.4500  2.1395
 5078TIP3   OH239428   6.446   1.156  17.709  0.0934  0.2077  0.1740
 5078TIP3    H139429   6.398   1.081  17.676 -1.7506  1.4298 -0.0919
 5078TIP3    H239430   6.523   1.162  17.652 -1.7626  0.8302 -2.5248
 5079TIP3   OH239431   4.625   0.244  17.940  0.7891  0.4155  0.4294
 5079TIP3    H139432   4.620   0.226  18.034  1.9628  0.3996  0.5042
 5079TIP3    H239433   4.536   0.230  17.908  0.2581  0.9248  1.6269
 5080TIP3   OH239434   2.062   4.617  17.511  0.2365 -0.0436 -0.2664
 5080TIP3    H139435   1.993   4.603  17.446 -0.6218 -0.1162  0.6562
 5080TIP3    H239436   2.140   4.636  17.458 -0.8014  1.5330 -1.2944
 5081TIP3   OH239437   1.174   3.807  17.344 -0.2193  0.6303 -0.5300
 5081TIP3    H139438   1.214   3.828  17.428 -1.2406 -0.8594  0.3817
 5081TIP3    H239439   1.102   3.747  17.366 -1.5031  1.4305 -2.3194
 5082TIP3   OH239440   5.177   4.287  17.903  0.0023  0.5092  0.0467
 5082TIP3    H139441   5.251   4.236  17.870 -0.4160  0.1008 -0.2789
 5082TIP3    H239442   5.118   4.222  17.940  0.8102  1.0148  2.3884
 5083TIP3   OH239443   5.320   1.927  16.957  0.1239 -0.1069  0.0856
 5083TIP3    H139444   5.408   1.964  16.968  0.0672 -0.0899  0.5097
 5083TIP3    H239445   5.293   1.954  16.869  0.5029 -0.0269 -0.0069
 5084TIP3   OH239446   4.219   0.290  20.072 -0.7068  0.6581  0.1716
 5084TIP3    H139447   4.229   0.381  20.045 -2.0012  0.4070 -1.2698
 5084TIP3    H239448   4.129   0.267  20.047 -0.9106 -0.5893  1.8287
 5085TIP3   OH239449   1.655   5.529  18.268  0.2022  0.3185  0.6303
 5085TIP3    H139450   1.656   5.625  18.270  0.3607  0.3877 -1.1360
 5085TIP3    H239451   1.688   5.507  18.181  0.9577 -1.3748  1.3208
 5086TIP3   OH239452   6.402   2.592  17.302  0.1289 -0.4618 -0.0899
 5086TIP3    H139453   6.474   2.632  17.351  0.5246 -2.4761  1.0548
 5086TIP3    H239454   6.421   2.614  17.210  0.9697  0.8793  0.3752
 5087TIP3   OH239455   6.527   0.690  19.870 -0.3260  0.4960  0.2314
 5087TIP3    H139456   6.567   0.770  19.904 -1.2050  1.5310 -1.0697
 5087TIP3    H239457   6.492   0.716  19.785 -0.5575 -1.3130 -0.2474
 5088TIP3   OH239458   4.935   6.571  18.457  0.4094 -0.2461 -0.5134
 5088TIP3    H139459   4.946   6.654  18.411  2.8068 -1.1173 -1.6602
 5088TIP3    H239460   4.933   6.505  18.387  0.6929 -1.3271  0.4632
 5089TIP3   OH239461   4.167   1.003  19.515 -0.0480 -0.6438  0.5589
 5089TIP3    H139462   4.224   0.931  19.540  2.2974 -0.2018 -2.8535
 5089TIP3    H239463   4.111   0.967  19.446  0.5845  0.5263 -0.6080
 5090TIP3   OH239464   5.962   5.863  19.292  0.4041  0.2561  0.8235
 5090TIP3    H139465   5.926   5.941  19.249 -1.6026 -0.6774  0.6852
 5090TIP3    H239466   5.914   5.857  19.374 -1.5234 -2.2560 -0.3314
 5091TIP3   OH239467   2.422   2.989  18.567 -0.1984 -0.1107  0.3607
 5091TIP3    H139468   2.448   2.940  18.646 -0.5181  0.1569  0.6337
 5091TIP3    H239469   2.409   2.921  18.501 -0.7078 -0.4163  0.7560
 5092TIP3   OH239470   2.617   6.163  19.636  0.1586 -0.0621  1.0612
 5092TIP3    H139471   2.600   6.070  19.650  0.1994 -0.2937 -0.2661
 5092TIP3    H239472   2.706   6.166  19.602 -0.9992  0.0372 -2.3840
 5093TIP3   OH239473   5.908   6.608  17.382 -0.0234 -0.2066  0.3215
 5093TIP3    H139474   5.838   6.673  17.385 -0.5129 -0.7421  1.6031
 5093TIP3    H239475   5.931   6.600  17.290 -0.8168  0.8661  0.0212
 5094TIP3   OH239476   2.592   3.118  16.903 -0.1341  0.4623  0.0348
 5094TIP3    H139477   2.573   3.034  16.944  2.6549  0.3894  1.4834
 5094TIP3    H239478   2.597   3.099  16.809 -0.7904 -0.7061  0.2197
 5095TIP3   OH239479   4.252   2.922  18.823  0.4302 -0.6110 -0.1799
 5095TIP3    H139480   4.259   2.830  18.799  0.9173 -0.2576 -1.4862
 5095TIP3    H239481   4.168   2.951  18.785 -0.0914 -0.6859  0.8752
 5096TIP3   OH239482   0.948   1.260  17.149  0.7870 -0.2502 -0.1003
 5096TIP3    H139483   1.027   1.304  17.118 -0.2938  1.3376 -0.7640
 5096TIP3    H239484   0.927   1.196  17.080  1.3930 -0.5666  0.0049
 5097TIP3   OH239485   0.197   1.278  18.870  0.3048  0.2726 -0.1969
 5097TIP3    H139486   0.137   1.268  18.796  0.1200 -0.0124 -0.0092
 5097TIP3    H239487   0.189   1.196  18.918  0.1207  0.6190  0.3714
 5098TIP3   OH239488   6.385   2.768  20.114  0.2818  0.4911 -0.5698
 5098TIP3    H139489   6.352   2.831  20.178  1.2586  1.9725 -1.4638
 5098TIP3    H239490   6.337   2.787  20.034 -0.5323 -0.9782 -0.4583
 5099TIP3   OH239491   2.226   2.160  17.677  0.2000  0.4268  0.1146
 5099TIP3    H139492   2.189   2.093  17.735  0.0865  1.3278  1.1160
 5099TIP3    H239493   2.313   2.127  17.655 -0.5441 -0.9316 -0.9309
 5100TIP3   OH239494   1.518   1.282  19.366 -0.4322 -0.0783  0.6278
 5100TIP3    H139495   1.606   1.301  19.398 -0.5761  0.0373  0.9704
 5100TIP3    H239496   1.502   1.349  19.300  0.7070 -1.6463 -1.3215
 5101TIP3   OH239497   4.600   6.009  20.021  0.0663 -0.3184 -0.2675
 5101TIP3    H139498   4.624   6.090  19.976  1.8975 -1.4195 -1.3907
 5101TIP3    H239499   4.544   5.963  19.960 -1.4092  0.2758  0.5813
 5102TIP3   OH239500   3.382   6.101  17.469  0.6359  0.5109  0.0525
 5102TIP3    H139501   3.371   6.190  17.502 -0.5757  0.8836 -1.2719
 5102TIP3    H239502   3.301   6.056  17.492  1.5442 -0.5199  1.4035
 5103TIP3   OH239503   0.720   4.470  19.327  0.3192  0.2412  0.4821
 5103TIP3    H139504   0.685   4.531  19.392  1.9604 -0.1073  1.7852
 5103TIP3    H239505   0.745   4.525  19.253 -1.1984  0.7032  0.2828
 5104TIP3   OH239506   3.050   4.010  17.773  0.3055 -0.1339 -0.2624
 5104TIP3    H139507   3.008   4.072  17.832 -0.0288  1.6433 -2.2262
 5104TIP3    H239508   3.066   3.933  17.826  1.7736  1.9838  2.6686
 5105TIP3   OH239509   0.180   5.452  19.210  0.1469 -0.0962  0.0213
 5105TIP3    H139510   0.216   5.524  19.262  0.9512  0.3384 -1.0766
 5105TIP3    H239511   0.121   5.406  19.269 -0.8367  1.8061  0.6137
 5106TIP3   OH239512   0.991   5.070  17.847 -0.4871 -0.3295  0.1419
 5106TIP3    H139513   0.929   5.079  17.920 -0.0896 -0.5456  0.5113
 5106TIP3    H239514   1.071   5.111  17.879  0.2321 -1.9452  0.5033
 5107TIP3   OH239515   1.152   4.423  19.683 -0.7015 -0.2401  0.0246
 5107TIP3    H139516   1.244   4.406  19.663  0.2798  2.8975  1.1502
 5107TIP3    H239517   1.126   4.490  19.619 -1.1956  1.1027  1.5505
 5108TIP3   OH239518   1.137   5.126  19.649 -0.2371  0.2634  0.2918
 5108TIP3    H139519   1.061   5.084  19.689 -0.4589  1.4541  1.1869
 5108TIP3    H239520   1.179   5.173  19.721  1.3373 -0.3239 -0.1968
 5109TIP3   OH239521   2.792   1.757  18.649  0.2230 -0.0900 -0.5174
 5109TIP3    H139522   2.728   1.754  18.720  1.4837  1.2493  0.7127
 5109TIP3    H239523   2.757   1.822  18.588 -0.8561 -1.2369 -1.1916
 5110TIP3   OH239524   0.469   4.568  20.125  0.8301  0.2279 -0.3753
 5110TIP3    H139525   0.446   4.478  20.102  0.3254  0.2548 -0.0159
 5110TIP3    H239526   0.467   4.615  20.042 -1.8563  0.5183 -0.2497
 5111TIP3   OH239527   2.063   1.214  19.051 -0.3335  0.6990 -0.5874
 5111TIP3    H139528   2.015   1.193  18.970  0.6584  0.6767 -1.1820
 5111TIP3    H239529   2.030   1.300  19.077 -2.1000 -0.1400  0.0937
 5112TIP3   OH239530   3.653   2.325  18.910 -0.3790 -0.2032 -0.0130
 5112TIP3    H139531   3.586   2.368  18.963  0.5234 -0.4945  1.4235
 5112TIP3    H239532   3.707   2.277  18.974  1.6500  0.6332 -0.9987
 5113TIP3   OH239533   1.163   1.754  19.576  0.1381 -0.7682 -0.7583
 5113TIP3    H139534   1.112   1.835  19.580  1.9329  0.4220 -0.7302
 5113TIP3    H239535   1.197   1.743  19.664 -0.9162 -2.1473 -0.5002
 5114TIP3   OH239536   2.164   2.218  19.968 -0.3355 -0.4504 -0.9700
 5114TIP3    H139537   2.248   2.191  19.931 -0.1239 -0.6473 -0.3601
 5114TIP3    H239538   2.170   2.194  20.061  0.3267  2.7195 -0.0809
 5115TIP3   OH239539   0.250   1.370  16.710  0.3247  0.1717  0.0565
 5115TIP3    H139540   0.258   1.286  16.756 -0.1871  0.4179  0.6114
 5115TIP3    H239541   0.201   1.350  16.631 -0.0079 -0.0092  0.3072
 5116TIP3   OH239542   6.195   6.636  18.612 -0.2960  0.0894  0.0677
 5116TIP3    H139543   6.239   6.612  18.693  0.2511  1.0920  0.0776
 5116TIP3    H239544   6.258   6.616  18.543 -0.7938 -0.8488 -0.1352
 5117TIP3   OH239545   1.061   2.407  18.813  0.2204  0.1892 -0.2008
 5117TIP3    H139546   1.107   2.442  18.736 -0.6160 -0.3540 -0.9784
 5117TIP3    H239547   0.972   2.393  18.782 -0.3532  0.7621  1.1390
 5118TIP3   OH239548   4.683   1.481  17.204  0.1819 -0.1668 -0.1901
 5118TIP3    H139549   4.722   1.395  17.218  0.8127  0.1308 -0.0666
 5118TIP3    H239550   4.712   1.507  17.117  1.2029  0.5311  0.3351
 5119TIP3   OH239551   4.890   0.154  17.984  0.1722 -0.6081  0.0741
 5119TIP3    H139552   4.803   0.161  17.945 -0.3929  0.7115  1.4863
 5119TIP3    H239553   4.900   0.234  18.036  3.1244  0.3265 -1.7292
 5120TIP3   OH239554   5.268   3.449  20.087 -1.0226  0.1111 -0.2468
 5120TIP3    H139555   5.266   3.545  20.082 -1.6662  0.1911  1.0621
 5120TIP3    H239556   5.178   3.425  20.111 -1.2929 -0.9451 -2.1564
 5121TIP3   OH239557   5.847   5.008  16.753 -0.1537  0.0638  0.0646
 5121TIP3    H139558   5.880   5.049  16.673  2.0599 -1.9952 -0.1772
 5121TIP3    H239559   5.848   4.914  16.735 -1.0513 -0.3838  2.0151
 5122TIP3   OH239560   5.156   1.264  20.175 -0.0629 -0.0593  0.2597
 5122TIP3    H139561   5.143   1.171  20.194  2.3875 -0.7196 -0.8532
 5122TIP3    H239562   5.187   1.302  20.257 -1.2283 -0.1650  0.7606
 5123TIP3   OH239563   4.815   0.419  17.473  0.0076  0.7299 -0.0196
 5123TIP3    H139564   4.868   0.479  17.421  0.9834  0.4662  0.6399
 5123TIP3    H239565   4.872   0.343  17.489 -0.6962  0.2691  0.3828
 5124TIP3   OH239566   4.371   4.691  19.676 -0.0862  0.6374  0.0485
 5124TIP3    H139567   4.391   4.782  19.651  0.3111  0.3313 -0.7778
 5124TIP3    H239568   4.277   4.693  19.697 -0.1369  1.1893 -0.1973
 5125TIP3   OH239569   2.970   0.754  19.321  0.2031  0.0487  0.1232
 5125TIP3    H139570   3.046   0.787  19.273 -0.1385  0.9378  0.1776
 5125TIP3    H239571   2.921   0.703  19.256 -0.2716  1.2631 -0.5071
 5126TIP3   OH239572   2.662   0.169  17.200  0.4493 -0.1765  0.1365
 5126TIP3    H139573   2.597   0.169  17.130  2.7765 -1.6758 -2.2367
 5126TIP3    H239574   2.696   0.259  17.201 -1.4913  0.6027  1.3627
 5127TIP3   OH239575   4.977   2.758  19.905 -0.1993  0.0193  0.4336
 5127TIP3    H139576   4.943   2.673  19.880 -2.2098  1.0994 -0.7230
 5127TIP3    H239577   5.005   2.798  19.823 -1.0059  1.1681  0.6868
 5128TIP3   OH239578   0.695   0.786  19.200 -0.0042 -0.0559  0.3835
 5128TIP3    H139579   0.689   0.716  19.134 -1.4140  0.3734  0.0390
 5128TIP3    H239580   0.789   0.797  19.214  0.2946 -0.7382 -0.9330
 5129TIP3   OH239581   5.959   2.292  16.901 -0.5438 -0.1650 -0.3158
 5129TIP3    H139582   5.869   2.324  16.905 -0.5193 -0.1979  1.3638
 5129TIP3    H239583   6.010   2.368  16.872 -0.5393  1.3985  3.2584
 5130TIP3   OH239584   2.001   6.280  18.052  0.5572  0.0718  0.3796
 5130TIP3    H139585   2.042   6.322  17.976  0.5911  0.6252  0.6993
 5130TIP3    H239586   2.015   6.341  18.124  1.8283 -1.1122  1.1800
 5131TIP3   OH239587   0.525   1.219  17.687 -1.1685  0.3263  0.1811
 5131TIP3    H139588   0.577   1.256  17.617  0.9402 -0.4690  1.2504
 5131TIP3    H239589   0.482   1.143  17.648  0.3152 -0.3581 -0.1739
 5132TIP3   OH239590   0.007   6.016  18.832 -0.6534  0.4551  0.5069
 5132TIP3    H139591   0.086   5.980  18.793  0.2576  1.6325  1.1589
 5132TIP3    H239592  -0.059   6.011  18.763  1.1313  3.4066 -1.6729
 5133TIP3   OH239593   1.624   0.327  18.526  0.2090  0.3513  0.1064
 5133TIP3    H139594   1.718   0.314  18.528  0.0848 -0.5900  0.0884
 5133TIP3    H239595   1.604   0.373  18.608  0.4684 -0.9816  0.9338
 5134TIP3   OH239596   4.618   3.742  17.597 -0.4864  0.2833 -0.4991
 5134TIP3    H139597   4.663   3.683  17.536  3.3021  1.2079  1.0738
 5134TIP3    H239598   4.578   3.809  17.542  0.6231 -0.3094 -2.0862
 5135TIP3   OH239599   4.649   2.076  19.414  0.2794  0.4818  0.0362
 5135TIP3    H139600   4.573   2.028  19.382 -1.3060  1.6494  1.8909
 5135TIP3    H239601   4.723   2.017  19.397 -1.0138 -0.7818 -1.5952
 5136TIP3   OH239602   4.635   2.725  19.505 -0.6964 -0.0531 -0.2825
 5136TIP3    H139603   4.615   2.811  19.468  1.4135  1.6892  2.2694
 5136TIP3    H239604   4.661   2.672  19.429 -1.1536  1.8113 -1.8209
 5137TIP3   OH239605   5.515   4.741  19.206  0.4901  0.1379  0.4083
 5137TIP3    H139606   5.582   4.713  19.143  0.4432 -0.0979  0.4646
 5137TIP3    H239607   5.557   4.731  19.291  0.1097 -0.7783  0.4969
 5138TIP3   OH239608   1.979   6.623  19.547  0.4593 -0.8761  0.4415
 5138TIP3    H139609   1.970   6.534  19.583 -1.1569 -0.9393 -0.0205
 5138TIP3    H239610   1.901   6.669  19.578  0.3444 -0.1681 -0.8384
 5139TIP3   OH239611   3.730   0.516  18.955 -0.2347 -0.2800 -0.3109
 5139TIP3    H139612   3.778   0.598  18.944  2.1293 -1.2325  1.9667
 5139TIP3    H239613   3.692   0.521  19.043 -0.1754 -1.5641 -0.1921
 5140TIP3   OH239614   1.651   5.907  19.666 -0.6148  0.6294  0.4099
 5140TIP3    H139615   1.667   5.892  19.759 -0.2391  0.5876  0.3383
 5140TIP3    H239616   1.736   5.893  19.624 -1.4534 -3.1902 -0.4294
 5141TIP3   OH239617   0.578   2.917  18.569 -0.1880 -0.1774  0.3241
 5141TIP3    H139618   0.673   2.932  18.572  0.0676 -1.7595  0.7344
 5141TIP3    H239619   0.565   2.832  18.612 -1.6165 -0.7932 -1.2151
 5142TIP3   OH239620   1.886   3.086  19.548  0.4915 -1.0261  0.1634
 5142TIP3    H139621   1.901   2.992  19.556  2.7407 -0.6526  1.0606
 5142TIP3    H239622   1.879   3.117  19.639  1.4017 -0.1212 -0.0599
 5143TIP3   OH239623   4.489   1.349  18.873  0.3631 -0.2481  0.2701
 5143TIP3    H139624   4.478   1.443  18.887 -0.6265 -0.3511  0.2368
 5143TIP3    H239625   4.410   1.322  18.827  1.6128 -0.6969 -1.7624
 5144TIP3   OH239626   2.025   0.941  20.006 -0.2154  0.1659  0.4152
 5144TIP3    H139627   1.932   0.932  19.988 -0.0942 -0.8654  0.2602
 5144TIP3    H239628   2.044   1.033  19.989 -0.3190 -0.3923 -3.7710
 5145TIP3   OH239629   4.629   6.603  20.259  0.0788 -0.1641  0.3213
 5145TIP3    H139630   4.630   6.692  20.224  0.3277 -0.8187 -1.4696
 5145TIP3    H239631   4.700   6.600  20.323  2.1521  0.1251 -1.8472
 5146TIP3   OH239632   2.531   2.908  18.810  0.0918  0.1664  0.4443
 5146TIP3    H139633   2.460   2.844  18.817 -0.4076  0.4293 -1.5636
 5146TIP3    H239634   2.505   2.980  18.867  0.8386 -1.4697  3.0532
 5147TIP3   OH239635   5.165   2.561  18.049  0.4193  0.0531 -0.0518
 5147TIP3    H139636   5.094   2.519  18.001 -0.0387 -0.9050  1.3845
 5147TIP3    H239637   5.229   2.492  18.064  1.1611  0.6485 -0.3804
 5148TIP3   OH239638   0.412   5.238  18.137  0.0051  0.5798 -0.1067
 5148TIP3    H139639   0.378   5.154  18.105  1.9419 -0.2988  0.0434
 5148TIP3    H239640   0.338   5.276  18.185 -0.4538 -1.8067  1.2610
 5149TIP3   OH239641   4.404   3.998  17.767 -0.1783  0.0563 -0.2073
 5149TIP3    H139642   4.383   3.914  17.808  1.9055 -0.5305 -0.2307
 5149TIP3    H239643   4.400   4.061  17.838 -0.5475 -0.2728  0.0692
 5150TIP3   OH239644   0.647   5.383  16.897  0.3823 -0.6937  0.9590
 5150TIP3    H139645   0.556   5.364  16.873  0.5391 -0.5670  0.2347
 5150TIP3    H239646   0.643   5.471  16.935  0.1336 -0.8867  1.3942
 5151TIP3   OH239647   1.271   3.932  19.635  0.3296 -0.4999  0.6741
 5151TIP3    H139648   1.211   3.994  19.594  1.3149 -1.2682 -2.1970
 5151TIP3    H239649   1.217   3.880  19.694 -1.6959 -0.6092 -1.1569
 5152TIP3   OH239650   5.700   3.709  16.711  0.0779  0.3870 -0.2000
 5152TIP3    H139651   5.718   3.708  16.617  2.0802  1.3702  0.1163
 5152TIP3    H239652   5.630   3.773  16.722 -0.4707 -0.0544 -1.0496
 5153TIP3   OH239653   1.875   6.039  18.072 -0.0862 -0.0372  0.3293
 5153TIP3    H139654   1.793   6.059  18.116  0.5624  0.4222  1.3708
 5153TIP3    H239655   1.917   6.124  18.059  1.0536 -0.3762  1.5245
 5154TIP3   OH239656   0.212   2.464  17.424  0.0640  0.0248 -0.0421
 5154TIP3    H139657   0.202   2.547  17.377 -1.1513 -0.0835 -0.0137
 5154TIP3    H239658   0.226   2.490  17.515  1.1131  0.2139 -0.2462
 5155TIP3   OH239659   4.787   3.092  17.395 -0.1391  0.1948 -0.4173
 5155TIP3    H139660   4.723   3.121  17.331 -0.4801  2.4260  0.8595
 5155TIP3    H239661   4.738   3.083  17.477  0.6339 -0.9193 -0.0433
 5156TIP3   OH239662   4.143   0.504  18.854 -0.1928  0.0807 -0.1499
 5156TIP3    H139663   4.143   0.521  18.948  1.4287  3.1609 -0.5717
 5156TIP3    H239664   4.129   0.410  18.847 -1.3476 -0.1366  3.0963
 5157TIP3   OH239665   5.668   4.935  18.160  0.0732 -0.1726 -0.1318
 5157TIP3    H139666   5.616   4.866  18.202  0.3019 -0.3233 -0.0906
 5157TIP3    H239667   5.629   4.946  18.074 -0.6220  0.3834  0.2403
 5158TIP3   OH239668   3.366   5.595  19.032 -0.1661  0.0450 -0.1256
 5158TIP3    H139669   3.335   5.596  19.123 -0.3276 -0.1500 -0.1756
 5158TIP3    H239670   3.399   5.683  19.017  0.3290 -0.0669  0.2858
 5159TIP3   OH239671   4.139   4.221  18.203  0.5322 -0.0640 -0.3968
 5159TIP3    H139672   4.227   4.186  18.217  1.4142  2.1010 -0.1251
 5159TIP3    H239673   4.132   4.228  18.107  0.7453 -0.0200 -0.4101
 5160TIP3   OH239674   4.564   3.708  17.878 -0.4334 -0.1493 -0.2746
 5160TIP3    H139675   4.583   3.740  17.790  1.0577  1.6257  0.6280
 5160TIP3    H239676   4.578   3.613  17.873  0.7446  0.0712 -1.6732
 5161TIP3   OH239677   5.050   2.335  17.540 -0.0353 -0.0095 -0.4385
 5161TIP3    H139678   5.032   2.262  17.482  1.1584  0.1922 -1.1025
 5161TIP3    H239679   4.991   2.404  17.511 -0.4827 -0.3933 -0.4448
 5162TIP3   OH239680   0.816   1.543  17.495  0.4053 -0.4736  0.2521
 5162TIP3    H139681   0.834   1.553  17.589 -0.9128  1.1901  0.3672
 5162TIP3    H239682   0.903   1.537  17.455  1.1268  1.7367  1.3165
 5163TIP3   OH239683   0.184   6.107  19.320  0.1222 -0.0709 -0.4157
 5163TIP3    H139684   0.205   6.153  19.402  0.0592  0.2563 -0.5847
 5163TIP3    H239685   0.169   6.176  19.256  2.1025 -0.3096 -1.2104
 5164TIP3   OH239686   6.291   2.142  18.024 -0.2516 -0.2063  0.0148
 5164TIP3    H139687   6.219   2.163  18.083 -0.1327  1.7185 -0.4691
 5164TIP3    H239688   6.252   2.085  17.958 -1.1475  0.2399  0.1476
 5165TIP3   OH239689   4.805   2.679  17.211  0.0959  0.4290  0.1551
 5165TIP3    H139690   4.716   2.669  17.178 -0.4288  3.0349  0.6006
 5165TIP3    H239691   4.860   2.660  17.135 -0.9147  0.8846 -0.7171
 5166TIP3   OH239692   5.977   6.532  18.908 -0.7025  0.3264  0.1241
 5166TIP3    H139693   5.964   6.624  18.888 -2.4155  0.1182  0.1460
 5166TIP3    H239694   6.052   6.506  18.855 -1.1822  1.3471 -1.0995
 5167TIP3   OH239695   3.374   3.049  19.557 -0.0431 -0.0269 -0.1875
 5167TIP3    H139696   3.325   3.048  19.475  0.1159  0.4612 -0.2874
 5167TIP3    H239697   3.339   3.124  19.605 -0.0672 -0.2514  0.1522
 5168TIP3   OH239698   6.014   6.459  17.149 -0.7780  0.8470 -0.1749
 5168TIP3    H139699   6.033   6.545  17.110  0.7023  0.8319  0.4309
 5168TIP3    H239700   5.992   6.403  17.075 -0.6016  1.4731 -0.7073
 5169TIP3   OH239701   3.349   4.160  19.586 -0.0187 -0.2118  0.7218
 5169TIP3    H139702   3.271   4.139  19.534  0.3586  1.5977 -0.6625
 5169TIP3    H239703   3.411   4.091  19.563 -0.6694 -0.7892  0.6420
 5170TIP3   OH239704   1.739   0.247  17.362  0.3514  0.5688  0.2179
 5170TIP3    H139705   1.726   0.207  17.276  2.0220  0.1864  0.1132
 5170TIP3    H239706   1.659   0.297  17.378 -1.5073 -2.1109 -0.0080
 5171TIP3   OH239707   3.951   3.854  16.991 -0.3502  0.0154 -0.0317
 5171TIP3    H139708   3.877   3.812  17.036 -0.9758  1.1030 -0.0097
 5171TIP3    H239709   3.958   3.808  16.908 -0.3697 -0.7935  0.4010
 5172TIP3   OH239710   1.563   1.086  18.450 -0.1338 -0.2604  0.3661
 5172TIP3    H139711   1.534   1.115  18.363  0.1305  0.7168  0.5956
 5172TIP3    H239712   1.488   1.100  18.507  0.3713  1.1316  0.7169
 5173TIP3   OH239713   6.471   5.316  19.496 -0.2081  0.4260  0.3271
 5173TIP3    H139714   6.473   5.220  19.498  1.0926  0.4369 -0.0690
 5173TIP3    H239715   6.386   5.338  19.535 -0.7360 -0.8924 -0.0106
 5174TIP3   OH239716   2.959   0.066  18.331  0.5651 -0.1695 -0.0393
 5174TIP3    H139717   3.013   0.059  18.410  1.8185  2.4273 -0.5731
 5174TIP3    H239718   2.877   0.105  18.361  0.0508 -1.4620  0.3154
 5175TIP3   OH239719   2.854   2.590  17.408 -0.3259  0.3291  0.4043
 5175TIP3    H139720   2.771   2.562  17.370 -0.4172  0.2126  0.6848
 5175TIP3    H239721   2.850   2.558  17.499  0.2888 -0.2377  0.2438
 5176TIP3   OH239722   2.471   5.657  19.708 -0.4380  0.0867 -0.2987
 5176TIP3    H139723   2.490   5.621  19.621 -2.0048 -0.1515 -0.5714
 5176TIP3    H239724   2.381   5.631  19.726  0.6551 -2.2837  2.6367
 5177TIP3   OH239725   6.461   1.426  19.032  0.0757 -0.1809 -0.5823
 5177TIP3    H139726   6.450   1.400  18.941 -0.9143  0.4626 -0.6708
 5177TIP3    H239727   6.376   1.407  19.072  0.3672 -0.0651  0.1074
 5178TIP3   OH239728   4.031   4.582  18.624  0.0907 -0.5827 -0.6050
 5178TIP3    H139729   4.051   4.655  18.682 -0.5044 -0.0781 -1.0159
 5178TIP3    H239730   4.114   4.534  18.617  0.8180  0.6826 -1.2037
 5179TIP3   OH239731   3.783   0.794  16.675 -0.0301 -0.3560 -0.4920
 5179TIP3    H139732   3.858   0.852  16.691  0.3054 -0.9177  0.0131
 5179TIP3    H239733   3.723   0.847  16.623 -0.1645  0.7936  0.7618
 5180TIP3   OH239734   5.312   5.839  18.935 -0.2517  0.2304 -0.9785
 5180TIP3    H139735   5.262   5.896  18.993  0.2418 -0.0547 -0.2581
 5180TIP3    H239736   5.299   5.751  18.970  0.5219  0.1178 -0.9431
 5181TIP3   OH239737   6.521   4.842  19.660  0.0316 -0.3143 -0.6109
 5181TIP3    H139738   6.528   4.841  19.755 -1.4779  0.9417 -0.4400
 5181TIP3    H239739   6.591   4.785  19.630  1.1069 -0.0268  1.2154
 5182TIP3   OH239740   5.536   1.745  16.918 -0.0520 -0.1837  0.0859
 5182TIP3    H139741   5.462   1.753  16.858  0.7978 -0.5202 -1.0585
 5182TIP3    H239742   5.612   1.767  16.864  0.7474 -0.5338  1.0446
 5183TIP3   OH239743   6.293   1.456  18.550  0.1485 -0.5931  0.1774
 5183TIP3    H139744   6.233   1.471  18.623  0.4452 -1.1098  0.5312
 5183TIP3    H239745   6.368   1.512  18.569  0.8418 -1.7545  1.0096
 5184TIP3   OH239746   3.635   4.254  19.761  0.4019  0.2175 -0.6704
 5184TIP3    H139747   3.666   4.260  19.851  0.3014  1.1133 -0.6917
 5184TIP3    H239748   3.540   4.248  19.769  0.4307 -0.3458 -0.6980
 5185TIP3   OH239749   3.654   6.204  17.354  0.3607 -0.2843  0.4348
 5185TIP3    H139750   3.562   6.188  17.376  0.4699  0.2609  1.3269
 5185TIP3    H239751   3.676   6.284  17.402 -0.0854  2.4659 -3.4528
 5186TIP3   OH239752   3.870   5.027  18.211  0.2075 -0.2515  0.2000
 5186TIP3    H139753   3.783   5.066  18.201  0.4895  0.7604  1.3964
 5186TIP3    H239754   3.913   5.081  18.277  2.5733  0.6577 -1.9318
 5187TIP3   OH239755   2.696   1.239  19.498  0.1002 -0.5996  0.4950
 5187TIP3    H139756   2.722   1.183  19.425  2.6593 -0.2236  1.0235
 5187TIP3    H239757   2.708   1.328  19.465 -1.3182 -0.3593  0.5510
 5188TIP3   OH239758   1.763   3.626  19.984  0.2732  0.2337 -0.1634
 5188TIP3    H139759   1.708   3.602  20.059 -1.3594  1.7516 -0.8076
 5188TIP3    H239760   1.819   3.550  19.970 -1.0273 -1.0266  1.1148
 5189TIP3   OH239761   6.276   3.637  16.466 -0.2723 -0.4261 -0.0191
 5189TIP3    H139762   6.299   3.683  16.385 -0.3987 -0.8075 -0.2728
 5189TIP3    H239763   6.193   3.675  16.492  1.8919  3.1807  2.5539
 5190TIP3   OH239764   3.686   0.736  17.861  0.6954  0.2218  0.6299
 5190TIP3    H139765   3.629   0.812  17.861  0.9588  0.4264 -0.2153
 5190TIP3    H239766   3.634   0.667  17.904  0.3807  0.8018  1.2009
 5191TIP3   OH239767   0.054   1.456  19.127  0.3514 -0.4652 -0.0517
 5191TIP3    H139768   0.017   1.508  19.198  0.8764  2.1492 -1.6001
 5191TIP3    H239769  -0.019   1.405  19.093 -0.0801 -1.1305  1.7650
 5192TIP3   OH239770   3.651   3.018  16.955 -0.3987  0.4068 -0.1805
 5192TIP3    H139771   3.668   2.945  16.896 -0.8588  0.1493 -0.0036
 5192TIP3    H239772   3.568   3.055  16.925 -1.2433 -0.4434  0.9861
 5193TIP3   OH239773   0.354   3.536  17.880  0.1112 -0.3033 -0.1736
 5193TIP3    H139774   0.378   3.628  17.884 -0.9777 -0.0223  0.2151
 5193TIP3    H239775   0.434   3.489  17.904  0.9238  0.4865 -1.1990
 5194TIP3   OH239776   5.594   5.948  20.242 -0.3876 -0.2186  0.2799
 5194TIP3    H139777   5.566   6.011  20.308 -0.0720  0.5003 -0.2486
 5194TIP3    H239778   5.689   5.941  20.254  0.2732  2.4834 -2.1559
 5195TIP3   OH239779   2.336   2.397  19.759 -0.0273 -0.4737  0.0191
 5195TIP3    H139780   2.258   2.344  19.741 -0.1306 -0.4095  0.2736
 5195TIP3    H239781   2.409   2.335  19.752 -0.1694 -0.7148  0.5712
 5196TIP3   OH239782   6.185   2.437  16.507 -0.2606  0.1366 -0.1256
 5196TIP3    H139783   6.127   2.362  16.493 -0.0575 -0.3454  1.4433
 5196TIP3    H239784   6.266   2.413  16.464  0.8526 -1.9477  2.7942
 5197TIP3   OH239785   3.220   1.107  18.831 -0.7851  0.4449  0.0989
 5197TIP3    H139786   3.301   1.151  18.858 -0.7245  0.3747  0.0313
 5197TIP3    H239787   3.248   1.020  18.804 -1.0052  0.0811  0.9969
 5198TIP3   OH239788   3.860   4.008  19.080 -0.0268 -0.0253 -0.3965
 5198TIP3    H139789   3.793   4.076  19.067  0.6969  0.5598 -1.1571
 5198TIP3    H239790   3.847   3.947  19.007 -0.2322 -0.3388 -0.1010
 5199TIP3   OH239791   6.410   5.783  18.935  0.6110  0.2954  0.0547
 5199TIP3    H139792   6.326   5.796  18.980 -0.6450 -0.2330 -1.9776
 5199TIP3    H239793   6.419   5.860  18.880  1.6391  0.4947  0.4945
 5200TIP3   OH239794   6.529   1.311  17.282  0.1134 -0.0675  0.0791
 5200TIP3    H139795   6.595   1.364  17.238 -0.7515  0.8052 -0.2150
 5200TIP3    H239796   6.575   1.232  17.308  1.6689  1.1642  1.2865
 5201TIP3   OH239797   4.118   5.193  18.840  0.4042 -0.1408  0.7938
 5201TIP3    H139798   4.182   5.202  18.910  0.4713  0.8084  0.6196
 5201TIP3    H239799   4.146   5.255  18.773 -0.4756  0.0158  0.5518
 5202TIP3   OH239800   1.411   3.674  19.603  0.1279 -0.0762 -0.0156
 5202TIP3    H139801   1.414   3.644  19.694  2.7373  2.2685  0.8262
 5202TIP3    H239802   1.327   3.719  19.595 -0.2352 -0.5135  1.1338
 5203TIP3   OH239803   6.654   1.141  17.498 -0.3408  0.4283  0.0549
 5203TIP3    H139804   6.681   1.060  17.455  0.7118  0.8470 -0.0883
 5203TIP3    H239805   6.732   1.196  17.498 -1.0557  1.4739  0.0961
 5204TIP3   OH239806   6.655   1.297  16.877 -1.0994  0.4611 -0.1659
 5204TIP3    H139807   6.654   1.220  16.933  0.0581 -0.2820 -1.1148
 5204TIP3    H239808   6.715   1.358  16.921  0.1454 -0.2896 -0.7536
 5205TIP3   OH239809   3.153   1.714  18.478 -0.5929 -0.2043 -0.3749
 5205TIP3    H139810   3.219   1.776  18.449 -0.2075  0.1495  1.1680
 5205TIP3    H239811   3.164   1.638  18.421  2.4178 -0.9015  0.9473
 5206TIP3   OH239812   1.398   0.863  18.745  0.3774  0.0136 -0.8074
 5206TIP3    H139813   1.392   0.776  18.785 -0.8842 -1.0365 -3.1211
 5206TIP3    H239814   1.473   0.856  18.686  0.4827  0.6244 -0.7448
 5207TIP3   OH239815   6.173   0.782  16.932  0.0464 -0.2481  0.2887
 5207TIP3    H139816   6.162   0.808  16.841  1.4605  0.3373  0.2674
 5207TIP3    H239817   6.084   0.767  16.963 -0.4407 -1.0967 -1.3594
 5208TIP3   OH239818   4.080   5.764  18.774  0.0509  0.0444  0.6333
 5208TIP3    H139819   4.145   5.704  18.812 -1.4647 -1.4892  0.9650
 5208TIP3    H239820   4.109   5.851  18.800  0.5268 -0.7634  3.1036
 5209TIP3   OH239821   5.928   4.821  19.572 -0.2870 -0.6027  0.8035
 5209TIP3    H139822   6.001   4.876  19.599 -0.8528  0.4907  0.1687
 5209TIP3    H239823   5.886   4.869  19.501 -0.7549 -1.8975  0.1563
 5210TIP3   OH239824   2.807   6.032  20.033  0.5662  0.4629  0.0165
 5210TIP3    H139825   2.717   6.018  20.003  0.6749  0.3124 -0.2435
 5210TIP3    H239826   2.829   5.951  20.080  1.1978 -0.2723 -1.4954
 5211TIP3   OH239827   0.421   1.382  18.301  0.3758  0.5166  0.0667
 5211TIP3    H139828   0.331   1.408  18.282  0.2978 -0.6211 -1.2871
 5211TIP3    H239829   0.448   1.331  18.225  1.7723 -0.1833  0.9813
 5212TIP3   OH239830   2.923   6.195  16.937  0.3473  0.6160 -0.0601
 5212TIP3    H139831   2.947   6.162  17.024  1.4074  1.4082 -0.0452
 5212TIP3    H239832   2.832   6.167  16.926  0.5421 -0.4488  0.8434
 5213TIP3   OH239833   5.992   1.489  20.163 -0.1978 -0.1790 -0.3366
 5213TIP3    H139834   5.927   1.427  20.197 -1.5464  0.2441 -1.9915
 5213TIP3    H239835   6.069   1.475  20.217 -1.8977 -0.1346  2.2981
 5214TIP3   OH239836   5.667   5.978  19.040 -0.7093 -0.3141 -0.3029
 5214TIP3    H139837   5.696   5.958  18.950  2.8697 -0.2128  0.6503
 5214TIP3    H239838   5.743   6.020  19.080 -2.3782  0.1247  2.6467
 5215TIP3   OH239839   1.494   4.288  19.370 -0.4602 -0.2483  0.1647
 5215TIP3    H139840   1.552   4.215  19.351 -0.3822 -0.4577  1.1470
 5215TIP3    H239841   1.509   4.350  19.299 -0.5327 -1.1827 -0.6932
 5216TIP3   OH239842   4.712   0.871  18.276 -0.0578 -0.6897 -0.3106
 5216TIP3    H139843   4.785   0.819  18.310 -0.8255 -1.5122  0.1128
 5216TIP3    H239844   4.634   0.830  18.313 -0.7080  0.5709 -0.2276
 5217TIP3   OH239845   3.702   3.399  19.307 -0.5679 -0.2695 -0.1734
 5217TIP3    H139846   3.629   3.338  19.301 -1.0653  0.3789 -0.9112
 5217TIP3    H239847   3.726   3.416  19.216  0.4665 -0.4265  0.0573
 5218TIP3   OH239848   5.992   0.994  18.635 -0.0698 -0.4882 -0.3095
 5218TIP3    H139849   6.023   1.020  18.548  1.7346 -1.1830  0.0894
 5218TIP3    H239850   6.021   1.065  18.692 -1.0681 -0.1381 -0.2124
 5219TIP3   OH239851   1.598   5.251  20.239 -1.1895 -0.4880 -0.1206
 5219TIP3    H139852   1.676   5.197  20.226 -1.3434 -0.3625 -1.8409
 5219TIP3    H239853   1.595   5.268  20.333  1.0254 -0.2436 -0.0526
 5220TIP3   OH239854   0.035   1.508  19.569  0.5497  0.7376  0.1338
 5220TIP3    H139855   0.042   1.597  19.602  0.2080  0.0080  2.3747
 5220TIP3    H239856   0.119   1.468  19.589  0.4642  0.3581 -0.2465
 5221TIP3   OH239857   3.093   6.669  17.754 -0.1825 -0.4503  0.1844
 5221TIP3    H139858   3.181   6.676  17.717 -0.8616  0.8450 -1.2487
 5221TIP3    H239859   3.104   6.696  17.845  1.0909 -1.3958  0.3449
 5222TIP3   OH239860   5.474   5.420  19.202 -0.3414  0.4036 -0.4025
 5222TIP3    H139861   5.555   5.467  19.185  0.2132 -0.9286 -1.6089
 5222TIP3    H239862   5.428   5.474  19.266  0.8415  1.9036 -0.7690
 5223TIP3   OH239863   1.706   2.585  18.816  0.1134 -0.0525  0.0404
 5223TIP3    H139864   1.763   2.597  18.892 -1.7616  0.8923  1.3759
 5223TIP3    H239865   1.685   2.492  18.817  0.5904 -0.1644  0.2979
 5224TIP3   OH239866   2.629   0.923  19.212 -0.5628 -0.0356 -0.1108
 5224TIP3    H139867   2.567   0.868  19.164 -2.3289  3.0034 -1.6282
 5224TIP3    H239868   2.576   0.965  19.279 -0.5248  3.1522 -1.8682
 5225TIP3   OH239869   6.627   2.723  17.807  0.2939  0.1214 -0.0181
 5225TIP3    H139870   6.565   2.793  17.788 -0.3100 -0.5022 -0.3601
 5225TIP3    H239871   6.610   2.656  17.741  0.0028 -0.8992  1.0582
 5226TIP3   OH239872   5.997   4.163  18.198  0.2140  0.2915 -0.4366
 5226TIP3    H139873   5.948   4.189  18.120  0.4062  0.8180 -0.3881
 5226TIP3    H239874   5.941   4.188  18.272 -0.2137 -0.7090 -0.4045
 5227TIP3   OH239875   1.365   1.023  19.859 -0.3834 -0.2281 -0.3077
 5227TIP3    H139876   1.276   1.038  19.825 -0.4401  2.3634  0.7998
 5227TIP3    H239877   1.416   1.001  19.781 -1.6303 -0.0016 -1.2281
 5228TIP3   OH239878   1.123   3.344  18.315 -0.1197 -0.7151  0.0036
 5228TIP3    H139879   1.156   3.409  18.377  2.6309 -1.9423 -0.0242
 5228TIP3    H239880   1.029   3.342  18.331 -0.3224  2.9637  0.2240
 5229TIP3   OH239881   0.627   0.371  19.182 -0.5473  0.2513 -0.1467
 5229TIP3    H139882   0.609   0.454  19.138 -0.9403  0.0019 -0.4656
 5229TIP3    H239883   0.659   0.396  19.268 -0.5637  0.7359 -0.2788
 5230TIP3   OH239884   2.495   4.332  19.480  0.4449 -0.0444 -0.1028
 5230TIP3    H139885   2.433   4.281  19.532 -1.0798  0.6231 -1.1875
 5230TIP3    H239886   2.514   4.409  19.535  0.4737 -0.3405  0.3092
 5231TIP3   OH239887   3.168   3.485  18.697  0.3536 -0.1777  0.0776
 5231TIP3    H139888   3.115   3.524  18.628  0.9992 -0.7171 -0.7441
 5231TIP3    H239889   3.159   3.391  18.684  0.5569 -0.2853  0.6751
 5232TIP3   OH239890   6.059   2.653  18.301  0.0753 -0.8374 -0.1488
 5232TIP3    H139891   6.006   2.664  18.222 -2.4510  1.7939  1.6469
 5232TIP3    H239892   6.123   2.725  18.297 -1.8397  1.0911  1.2870
 5233TIP3   OH239893   3.998   6.476  17.225  0.2730 -0.0025 -0.2033
 5233TIP3    H139894   4.052   6.404  17.260 -1.8885 -0.8164  1.8109
 5233TIP3    H239895   4.003   6.544  17.293 -0.4290  0.3090 -0.4618
 5234TIP3   OH239896   3.307   4.729  18.036 -0.0258 -0.6316  0.0489
 5234TIP3    H139897   3.359   4.753  17.959  0.5664 -2.3472 -0.1097
 5234TIP3    H239898   3.274   4.642  18.017 -1.1392 -0.4647  1.1114
 5235TIP3   OH239899   5.784   0.489  18.868  0.1756  0.3298  0.0234
 5235TIP3    H139900   5.839   0.444  18.931  0.4076  0.5810  0.0013
 5235TIP3    H239901   5.845   0.532  18.809  0.0074  2.5879  1.3824
 5236TIP3   OH239902   1.295   6.243  19.390  0.4393 -0.5003 -0.2796
 5236TIP3    H139903   1.223   6.242  19.327  0.3983 -0.9941 -0.2231
 5236TIP3    H239904   1.276   6.318  19.446 -2.0236 -2.6622  2.0314
 5237TIP3   OH239905   0.855   1.018  18.212  0.2776 -0.2362 -0.0098
 5237TIP3    H139906   0.941   1.058  18.221 -0.0275  0.6087 -0.7299
 5237TIP3    H239907   0.795   1.092  18.201 -0.8957 -0.6212  2.8883
 5238TIP3   OH239908   1.410   4.301  19.645  0.0753 -0.5089  0.3621
 5238TIP3    H139909   1.434   4.393  19.629  1.4040 -0.5529  1.8085
 5238TIP3    H239910   1.457   4.253  19.577 -0.3512 -0.1573 -0.1932
 5239TIP3   OH239911   5.857   3.049  17.732  0.1950  0.6472  0.7080
 5239TIP3    H139912   5.866   3.078  17.642  0.7255 -1.7897 -0.1039
 5239TIP3    H239913   5.867   2.953  17.728 -1.7418  0.2294  3.0727
 5240TIP3   OH239914   5.529   2.367  19.699 -0.3858 -0.5638 -0.4359
 5240TIP3    H139915   5.549   2.372  19.605 -0.4751 -0.7533 -0.4678
 5240TIP3    H239916   5.509   2.457  19.724 -0.5852 -0.5441 -0.6527
 5241TIP3   OH239917   3.071   4.518  18.991  1.1073 -0.0186 -0.6594
 5241TIP3    H139918   3.044   4.575  18.919 -0.1732  0.3910  0.1126
 5241TIP3    H239919   3.166   4.530  18.997  0.8670  2.2402 -0.3816
 5242TIP3   OH239920   1.327   5.431  16.355  0.0001 -0.5729 -0.3713
 5242TIP3    H139921   1.300   5.478  16.434 -0.8778 -0.1677 -0.8933
 5242TIP3    H239922   1.422   5.430  16.358  0.0079  0.6103  0.0128
 5243TIP3   OH239923   3.253   4.825  19.774  0.4511  0.1252  0.3158
 5243TIP3    H139924   3.331   4.771  19.761  0.3792  0.6575 -3.5883
 5243TIP3    H239925   3.181   4.762  19.780  0.8745 -0.3028  1.0045
 5244TIP3   OH239926   1.112   1.516  17.651 -0.1256 -0.0369 -0.3834
 5244TIP3    H139927   1.075   1.428  17.647  1.5098 -0.7590 -0.4699
 5244TIP3    H239928   1.049   1.567  17.703  0.8122 -2.2960  3.3224
 5245TIP3   OH239929   6.255   3.327  19.843  0.0852 -0.1977 -0.4603
 5245TIP3    H139930   6.309   3.305  19.767  1.3374  0.3130  0.2536
 5245TIP3    H239931   6.253   3.423  19.843 -0.7010 -0.2142 -0.3917
 5246TIP3   OH239932   2.324   5.129  19.681  0.4637  0.2929 -0.4657
 5246TIP3    H139933   2.269   5.187  19.628  1.6844  1.8050 -0.1554
 5246TIP3    H239934   2.395   5.104  19.622 -1.0134 -2.5224 -1.2080
 5247TIP3   OH239935   6.558   2.404  18.358  0.2918  0.2001  0.1038
 5247TIP3    H139936   6.554   2.314  18.325  2.3889  0.6580 -1.6138
 5247TIP3    H239937   6.552   2.458  18.279 -0.1779  1.5562  1.0482
 5248TIP3   OH239938   0.815   1.331  18.124  0.0363  0.2547  0.6229
 5248TIP3    H139939   0.790   1.328  18.031 -1.6345  0.1556  1.0367
 5248TIP3    H239940   0.903   1.295  18.126  1.4530  3.1856 -1.3196
 5249TIP3   OH239941   4.057   5.986  17.960 -0.0280 -0.1923 -0.2257
 5249TIP3    H139942   4.011   6.055  18.009  0.5420  0.7209 -0.9347
 5249TIP3    H239943   4.008   5.978  17.878 -0.8899 -1.6109  0.3844
 5250TIP3   OH239944   2.441   0.733  17.078 -0.1186 -0.0397  0.2533
 5250TIP3    H139945   2.424   0.643  17.050  1.0263 -0.2288  0.1189
 5250TIP3    H239946   2.536   0.742  17.073 -0.3133  1.6781 -1.2677
 5251TIP3   OH239947   3.569   1.606  16.938 -0.0509  1.0395 -0.1532
 5251TIP3    H139948   3.570   1.683  16.881  2.0889 -0.0493 -1.7362
 5251TIP3    H239949   3.490   1.558  16.913 -1.0091  2.3172  0.3348
 5252TIP3   OH239950   3.724   3.152  18.756 -0.0059  0.7456  0.8104
 5252TIP3    H139951   3.677   3.100  18.822 -0.9879 -1.2067 -1.3088
 5252TIP3    H239952   3.811   3.112  18.752  0.0872  0.9286  0.9514
 5253TIP3   OH239953   1.226   5.544  18.549 -0.4124  0.0844 -0.2425
 5253TIP3    H139954   1.254   5.494  18.472 -2.1040 -3.5003  1.2325
 5253TIP3    H239955   1.130   5.539  18.547 -0.5527  1.3032  1.2707
 5254TIP3   OH239956   4.643   2.799  17.525 -0.3640 -0.2747 -0.3176
 5254TIP3    H139957   4.641   2.894  17.535 -3.2964 -0.0045 -2.2692
 5254TIP3    H239958   4.561   2.769  17.563  0.0052 -1.9157 -0.7330
 5255TIP3   OH239959   1.669   1.820  17.735 -0.1520 -0.3683 -0.0186
 5255TIP3    H139960   1.687   1.914  17.732 -1.1226  0.0904  3.5235
 5255TIP3    H239961   1.578   1.812  17.706 -0.1619 -0.1738 -0.0431
 5256TIP3   OH239962   5.670   2.183  18.412  0.2028 -0.0167 -0.1938
 5256TIP3    H139963   5.746   2.160  18.465  0.6098 -0.5247 -0.9820
 5256TIP3    H239964   5.596   2.143  18.459  0.6258 -0.9543 -0.2951
 5257TIP3   OH239965   0.084   1.502  17.503  0.3929 -0.0722 -0.6678
 5257TIP3    H139966   0.154   1.559  17.533  1.0251 -1.0528 -0.2248
 5257TIP3    H239967   0.121   1.414  17.509 -0.6506 -0.5524 -1.0734
 5258TIP3   OH239968   4.758   5.218  17.735  0.3887 -0.1222 -0.3283
 5258TIP3    H139969   4.796   5.214  17.823 -0.1444  1.1582 -0.0170
 5258TIP3    H239970   4.769   5.309  17.709 -1.5015  0.0391 -0.6607
 5259TIP3   OH239971   3.642   6.385  16.229  0.2732 -0.5554 -0.0561
 5259TIP3    H139972   3.609   6.297  16.246 -1.2739 -0.0184 -0.0933
 5259TIP3    H239973   3.662   6.386  16.136 -1.3900 -0.3704 -0.4323
 5260TIP3   OH239974   3.823   5.708  19.816 -0.5697 -0.0731  0.0489
 5260TIP3    H139975   3.837   5.681  19.907  0.9545  0.5535  0.0330
 5260TIP3    H239976   3.830   5.627  19.766  0.0361 -0.2298  0.3690
 5261TIP3   OH239977   1.826   0.421  17.017 -0.2936 -0.3665 -0.2966
 5261TIP3    H139978   1.851   0.341  17.063 -1.1103 -0.8194 -0.6199
 5261TIP3    H239979   1.905   0.475  17.018 -0.6888  0.3993  3.1847
 5262TIP3   OH239980   3.468   6.074  17.824 -0.2924  0.5904  0.0544
 5262TIP3    H139981   3.487   6.020  17.900  0.2202  1.6734  0.7204
 5262TIP3    H239982   3.442   6.012  17.756  0.1173 -0.4645  0.8364
 5263TIP3   OH239983   1.680   3.080  17.893  0.3885 -0.1333 -0.0799
 5263TIP3    H139984   1.597   3.111  17.929 -0.4249 -2.7134  0.4886
 5263TIP3    H239985   1.733   3.059  17.971  1.5304  1.2584 -0.4358
 5264TIP3   OH239986   3.746   0.821  17.468 -0.0294 -0.6058 -0.3328
 5264TIP3    H139987   3.787   0.865  17.543  0.2733 -1.5504  0.0726
 5264TIP3    H239988   3.750   0.728  17.490 -1.5501 -0.7891 -0.7194
 5265TIP3   OH239989   4.344   0.262  17.072 -0.0475  0.2329  0.1857
 5265TIP3    H139990   4.360   0.177  17.031 -1.3078  0.5621 -1.0775
 5265TIP3    H239991   4.384   0.325  17.011  0.7460  0.5798  1.0356
 5266TIP3   OH239992   0.390   1.231  17.043  0.5256 -0.1529  0.5228
 5266TIP3    H139993   0.469   1.242  16.990  0.7798 -1.7311  0.5299
 5266TIP3    H239994   0.331   1.300  17.012  1.3910  0.1784 -0.4498
 5267TIP3   OH239995   3.543   2.483  17.137  0.2071 -0.1817  0.0322
 5267TIP3    H139996   3.561   2.398  17.097 -2.0861  0.1485 -1.9043
 5267TIP3    H239997   3.590   2.546  17.083 -1.7921  0.1387 -1.4283
 5268TIP3   OH239998   0.188   0.199  17.961 -0.3587 -0.3801  0.3032
 5268TIP3    H139999   0.130   0.123  17.960 -0.2177 -0.6267  2.9720
 5268TIP3    H240000   0.274   0.163  17.986  0.2507  0.3828 -0.6350
 5269TIP3   OH240001   6.162   5.026  16.871 -0.0652 -0.2806  0.1149
 5269TIP3    H140002   6.188   4.999  16.783  3.1262  1.1990  0.4729
 5269TIP3    H240003   6.148   4.944  16.918  0.8361 -1.1594 -1.0710
 5270TIP3   OH240004   6.093   3.914  19.182 -0.4923  0.6820 -0.1059
 5270TIP3    H140005   6.127   3.923  19.271 -0.4518 -2.0119  0.2304
 5270TIP3    H240006   6.168   3.934  19.126 -0.1489  1.0673  0.4736
 5271TIP3   OH240007   1.504   6.260  18.491 -0.1613 -0.2164  0.1345
 5271TIP3    H140008   1.480   6.311  18.569 -0.6883  1.2349 -0.9451
 5271TIP3    H240009   1.443   6.289  18.423  2.3374  1.0556 -1.7592
 5272TIP3   OH240010   1.107   3.045  18.907  0.1617  0.0814 -0.0761
 5272TIP3    H140011   1.109   3.130  18.863  0.0306  0.7804  1.2029
 5272TIP3    H240012   1.116   2.981  18.837  0.0708  1.1448 -1.0893
 5273TIP3   OH240013   5.808   6.211  18.222  0.1314 -0.7793 -0.4667
 5273TIP3    H140014   5.772   6.276  18.161 -0.1405 -1.2954 -0.8566
 5273TIP3    H240015   5.860   6.152  18.167  2.5322  0.5568  0.1950
 5274TIP3   OH240016   6.198   6.011  18.145  0.0897 -0.5365  0.0548
 5274TIP3    H140017   6.275   6.018  18.088  0.0900  0.0364  0.1189
 5274TIP3    H240018   6.127   6.046  18.092 -0.1952 -1.3452 -0.1171
 5275TIP3   OH240019   2.269   5.692  16.309 -0.1740 -0.3671  0.0201
 5275TIP3    H140020   2.258   5.635  16.233 -0.1103 -0.2440 -0.0811
 5275TIP3    H240021   2.307   5.636  16.376  2.7759  0.2184 -0.9965
 5276TIP3   OH240022   2.023   3.196  18.908 -0.4352  0.1093 -0.0573
 5276TIP3    H140023   2.056   3.230  18.825 -0.5500  1.2648  0.3506
 5276TIP3    H240024   1.978   3.116  18.885  1.2673 -0.6723 -0.8395
 5277TIP3   OH240025   0.186   0.731  17.878  0.0645 -0.3406 -0.3541
 5277TIP3    H140026   0.211   0.762  17.965 -1.1105  0.1767 -0.1817
 5277TIP3    H240027   0.090   0.726  17.880  0.0557 -1.1247 -1.3569
 5278TIP3   OH240028   4.942   2.725  19.086  0.1026 -0.1341  0.2173
 5278TIP3    H140029   4.905   2.710  18.999  1.0625  0.0258 -0.2343
 5278TIP3    H240030   5.034   2.699  19.078  0.6820  1.6126  0.6491
 5279TIP3   OH240031   1.126   4.291  19.913  0.2684  0.7836  0.3694
 5279TIP3    H140032   1.139   4.332  19.827  2.3911  0.0697  0.2798
 5279TIP3    H240033   1.207   4.242  19.928  0.1287  1.2254  2.9777
 5280TIP3   OH240034   1.783   3.002  16.462 -0.0310  0.5869  0.0581
 5280TIP3    H140035   1.753   3.081  16.507  0.9924  1.1189 -0.1821
 5280TIP3    H240036   1.703   2.964  16.425 -1.1830 -0.6549  3.4408
 5281TIP3   OH240037   1.105   2.612  17.827  0.4250 -0.4038  0.1596
 5281TIP3    H140038   1.085   2.606  17.921 -2.8071 -1.1045 -0.4767
 5281TIP3    H240039   1.141   2.700  17.816 -1.7216  0.7468  1.6859
 5282TIP3   OH240040   4.048   0.143  18.280  0.0699 -0.2127 -0.4197
 5282TIP3    H140041   4.063   0.127  18.373  2.4559  1.5115 -0.3884
 5282TIP3    H240042   4.005   0.229  18.277  2.4344  1.0575 -0.8650
 5283TIP3   OH240043   4.093   0.855  16.947  0.4699 -0.1729  0.0684
 5283TIP3    H140044   4.037   0.879  16.874 -2.1988 -1.4136  1.5569
 5283TIP3    H240045   4.082   0.926  17.010  0.6556 -0.3845  0.3416
 5284TIP3   OH240046   0.692   3.916  18.021  0.2300 -0.0452 -0.6714
 5284TIP3    H140047   0.754   3.986  17.999 -0.0721 -0.0880 -1.7456
 5284TIP3    H240048   0.648   3.947  18.100  1.0001  0.3878 -0.4014
 5285TIP3   OH240049   3.736   2.380  17.353 -0.2931  0.6172 -0.2161
 5285TIP3    H140050   3.655   2.356  17.399  0.0667  2.4352  1.5342
 5285TIP3    H240051   3.709   2.451  17.294  0.2059  2.2686  1.4522
 5286TIP3   OH240052   0.991   5.927  17.730 -0.7759 -0.5739 -0.3294
 5286TIP3    H140053   1.015   5.912  17.821 -1.4527  1.1410  0.1640
 5286TIP3    H240054   0.958   5.843  17.700 -1.2922 -0.9680  1.2483
 5287TIP3   OH240055   6.611   4.126  19.724  0.4183  0.2188  0.7026
 5287TIP3    H140056   6.696   4.115  19.766  0.5407 -0.6803  0.2490
 5287TIP3    H240057   6.626   4.107  19.632 -0.5816 -1.7947  0.8785
 5288TIP3   OH240058   1.036   3.259  19.094 -0.3935  0.0469  0.4138
 5288TIP3    H140059   1.068   3.270  19.004 -1.1967  0.1043  0.1256
 5288TIP3    H240060   1.029   3.164  19.105  2.1508 -0.1085  1.3176
 5289TIP3   OH240061   0.810   1.911  19.094  0.3514 -0.1605 -0.4222
 5289TIP3    H140062   0.860   1.862  19.159  1.6033  0.3223 -0.9972
 5289TIP3    H240063   0.760   1.975  19.145  0.2487 -0.7001  0.1650
 5290TIP3   OH240064   2.807   3.883  18.748 -0.0705 -0.2909 -0.0354
 5290TIP3    H140065   2.758   3.802  18.737 -0.1613 -0.1267 -0.9223
 5290TIP3    H240066   2.825   3.913  18.659  1.2910 -0.1277  0.2717
 5291TIP3   OH240067   5.762   3.993  17.713 -0.3930  0.3214  0.0777
 5291TIP3    H140068   5.829   3.929  17.689  0.6318  1.8476 -1.3042
 5291TIP3    H240069   5.680   3.951  17.690  0.2300 -0.6522 -0.4446
 5292TIP3   OH240070   0.361   6.187  17.945  0.2901  0.0891 -0.1137
 5292TIP3    H140071   0.402   6.273  17.942 -1.5761  1.0693  0.6578
 5292TIP3    H240072   0.417   6.136  18.003  0.3848  1.4085  1.0122
 5293TIP3   OH240073   6.327   2.070  17.293 -0.0979  0.8297  0.0056
 5293TIP3    H140074   6.301   1.978  17.302 -2.0932  1.3115 -0.5279
 5293TIP3    H240075   6.416   2.073  17.329  0.1919 -1.3924 -0.3955
 5294TIP3   OH240076   3.160   3.780  17.878  0.1592  0.1887  0.1038
 5294TIP3    H140077   3.146   3.687  17.898 -2.6585  0.7711  1.2781
 5294TIP3    H240078   3.206   3.814  17.955  0.3281 -0.0459  0.1068
 5295TIP3   OH240079   3.404   1.036  16.678  0.4866 -0.0463  0.5586
 5295TIP3    H140080   3.319   1.069  16.706  0.1397 -1.1695  0.8831
 5295TIP3    H240081   3.405   0.945  16.707  2.7665  0.5485  2.8065
 5296TIP3   OH240082   1.501   1.697  17.270  0.1647  0.1005  0.4789
 5296TIP3    H140083   1.494   1.698  17.174 -2.4777 -1.9859  0.5166
 5296TIP3    H240084   1.559   1.623  17.289 -1.3281 -1.1182  0.4601
 5297TIP3   OH240085   4.934   3.905  17.104 -0.1931  0.6359 -0.0877
 5297TIP3    H140086   4.950   3.830  17.163 -0.3037  0.2278 -0.5699
 5297TIP3    H240087   4.917   3.978  17.163  1.8336  0.7318  0.4333
 5298TIP3   OH240088   2.512   3.352  19.773  0.2291 -0.1222 -0.8364
 5298TIP3    H140089   2.484   3.260  19.771  2.1472 -0.7404 -0.8707
 5298TIP3    H240090   2.430   3.401  19.774 -0.8560 -1.7833 -2.1679
 5299TIP3   OH240091   1.097   5.843  20.210  0.4176 -1.0821  0.6298
 5299TIP3    H140092   1.158   5.770  20.215  0.0777 -1.4559 -0.3834
 5299TIP3    H240093   1.119   5.899  20.284  2.2297 -1.0222  0.0785
 5300TIP3   OH240094   1.620   0.599  18.330 -0.2822 -0.0054  0.6050
 5300TIP3    H140095   1.616   0.507  18.356 -1.3283  0.4308  2.1138
 5300TIP3    H240096   1.566   0.603  18.251 -0.4280 -0.6456  0.6605
 5301TIP3   OH240097   4.515   4.816  17.348 -0.0812 -0.2928 -0.2836
 5301TIP3    H140098   4.570   4.882  17.390 -0.9797  0.4128 -0.2101
 5301TIP3    H240099   4.550   4.809  17.259  0.5954 -0.3960 -0.0187
 5302TIP3   OH240100   0.634   1.025  17.969  0.2126 -0.4473  0.2728
 5302TIP3    H140101   0.687   1.048  17.893 -0.7856  0.5429 -0.1589
 5302TIP3    H240102   0.590   0.944  17.944  1.0407 -0.9412  0.3972
 5303TIP3   OH240103   1.814   2.674  19.787 -0.0258  0.1335  0.5229
 5303TIP3    H140104   1.890   2.719  19.751 -1.6052  1.9468 -0.7765
 5303TIP3    H240105   1.817   2.587  19.748  2.3525 -0.5356  2.0005
 5304TIP3   OH240106   2.355   0.503  19.472 -0.3501 -0.7295 -0.5028
 5304TIP3    H140107   2.323   0.551  19.549  1.0536 -1.4567  0.5759
 5304TIP3    H240108   2.275   0.480  19.424 -1.1721  0.8930  0.0198
 5305TIP3   OH240109   2.279   4.798  19.531  0.0054  0.8610  0.4876
 5305TIP3    H140110   2.221   4.867  19.498 -1.4814  0.0614  1.3365
 5305TIP3    H240111   2.227   4.718  19.525  1.0746  0.0883  1.1543
 5306TIP3   OH240112   0.126   4.620  18.897 -0.0659  0.6761 -0.5616
 5306TIP3    H140113   0.100   4.712  18.905 -0.1329  0.6232 -0.1576
 5306TIP3    H240114   0.053   4.579  18.850 -0.6244  0.5746  0.3755
 5307TIP3   OH240115   1.241   2.472  18.140 -0.3374  1.0697  0.0771
 5307TIP3    H140116   1.147   2.469  18.118 -0.5046 -0.3001  0.8329
 5307TIP3    H240117   1.251   2.551  18.193 -1.2729  0.7301  0.7920
 5308TIP3   OH240118   5.049   2.162  17.325  0.2882 -0.0384  0.2696
 5308TIP3    H140119   5.071   2.166  17.232 -1.7942  0.5878 -0.2430
 5308TIP3    H240120   5.014   2.074  17.337 -0.8932  0.3874  0.0770
 5309TIP3   OH240121   5.731   4.245  18.724  0.3914 -0.6453  0.1127
 5309TIP3    H140122   5.822   4.224  18.746  0.5164 -1.0828 -0.7700
 5309TIP3    H240123   5.718   4.207  18.637  0.2194  1.8290 -1.0205
 5310TIP3   OH240124   5.850   1.496  16.468  0.6255 -0.2548 -0.3754
 5310TIP3    H140125   5.814   1.407  16.467  1.2371 -0.5161 -1.8662
 5310TIP3    H240126   5.847   1.524  16.376  0.0093  1.4562  0.1412
 5311TIP3   OH240127   2.560   2.214  19.671 -0.0211  0.5438  0.0027
 5311TIP3    H140128   2.505   2.214  19.592 -1.8279  0.3664  1.2028
 5311TIP3    H240129   2.648   2.237  19.639 -0.4457 -0.6412 -2.2058
 5312TIP3   OH240130   4.371   1.336  20.256 -0.2466  0.5216 -0.1095
 5312TIP3    H140131   4.359   1.296  20.170 -0.2079  0.3366 -0.0308
 5312TIP3    H240132   4.342   1.426  20.244  2.6583  1.4155 -1.1195
 5313TIP3   OH240133   0.635   6.469  18.974 -0.3204 -0.3837 -0.4748
 5313TIP3    H140134   0.648   6.402  18.908 -1.6873  0.3674 -1.5721
 5313TIP3    H240135   0.722   6.486  19.010 -0.0456 -3.4029  0.5668
 5314TIP3   OH240136   5.886   2.221  17.167  0.7706  0.2841 -0.0110
 5314TIP3    H140137   5.941   2.294  17.192  0.9441  0.1221  0.0787
 5314TIP3    H240138   5.907   2.205  17.074  1.2414 -0.0981  0.1573
 5315TIP3   OH240139   0.047   1.701  18.328 -0.7168  0.1959 -0.2248
 5315TIP3    H140140   0.080   1.774  18.275 -2.6008  1.8093  0.6896
 5315TIP3    H240141   0.058   1.730  18.418  0.7272 -1.7399  0.2929
 5316TIP3   OH240142   2.776   0.417  17.170 -0.2765 -0.1159  0.5931
 5316TIP3    H140143   2.744   0.500  17.135  1.1038 -0.0544 -0.5755
 5316TIP3    H240144   2.799   0.437  17.261  0.7731  1.0034  0.1111
 5317TIP3   OH240145   1.874   3.560  17.701 -0.6665 -0.0343 -0.4888
 5317TIP3    H140146   1.782   3.541  17.682 -0.8781  0.3595  0.0926
 5317TIP3    H240147   1.894   3.505  17.777 -0.9942  1.2636  0.5772
 5318TIP3   OH240148   2.491   2.672  20.152  0.4422 -0.4593 -0.4254
 5318TIP3    H140149   2.522   2.666  20.062  0.9056  1.1095 -0.3932
 5318TIP3    H240150   2.527   2.595  20.196  1.4617 -0.4372 -1.2138
 5319TIP3   OH240151   2.023   1.697  16.730  0.0854 -0.0015  0.0623
 5319TIP3    H140152   2.049   1.610  16.762  2.1512  0.1332 -1.0314
 5319TIP3    H240153   1.989   1.681  16.642  2.3365  0.4139 -0.9574
 5320TIP3   OH240154   4.956   3.687  19.299  0.4180  0.6663 -0.5843
 5320TIP3    H140155   5.040   3.659  19.335  0.1269  0.6278  0.0982
 5320TIP3    H240156   4.908   3.722  19.375 -0.1825  0.6788 -0.9573
 5321TIP3   OH240157   1.398   5.856  18.186  1.0010  0.1028 -0.3704
 5321TIP3    H140158   1.479   5.906  18.200 -0.0069  1.6316  0.2025
 5321TIP3    H240159   1.338   5.887  18.254 -1.0535  1.2105 -2.5243
 5322TIP3   OH240160   6.334   6.039  19.590 -0.6891 -0.3329  0.2431
 5322TIP3    H140161   6.299   6.090  19.517 -2.2377 -1.2453  0.3080
 5322TIP3    H240162   6.262   6.035  19.654 -0.5141 -2.2666  0.3909
 5323TIP3   OH240163   5.273   2.750  17.697 -0.0791  0.2169 -0.1560
 5323TIP3    H140164   5.243   2.659  17.694 -1.1986  0.5549  0.2496
 5323TIP3    H240165   5.280   2.776  17.605 -1.1010  0.1323 -0.2700
 5324TIP3   OH240166   0.261   5.244  17.508 -0.0379  0.3465  0.4043
 5324TIP3    H140167   0.286   5.308  17.441 -0.2800 -1.6507 -1.6926
 5324TIP3    H240168   0.344   5.207  17.539  0.1367  1.8945  1.9661
 5325TIP3   OH240169   1.090   2.403  19.768 -0.0423  0.1065  0.1088
 5325TIP3    H140170   1.045   2.485  19.746 -3.1937 -1.2328  0.9857
 5325TIP3    H240171   1.135   2.422  19.850 -2.4537  0.5340  1.4402
 5326TIP3   OH240172   5.264   2.615  16.715  0.2748 -0.4027  0.2512
 5326TIP3    H140173   5.357   2.614  16.692  0.4531  0.1875  0.8931
 5326TIP3    H240174   5.222   2.662  16.643  0.6056  0.0956  0.3737
 5327TIP3   OH240175   3.791   5.949  18.304  0.0035  0.0870  0.0617
 5327TIP3    H140176   3.715   5.894  18.288 -0.9855  1.3804  0.1406
 5327TIP3    H240177   3.755   6.035  18.324  1.4807  0.6511  0.4676
 5328TIP3   OH240178   2.329   4.033  19.305 -0.0865 -0.4804  0.3084
 5328TIP3    H140179   2.363   3.955  19.348  0.7780 -0.1396  0.2780
 5328TIP3    H240180   2.398   4.058  19.244  0.0367  0.7845  0.9257
 5329TIP3   OH240181   3.754   1.379  19.632  0.2809  0.5730  0.0577
 5329TIP3    H140182   3.807   1.423  19.698 -0.0687 -0.7737  1.2992
 5329TIP3    H240183   3.664   1.403  19.653 -0.0013 -1.3141  1.3121
 5330TIP3   OH240184   6.428   6.617  17.951 -0.2336  0.1100 -0.5251
 5330TIP3    H140185   6.376   6.626  17.871  0.4864 -0.0424 -1.0133
 5330TIP3    H240186   6.476   6.699  17.957 -0.4490  0.2091 -0.1263
 5331TIP3   OH240187   0.548   3.358  17.971  0.7097 -0.1703  0.3447
 5331TIP3    H140188   0.638   3.385  17.990  0.5303 -0.2674  1.3816
 5331TIP3    H240189   0.551   3.262  17.975  0.6372 -0.1856  0.0252
 5332TIP3   OH240190   1.013   0.276  18.663  0.1656 -0.5863 -0.1360
 5332TIP3    H140191   0.998   0.367  18.638  0.5577 -0.3455  0.4798
 5332TIP3    H240192   1.065   0.281  18.743  0.8577 -1.3603 -0.5214
 5333TIP3   OH240193   3.347   1.816  19.730  0.2577  0.0762  0.4732
 5333TIP3    H140194   3.266   1.866  19.721 -0.5002 -1.3698 -1.5448
 5333TIP3    H240195   3.413   1.868  19.686 -0.5380 -0.5938 -1.6723
 5334TIP3   OH240196   2.897   5.726  18.067 -0.3731  0.1322 -0.4642
 5334TIP3    H140197   2.851   5.657  18.021 -1.4004  0.9411 -0.6930
 5334TIP3    H240198   2.949   5.681  18.134  0.7533 -1.0207 -2.0446
 5335TIP3   OH240199   3.079   3.932  18.809  0.0872 -0.2610 -0.7792
 5335TIP3    H140200   3.057   3.994  18.879 -0.6293 -1.5971  0.2362
 5335TIP3    H240201   2.994   3.905  18.774  0.4263 -0.0467 -1.7913
 5336TIP3   OH240202   0.543   2.832  17.799  0.5925 -0.6469 -0.6120
 5336TIP3    H140203   0.497   2.831  17.883 -1.3224 -0.3430 -1.6087
 5336TIP3    H240204   0.628   2.872  17.819 -0.3029  0.5830  0.9431
 5337TIP3   OH240205   0.061   1.475  17.209  0.0773  0.4710  0.1812
 5337TIP3    H140206   0.139   1.475  17.154 -0.1046  0.2256 -0.0867
 5337TIP3    H240207   0.085   1.524  17.287  1.1226 -1.2028  0.9820
 5338TIP3   OH240208   4.606   4.976  19.098  0.7415  0.1332 -0.1419
 5338TIP3    H140209   4.699   4.974  19.075  1.1679  0.7223  1.4138
 5338TIP3    H240210   4.588   5.067  19.118  0.0527 -0.1112  0.3904
 5339TIP3   OH240211   2.622   3.593  17.111 -0.1698 -0.0330 -0.1431
 5339TIP3    H140212   2.716   3.603  17.097 -0.0655  1.0540  1.1507
 5339TIP3    H240213   2.592   3.539  17.037  1.8589 -2.5211  0.7252
 5340TIP3   OH240214   5.292   3.917  20.386 -0.0901  0.3410  0.0115
 5340TIP3    H140215   5.325   3.835  20.424 -1.1901  0.4990  1.3938
 5340TIP3    H240216   5.365   3.949  20.333  0.7848 -0.9423  0.3742
 5341TIP3   OH240217   5.514   5.348  18.409 -0.5026 -0.3208  0.4540
 5341TIP3    H140218   5.507   5.258  18.379  0.9697  0.0299 -1.1267
 5341TIP3    H240219   5.541   5.341  18.500  1.1570 -1.5077 -0.0899
 5342TIP3   OH240220   5.369   6.427  18.652  0.0232  0.1419  0.0294
 5342TIP3    H140221   5.357   6.522  18.654  1.2634  0.3006  1.1108
 5342TIP3    H240222   5.389   6.403  18.742  1.1788 -0.9423 -0.4850
 5343TIP3   OH240223   4.111   4.831  19.769 -0.1534  0.1019  0.2039
 5343TIP3    H140224   4.123   4.884  19.848  0.5859  1.2608 -0.6533
 5343TIP3    H240225   4.017   4.817  19.763 -0.3200  0.9752  0.6865
 5344TIP3   OH240226   5.890   0.901  20.085 -0.3602  0.1826 -0.2698
 5344TIP3    H140227   5.876   0.828  20.024 -2.8026  0.2859  0.0543
 5344TIP3    H240228   5.822   0.889  20.151  0.4090  1.7188  0.8493
 5345TIP3   OH240229   2.742   5.190  19.852  0.1419 -0.4910 -0.0141
 5345TIP3    H140230   2.673   5.195  19.919 -1.6076  0.2625 -1.7650
 5345TIP3    H240231   2.708   5.129  19.787  1.5460 -0.7691 -0.5114
 5346TIP3   OH240232   1.795   1.654  18.986  0.0500  0.2532 -0.0475
 5346TIP3    H140233   1.863   1.600  19.025 -1.0982  0.2236  2.0520
 5346TIP3    H240234   1.768   1.713  19.056 -1.6496  0.6937 -1.0177
 5347TIP3   OH240235   4.347   0.019  16.935  0.6377 -0.3985  0.0910
 5347TIP3    H140236   4.378   0.001  16.846 -1.2251  0.4785 -0.8075
 5347TIP3    H240237   4.298  -0.060  16.959 -0.6767  0.1635 -0.5859
 5348TIP3   OH240238   6.438   6.225  20.245 -0.4002 -0.0133 -0.2998
 5348TIP3    H140239   6.408   6.243  20.156 -1.2298 -0.1247 -0.0500
 5348TIP3    H240240   6.500   6.152  20.236 -0.3695  0.0723 -0.7978
 5349TIP3   OH240241   0.537   5.623  19.332  0.4471 -0.2977  0.1932
 5349TIP3    H140242   0.567   5.694  19.388 -1.2824  0.1907  0.5335
 5349TIP3    H240243   0.523   5.663  19.247  1.6094 -0.7286 -0.2292
 5350TIP3   OH240244   5.874   2.746  16.761 -0.0742  0.2266 -0.0532
 5350TIP3    H140245   5.785   2.712  16.772 -0.9852  2.9065  1.9248
 5350TIP3    H240246   5.903   2.768  16.849  1.4786  1.9314 -0.9237
 5351TIP3   OH240247   6.582   4.346  17.571 -0.0139 -0.0248  0.0321
 5351TIP3    H140248   6.675   4.351  17.549  0.2675  0.1507  1.1799
 5351TIP3    H240249   6.559   4.255  17.553  0.8413 -0.5415  1.3445
 5352TIP3   OH240250   5.847   4.072  16.419  0.1773  0.1345 -0.1418
 5352TIP3    H140251   5.886   4.136  16.361  1.4673  0.0549  0.6024
 5352TIP3    H240252   5.855   4.110  16.507 -0.0577 -0.5423  0.1839
 5353TIP3   OH240253   0.697   5.073  17.770 -0.0917 -0.2176 -0.1867
 5353TIP3    H140254   0.791   5.088  17.776  0.0701 -0.1561 -2.1448
 5353TIP3    H240255   0.689   4.987  17.727 -0.8737  0.3451 -1.2303
 5354TIP3   OH240256   6.034   3.799  20.219  0.3748  0.1099 -0.0769
 5354TIP3    H140257   6.097   3.798  20.148 -0.1834 -0.1777 -0.5790
 5354TIP3    H240258   6.025   3.891  20.243  3.0810 -0.0251  1.9244
 5355TIP3   OH240259   5.158   4.483  17.693 -0.5564 -0.1450 -0.4274
 5355TIP3    H140260   5.188   4.440  17.613 -1.4702  0.1826 -0.9701
 5355TIP3    H240261   5.160   4.415  17.760  0.2261 -0.4198 -0.7246
 5356TIP3   OH240262   4.486   1.465  19.882  0.1933  0.1252  0.3943
 5356TIP3    H140263   4.572   1.446  19.845  0.1121  1.3897 -0.5018
 5356TIP3    H240264   4.435   1.385  19.868  0.9030 -0.2598 -0.0253
 5357TIP3   OH240265   0.166   4.043  20.094 -0.2061  0.0100  0.0318
 5357TIP3    H140266   0.245   4.052  20.147 -1.7634  0.9717  2.3365
 5357TIP3    H240267   0.151   3.949  20.090  1.2214 -0.2199 -0.7899
 5358TIP3   OH240268   2.879   4.443  17.442  0.0731  0.0581  0.0089
 5358TIP3    H140269   2.964   4.402  17.456 -0.2749 -0.4420  0.6982
 5358TIP3    H240270   2.830   4.425  17.522 -0.3682  1.1248 -0.0070
 5359TIP3   OH240271   1.509   2.804  19.687  0.2163  0.3505  0.2117
 5359TIP3    H140272   1.559   2.777  19.764  0.1882 -0.2607  0.0186
 5359TIP3    H240273   1.466   2.724  19.657 -1.5129  1.0183  0.8343
 5360TIP3   OH240274   0.678   0.800  18.182  0.7192 -0.0476 -0.3514
 5360TIP3    H140275   0.663   0.756  18.099  0.1597  1.3497 -1.0367
 5360TIP3    H240276   0.742   0.868  18.161  1.0755 -0.1066  0.5174
 5361TIP3   OH240277   1.878   6.577  18.570 -0.1207 -0.1801 -0.5616
 5361TIP3    H140278   1.877   6.498  18.625 -0.5989  1.1334  1.4195
 5361TIP3    H240279   1.852   6.546  18.483  0.7533 -2.3739 -0.1210
 5362TIP3   OH240280   6.131   1.535  19.744  0.1456 -0.1833 -0.2924
 5362TIP3    H140281   6.101   1.445  19.757  0.0617 -0.1293 -0.1204
 5362TIP3    H240282   6.057   1.590  19.770  0.2139 -0.0622 -0.3502
 5363TIP3   OH240283   6.587   5.458  17.554  0.3043  0.5009 -0.1963
 5363TIP3    H140284   6.673   5.475  17.516  0.2907  1.3704  0.1517
 5363TIP3    H240285   6.525   5.469  17.482  0.3618  1.2780 -0.1346
 5364TIP3   OH240286   1.377   3.242  17.698  0.3651  0.4981 -0.4915
 5364TIP3    H140287   1.382   3.314  17.761 -0.0407  0.4034 -0.3499
 5364TIP3    H240288   1.463   3.242  17.656  1.0537 -0.1747  0.8654
 5365TIP3   OH240289   0.667   0.062  18.393  0.2499 -0.7651 -0.0170
 5365TIP3    H140290   0.707   0.144  18.363  1.6527 -0.0446  3.3768
 5365TIP3    H240291   0.573   0.075  18.379  0.4475  1.4291  0.3492
 5366TIP3   OH240292   1.265   0.656  17.568 -0.0266  0.2600 -0.0945
 5366TIP3    H140293   1.244   0.640  17.476  0.0393 -1.1422  0.1161
 5366TIP3    H240294   1.191   0.621  17.617  0.5352 -0.2002  0.4417
 5367TIP3   OH240295   4.805   2.690  17.805 -0.6515  0.1595 -0.0629
 5367TIP3    H140296   4.719   2.698  17.845 -1.2830  1.6547 -1.5923
 5367TIP3    H240297   4.796   2.734  17.720  1.2792 -0.7384 -0.7887
 5368TIP3   OH240298   3.506   3.485  18.177  0.2357  0.2206  0.8327
 5368TIP3    H140299   3.602   3.494  18.179  0.3176 -0.3909  0.1428
 5368TIP3    H240300   3.480   3.493  18.269  0.8481  1.3526  0.9375
 5369TIP3   OH240301   4.451   4.672  17.944  0.2410 -0.1908  0.3375
 5369TIP3    H140302   4.427   4.584  17.915  1.8623 -0.6299  0.2307
 5369TIP3    H240303   4.511   4.703  17.877  0.6075  0.5220  0.9875
 5370TIP3   OH240304   4.238   0.963  18.333  0.8270 -0.2296  0.0154
 5370TIP3    H140305   4.302   1.014  18.284  0.0488  1.0229  0.2621
 5370TIP3    H240306   4.179   0.928  18.267  1.8402 -1.5462 -0.2320
 5371TIP3   OH240307   3.508   3.838  17.232 -0.5417 -0.5452 -0.4907
 5371TIP3    H140308   3.465   3.755  17.211 -1.7794  0.7777 -3.7954
 5371TIP3    H240309   3.445   3.904  17.205  1.1520  1.5022  0.3506
 5372TIP3   OH240310   4.218   3.167  18.309 -0.3873  0.2697  0.4533
 5372TIP3    H140311   4.127   3.151  18.331 -0.4537 -0.0981 -0.0934
 5372TIP3    H240312   4.216   3.229  18.236 -0.2293 -0.4394 -0.1648
 5373TIP3   OH240313   1.522   2.800  17.627  0.4781  0.1444  0.2960
 5373TIP3    H140314   1.512   2.707  17.648  1.9348 -0.1894 -0.3863
 5373TIP3    H240315   1.524   2.803  17.531  0.2771  0.9036  0.3094
 5374TIP3   OH240316   4.900   5.018  20.019 -0.2256 -0.1613  0.5271
 5374TIP3    H140317   4.849   4.938  20.010 -0.7929  0.1913  0.5169
 5374TIP3    H240318   4.923   5.021  20.112 -1.6572  0.5064  0.8957
 5375TIP3   OH240319   0.803   0.595  16.597  0.4553  0.4252 -0.1495
 5375TIP3    H140320   0.735   0.629  16.539  0.2267 -0.9473 -0.7265
 5375TIP3    H240321   0.827   0.669  16.651 -1.4250  0.9853 -0.0035
 5376TIP3   OH240322   6.374   3.270  19.602 -0.3436  0.5376  0.1904
 5376TIP3    H140323   6.280   3.268  19.585 -0.5025 -0.8528  1.0112
 5376TIP3    H240324   6.409   3.334  19.540 -1.8916  1.4714  0.2307
 5377TIP3   OH240325   2.002   1.235  17.662  0.2425  0.3410 -0.6211
 5377TIP3    H140326   1.958   1.214  17.744  0.3071  0.4197 -0.5666
 5377TIP3    H240327   2.077   1.175  17.659 -0.0799 -0.0566 -0.8968
 5378TIP3   OH240328   0.243   1.567  17.943 -0.0572 -0.1539 -0.2775
 5378TIP3    H140329   0.321   1.538  17.895  0.7067 -1.6807  1.7467
 5378TIP3    H240330   0.222   1.652  17.905 -0.3386 -1.7554 -4.1982
 5379TIP3   OH240331   4.445   1.048  20.373 -0.0663  0.1934 -0.0429
 5379TIP3    H140332   4.383   1.118  20.349 -1.5087 -0.9596  0.1817
 5379TIP3    H240333   4.434   0.983  20.303 -1.6720 -1.5728  1.7346
 5380TIP3   OH240334   1.295   0.665  19.230  0.4377 -0.2226 -0.1065
 5380TIP3    H140335   1.375   0.683  19.279  0.0888 -0.3055  0.5002
 5380TIP3    H240336   1.231   0.640  19.297  0.3647 -1.8328 -0.7241
 5381TIP3   OH240337   4.717   5.954  17.732 -0.1574 -0.1350 -0.2440
 5381TIP3    H140338   4.741   6.015  17.802 -0.9951  0.1245 -0.1650
 5381TIP3    H240339   4.647   5.999  17.685  0.9316  0.0390 -1.7587
 5382TIP3   OH240340   0.669   5.971  20.014  0.1548 -0.3090 -0.3055
 5382TIP3    H140341   0.754   5.927  20.022  1.6192  2.2649 -0.8465
 5382TIP3    H240342   0.612   5.923  20.074  1.7176 -2.6149 -0.4975
 5383TIP3   OH240343   3.670   5.209  18.713 -0.4973  0.1941  0.0274
 5383TIP3    H140344   3.724   5.261  18.653 -0.4591  2.2605  1.7141
 5383TIP3    H240345   3.732   5.153  18.759 -0.0896  0.7747  0.2072
 5384TIP3   OH240346   4.361   2.996  17.501 -0.0853 -0.3247 -0.2082
 5384TIP3    H140347   4.378   2.920  17.557 -1.2214  0.6496  1.5734
 5384TIP3    H240348   4.407   3.068  17.546 -0.4784  0.3666 -0.9070
 5385TIP3   OH240349   2.185   2.286  19.318 -0.1444  0.0121  0.1086
 5385TIP3    H140350   2.190   2.336  19.237  0.9295 -0.4382 -0.1149
 5385TIP3    H240351   2.091   2.276  19.333 -0.3654  0.1237 -1.0659
 5386TIP3   OH240352   0.225   5.956  17.500 -0.5407  0.2020 -0.0497
 5386TIP3    H140353   0.262   5.952  17.588  0.4313  0.0215 -0.4621
 5386TIP3    H240354   0.148   5.899  17.503 -0.1285 -0.3283  0.4989
 5387TIP3   OH240355   1.405   0.404  19.742 -0.3111 -0.0663 -0.2819
 5387TIP3    H140356   1.476   0.417  19.678 -0.6510 -1.5390 -1.0128
 5387TIP3    H240357   1.432   0.327  19.793 -0.0375  1.1050  1.4099
 5388TIP3   OH240358   2.349   0.032  16.612  0.0544 -0.4910 -0.1824
 5388TIP3    H140359   2.328  -0.057  16.582 -0.6331  0.1388 -1.7229
 5388TIP3    H240360   2.264   0.070  16.635  0.1900  0.1498 -0.7106
 5389TIP3   OH240361   3.609   0.629  20.069 -0.4970 -0.2995 -0.2434
 5389TIP3    H140362   3.584   0.677  20.147 -0.9542 -1.0929  0.1135
 5389TIP3    H240363   3.672   0.686  20.024 -1.1129  0.6655  0.0930
 5390TIP3   OH240364   5.569   3.370  16.801  0.8667  0.5957  0.3636
 5390TIP3    H140365   5.619   3.322  16.735  0.2428  0.4236  0.0087
 5390TIP3    H240366   5.619   3.451  16.815  0.8026  0.8145 -0.6067
 5391TIP3   OH240367   1.804   0.646  11.005  0.1396 -0.2632 -0.2494
 5391TIP3    H140368   1.764   0.709  11.066 -0.7541 -0.6719 -0.3947
 5391TIP3    H240369   1.848   0.700  10.940  0.1299  0.1987  0.1253
 5392TIP3   OH240370   2.837   5.567  11.278 -0.0339 -0.1131  0.7683
 5392TIP3    H140371   2.896   5.492  11.283  0.0988 -0.1564 -0.9245
 5392TIP3    H240372   2.838   5.592  11.186  0.2416  2.2418  1.3531
 5393TIP3   OH240373   1.513   2.017  10.929  0.2410 -0.4092 -0.0160
 5393TIP3    H140374   1.544   1.959  10.999 -0.5871  0.0499  0.7581
 5393TIP3    H240375   1.476   1.958  10.864  2.2794 -0.9493 -0.7830
 5394TIP3   OH240376   5.864   4.898  10.441 -0.2456  0.2424 -0.0583
 5394TIP3    H140377   5.926   4.854  10.498 -1.8327 -1.5090  0.4261
 5394TIP3    H240378   5.895   4.989  10.436  1.8032 -0.3632  0.8459
 5395TIP3   OH240379   2.026   2.423   8.655 -0.1531 -0.1163 -0.1010
 5395TIP3    H140380   1.934   2.422   8.678  0.0472 -0.8565  0.7279
 5395TIP3    H240381   2.072   2.411   8.738  0.6675 -0.4428 -0.5808
 5396TIP3   OH240382   2.816   1.377   8.634  0.1662  0.7821 -0.0314
 5396TIP3    H140383   2.747   1.339   8.580  0.3689 -1.3865  1.1202
 5396TIP3    H240384   2.884   1.403   8.571 -0.1218 -0.5298 -0.9227
 5397TIP3   OH240385   5.000   1.167   9.779 -0.1611  0.1139 -0.3302
 5397TIP3    H140386   4.916   1.121   9.773 -1.6198  2.7281 -1.5280
 5397TIP3    H240387   5.010   1.208   9.693  1.3832  1.4763  0.4622
 5398TIP3   OH240388   1.221   1.496   9.736 -0.0304  0.7643  0.4215
 5398TIP3    H140389   1.270   1.514   9.656 -0.1404  0.9796  0.4035
 5398TIP3    H240390   1.288   1.491   9.804  0.1425 -0.1612  0.1985
 5399TIP3   OH240391   4.799   3.982   8.834 -0.1647 -0.1603  0.2340
 5399TIP3    H140392   4.754   4.037   8.898  1.9739  1.3647  0.5153
 5399TIP3    H240393   4.847   3.918   8.886 -1.0392 -1.0554 -0.0249
 5400TIP3   OH240394   3.411   3.640   9.564  0.0930  0.8373  0.3007
 5400TIP3    H140395   3.362   3.715   9.530  2.4020  2.1264 -0.3961
 5400TIP3    H240396   3.344   3.572   9.576 -1.6400  1.9431 -2.0554
 5401TIP3   OH240397   3.090   3.006  10.694 -0.4547  0.6458 -0.0650
 5401TIP3    H140398   3.102   2.913  10.677  1.2217  0.6535  0.8313
 5401TIP3    H240399   3.016   3.031  10.639 -1.0441 -1.2362 -0.1986
 5402TIP3   OH240400   6.508   2.741   9.919  0.5779 -0.3718  0.0241
 5402TIP3    H140401   6.484   2.652   9.942 -0.9872  0.1601  0.6132
 5402TIP3    H240402   6.444   2.767   9.853  2.1182 -0.2648 -1.4988
 5403TIP3   OH240403   2.679   4.487  10.725 -0.5198 -0.0912  0.7156
 5403TIP3    H140404   2.597   4.484  10.774 -0.6057 -0.9253  0.5447
 5403TIP3    H240405   2.651   4.495  10.633 -0.3760  0.8179  0.7440
 5404TIP3   OH240406   5.600   4.936  10.575 -0.2555  0.0246  0.0656
 5404TIP3    H140407   5.678   4.897  10.535 -0.1572 -0.1402  0.4164
 5404TIP3    H240408   5.540   4.950  10.501  0.7971  1.8848 -0.5005
 5405TIP3   OH240409   5.349   4.311   8.825  0.4550 -0.8342 -1.4395
 5405TIP3    H140410   5.296   4.377   8.780 -1.6639  0.6999  2.7028
 5405TIP3    H240411   5.423   4.361   8.861  0.8941 -1.5160 -1.3859
 5406TIP3   OH240412   3.081   2.705  10.927  0.0916 -0.3018  0.3428
 5406TIP3    H140413   3.101   2.620  10.968 -1.8997 -1.4713 -0.9609
 5406TIP3    H240414   3.007   2.739  10.978 -0.0914 -0.0596 -0.0836
 5407TIP3   OH240415   2.185   2.672   9.112 -0.1887  0.0400  0.2373
 5407TIP3    H140416   2.254   2.620   9.152 -0.5220 -0.5381  0.0769
 5407TIP3    H240417   2.217   2.762   9.115  0.2947 -0.1458  0.7296
 5408TIP3   OH240418   2.949   5.008   9.443 -0.0491  0.3352 -0.2372
 5408TIP3    H140419   3.005   4.955   9.385  0.2998  1.7450 -1.2456
 5408TIP3    H240420   2.962   5.098   9.412 -1.2595  0.9214  0.8968
 5409TIP3   OH240421   1.726   2.988  11.494  0.0560  0.1172  0.6969
 5409TIP3    H140422   1.734   3.083  11.491  0.4324  0.0626 -1.6521
 5409TIP3    H240423   1.641   2.969  11.455 -0.5421 -0.4880  2.2324
 5410TIP3   OH240424   1.024   5.483  10.761  0.1811  0.0943 -0.0107
 5410TIP3    H140425   1.034   5.561  10.816  1.4562  1.1890 -1.6781
 5410TIP3    H240426   1.083   5.498  10.688 -1.2029 -1.4312 -1.5373
 5411TIP3   OH240427   1.753   0.399  11.296 -0.4064 -0.4142 -0.2891
 5411TIP3    H140428   1.779   0.329  11.237 -0.0425 -0.9147  0.4501
 5411TIP3    H240429   1.753   0.359  11.383  0.2534  0.6045  0.2036
 5412TIP3   OH240430   6.031   4.196   8.461 -0.3073 -0.4758 -0.1460
 5412TIP3    H140431   6.052   4.289   8.452  1.2026 -0.7349  0.3809
 5412TIP3    H240432   5.936   4.194   8.470 -0.2362  1.2065  1.7881
 5413TIP3   OH240433   5.049   1.931   9.038 -0.5938  0.2166 -0.1139
 5413TIP3    H140434   5.002   1.971   8.964  0.4836  1.5346 -0.1131
 5413TIP3    H240435   5.004   1.964   9.115 -1.4147 -0.7775 -0.1453
 5414TIP3   OH240436   4.401   1.216   8.793  0.3803 -0.4235  0.0998
 5414TIP3    H140437   4.354   1.259   8.865 -1.1612 -2.4374  0.3811
 5414TIP3    H240438   4.452   1.286   8.753 -2.3588  1.7779  0.2079
 5415TIP3   OH240439   1.929   4.763   8.876 -0.4538  0.0719  0.2929
 5415TIP3    H140440   1.970   4.678   8.894 -1.4666 -0.4557  0.2089
 5415TIP3    H240441   1.868   4.746   8.804 -2.2980  0.3406  1.7223
 5416TIP3   OH240442   2.008   6.176  11.632  0.2898 -0.4205  0.0090
 5416TIP3    H140443   2.013   6.151  11.724 -0.5424 -1.0302 -0.0934
 5416TIP3    H240444   1.984   6.095  11.586  0.7717 -0.1440 -0.7585
 5417TIP3   OH240445   0.080   5.198  11.247 -0.1780 -0.0550  0.1069
 5417TIP3    H140446   0.145   5.131  11.269 -0.2899 -0.5056 -0.9064
 5417TIP3    H240447  -0.002   5.164  11.281  0.1435  0.6851  1.7242
 5418TIP3   OH240448   4.062   1.216  10.437 -0.3840  0.5988  0.4669
 5418TIP3    H140449   4.042   1.154  10.367 -2.1384  0.8514  0.6770
 5418TIP3    H240450   3.990   1.279  10.434  0.0298  1.1815  1.8559
 5419TIP3   OH240451   6.424   3.814   9.490  0.2231 -0.1088 -0.1779
 5419TIP3    H140452   6.369   3.881   9.450  1.4228  2.0691  1.5353
 5419TIP3    H240453   6.400   3.815   9.583  0.6739 -1.6700 -0.0170
 5420TIP3   OH240454   3.856   3.363  10.631 -0.6216 -0.0596  0.1555
 5420TIP3    H140455   3.933   3.413  10.607  0.6684 -0.9124  2.2224
 5420TIP3    H240456   3.823   3.406  10.711 -0.8856 -1.0731  0.6157
 5421TIP3   OH240457   4.728   1.895  11.566 -0.0151  1.2637  0.3831
 5421TIP3    H140458   4.813   1.936  11.582  0.2253  1.4872 -1.3244
 5421TIP3    H240459   4.665   1.967  11.568 -0.0779  1.1984  0.9266
 5422TIP3   OH240460   4.527   0.440   8.770 -0.0486  0.5708  0.0546
 5422TIP3    H140461   4.523   0.512   8.833 -1.5059  1.2561 -0.7558
 5422TIP3    H240462   4.493   0.364   8.817 -0.8773  1.0116  0.1867
 5423TIP3   OH240463   1.420   6.161  10.666 -0.0688 -0.2456 -0.0870
 5423TIP3    H140464   1.377   6.193  10.746 -0.7440  1.6536 -1.1440
 5423TIP3    H240465   1.459   6.239  10.627  1.4667 -1.3865 -0.9126
 5424TIP3   OH240466   3.240   1.371  11.479  0.5590  0.7203  0.2169
 5424TIP3    H140467   3.179   1.443  11.467  0.9694  0.9757 -0.3968
 5424TIP3    H240468   3.295   1.398  11.553  0.8078  1.1073 -0.1069
 5425TIP3   OH240469   1.422   1.427  11.129 -0.1702  0.1172 -0.3276
 5425TIP3    H140470   1.421   1.362  11.198  1.2867  1.3748  0.9513
 5425TIP3    H240471   1.508   1.468  11.135 -0.2005  0.6516 -2.5412
 5426TIP3   OH240472   3.413   6.619  10.116  0.3489  0.2009  0.5045
 5426TIP3    H140473   3.339   6.582  10.069 -0.7456  0.9968  1.5366
 5426TIP3    H240474   3.473   6.546  10.129 -0.9751 -0.8269  1.0189
 5427TIP3   OH240475   4.270   2.686  11.803  0.5442 -0.4889  0.0411
 5427TIP3    H140476   4.332   2.752  11.831  0.2469 -0.1079 -0.1845
 5427TIP3    H240477   4.210   2.676  11.877  0.9463 -0.9497  0.3073
 5428TIP3   OH240478   0.726   6.408  11.362 -0.4237  0.5792 -0.0668
 5428TIP3    H140479   0.694   6.408  11.452 -2.0021  1.3181 -0.5990
 5428TIP3    H240480   0.805   6.355  11.365 -0.3662  0.7026  1.7787
 5429TIP3   OH240481   1.139   2.686   8.392  0.5094 -0.2481 -0.3532
 5429TIP3    H140482   1.225   2.649   8.370  1.0836  0.2542  0.9331
 5429TIP3    H240483   1.089   2.612   8.427  0.3169 -0.5972 -1.3464
 5430TIP3   OH240484   1.781   3.527   8.430  0.1979 -0.1111 -0.2623
 5430TIP3    H140485   1.776   3.464   8.359  0.8921 -1.9340  1.2212
 5430TIP3    H240486   1.875   3.548   8.437 -0.1674  2.4891 -1.8214
 5431TIP3   OH240487   2.251   2.955   9.065  0.1491  0.3871  0.7919
 5431TIP3    H140488   2.163   2.991   9.079 -0.2078 -0.3977  0.6159
 5431TIP3    H240489   2.274   2.981   8.976  0.2532  0.9102  0.9683
 5432TIP3   OH240490   5.146   5.663   9.402 -0.0745 -0.8384 -0.4566
 5432TIP3    H140491   5.241   5.664   9.391 -0.1597  1.4603 -1.7527
 5432TIP3    H240492   5.113   5.636   9.316 -0.5683  1.5666 -1.0985
 5433TIP3   OH240493   1.718   0.099  11.121  0.3917  0.3294 -0.4809
 5433TIP3    H140494   1.700   0.052  11.203  0.2083  2.6033  0.8690
 5433TIP3    H240495   1.813   0.110  11.121  0.2242  2.1230  0.5440
 5434TIP3   OH240496   6.299   4.691   9.578  0.5095  0.2609  0.1603
 5434TIP3    H140497   6.308   4.747   9.655  2.2738 -1.0159  0.9529
 5434TIP3    H240498   6.291   4.752   9.505  1.0482  1.5324  1.1138
 5435TIP3   OH240499   3.552   6.110  11.175 -0.2182  0.1174  0.0778
 5435TIP3    H140500   3.585   6.160  11.250 -0.4457  0.0976  0.1913
 5435TIP3    H240501   3.528   6.025  11.213  1.0360 -0.4159 -0.2675
 5436TIP3   OH240502   2.432   4.590  10.251 -0.0978  0.2437 -0.1139
 5436TIP3    H140503   2.343   4.584  10.286  0.3583 -0.5192  1.0084
 5436TIP3    H240504   2.455   4.683  10.257 -0.5681  0.3357  0.2758
 5437TIP3   OH240505   4.133   6.268   9.280 -0.1026  0.3122  0.0726
 5437TIP3    H140506   4.058   6.210   9.265  0.3455 -0.2823  0.0945
 5437TIP3    H240507   4.108   6.319   9.357 -1.4967  1.8429 -1.2934
 5438TIP3   OH240508   2.394   5.373   8.529 -0.0155  0.2145 -0.2004
 5438TIP3    H140509   2.430   5.316   8.597  0.5597  1.1996  0.3503
 5438TIP3    H240510   2.454   5.448   8.526 -1.5790  1.5356  0.1725
 5439TIP3   OH240511   1.410   0.057   9.192 -0.2669 -0.1146  0.1885
 5439TIP3    H140512   1.410   0.015   9.106  1.2657  0.9726 -0.3938
 5439TIP3    H240513   1.317   0.067   9.213 -0.6826 -0.3529 -1.3725
 5440TIP3   OH240514   1.903   4.332  11.745  0.3367 -0.0949  0.5369
 5440TIP3    H140515   1.811   4.314  11.727  0.9664 -1.7284 -1.4950
 5440TIP3    H240516   1.947   4.317  11.661  2.4414  0.8670  1.3929
 5441TIP3   OH240517   5.841   3.209   8.772 -0.4101 -0.0928  0.0849
 5441TIP3    H140518   5.857   3.282   8.831  0.2752 -0.7757  0.7674
 5441TIP3    H240519   5.871   3.240   8.686  2.6392 -0.5086  0.8798
 5442TIP3   OH240520   3.881   3.014  12.247  0.5146 -0.2471 -0.7175
 5442TIP3    H140521   3.798   2.967  12.240 -0.5858  1.0618  2.0176
 5442TIP3    H240522   3.947   2.945  12.246 -0.9197 -1.7914  1.4762
 5443TIP3   OH240523   2.219   5.845  10.650  0.8183 -0.4124 -0.2091
 5443TIP3    H140524   2.293   5.870  10.705  0.4098 -0.0255  0.1722
 5443TIP3    H240525   2.251   5.855  10.560  0.6147  1.6740 -0.0778
 5444TIP3   OH240526   4.827   4.364  10.581 -0.0668 -0.2750  0.3684
 5444TIP3    H140527   4.901   4.376  10.640  0.3670 -0.1732 -0.1922
 5444TIP3    H240528   4.852   4.289  10.526  0.0579  0.3688 -0.4767
 5445TIP3   OH240529   0.368   5.192  11.125 -0.1413 -0.1384 -0.2644
 5445TIP3    H140530   0.322   5.252  11.183 -2.8894 -0.6237 -1.7989
 5445TIP3    H240531   0.354   5.105  11.163 -0.8761 -0.3262 -0.9371
 5446TIP3   OH240532   2.974   4.906   9.072 -0.3306 -0.3787 -0.0708
 5446TIP3    H140533   2.909   4.956   9.121  0.6179  0.7427  0.0930
 5446TIP3    H240534   3.004   4.839   9.134 -2.0417 -1.5978 -0.4879
 5447TIP3   OH240535   4.491   6.491  11.345 -0.2923  0.1584 -0.4804
 5447TIP3    H140536   4.505   6.434  11.269 -0.2245 -1.8184  0.9363
 5447TIP3    H240537   4.578   6.500  11.385 -0.0574  2.3400 -1.3400
 5448TIP3   OH240538   5.633   1.980   9.380 -0.2401  0.1407  0.6647
 5448TIP3    H140539   5.559   2.013   9.330 -1.4168 -0.7729  1.7374
 5448TIP3    H240540   5.694   2.054   9.384 -0.4500  0.4827 -1.3788
 5449TIP3   OH240541   4.889   3.656  11.061 -0.0735 -0.6774 -0.1068
 5449TIP3    H140542   4.878   3.748  11.087  3.0660 -0.4627  0.8302
 5449TIP3    H240543   4.843   3.606  11.128  0.1621  0.1670  0.7039
 5450TIP3   OH240544   4.625   1.222  11.338 -0.4533 -0.3237 -0.1916
 5450TIP3    H140545   4.611   1.159  11.267  1.2050 -1.5458  0.5014
 5450TIP3    H240546   4.652   1.168  11.412 -3.3047  0.7556  1.8250
 5451TIP3   OH240547   4.038   6.378   9.862  0.4676 -0.0495  0.0535
 5451TIP3    H140548   4.104   6.430   9.909 -0.6808  1.7083 -0.1591
 5451TIP3    H240549   3.963   6.375   9.922  0.4962 -1.5198  0.0554
 5452TIP3   OH240550   6.592   6.426   9.119  0.8680 -0.1726  1.0789
 5452TIP3    H140551   6.655   6.476   9.171  2.0055  1.1159 -1.3463
 5452TIP3    H240552   6.646   6.383   9.052 -0.5747 -1.1891  0.5314
 5453TIP3   OH240553   3.045   5.345  11.379  0.1602  0.6444  0.3912
 5453TIP3    H140554   3.005   5.415  11.431  0.8776  1.7200 -0.4585
 5453TIP3    H240555   3.042   5.268  11.437  1.1468  1.8396  2.1369
 5454TIP3   OH240556   3.116   5.437   8.475 -0.2530  0.3195 -0.5540
 5454TIP3    H140557   3.108   5.371   8.544 -0.2102 -0.7209 -1.5231
 5454TIP3    H240558   3.033   5.485   8.479 -1.4560 -1.5721 -1.6009
 5455TIP3   OH240559   0.445   0.037  10.240  0.0326  0.3039 -0.0210
 5455TIP3    H140560   0.395   0.113  10.269  0.6469  0.7873 -0.2101
 5455TIP3    H240561   0.438  -0.025  10.313  0.9442  1.2148  0.8639
 5456TIP3   OH240562   5.125   5.357  11.388 -0.1381  0.4806 -0.2335
 5456TIP3    H140563   5.144   5.408  11.467 -1.4105  0.2671  0.2360
 5456TIP3    H240564   5.069   5.286  11.418  0.3729 -0.3245 -1.1402
 5457TIP3   OH240565   4.258   3.640  10.400  0.5170 -0.3593 -0.7208
 5457TIP3    H140566   4.290   3.633  10.310  0.5233  0.9407 -0.8249
 5457TIP3    H240567   4.330   3.607  10.454  1.1214  0.3405 -1.0976
 5458TIP3   OH240568   4.223   0.991  11.549 -0.3948  0.4083 -0.3103
 5458TIP3    H140569   4.165   0.915  11.557 -0.4170  0.5655  1.2281
 5458TIP3    H240570   4.308   0.953  11.523 -0.7721  0.0236 -1.0165
 5459TIP3   OH240571   6.568   4.582   9.294  0.0218  0.1652  0.2579
 5459TIP3    H140572   6.488   4.634   9.296  0.0709  0.2311  1.7905
 5459TIP3    H240573   6.600   4.590   9.204 -1.0312  1.1413 -0.0492
 5460TIP3   OH240574   6.356   5.017   8.480  0.0073  0.3914  0.3458
 5460TIP3    H140575   6.266   5.025   8.451 -0.1651 -2.1358 -0.0204
 5460TIP3    H240576   6.378   4.925   8.465  2.4923  0.8327  0.8665
 5461TIP3   OH240577   4.464   2.018   8.846 -0.7602  0.0114  1.1272
 5461TIP3    H140578   4.535   2.002   8.908 -1.5954  0.2428  2.1912
 5461TIP3    H240579   4.410   2.085   8.889  0.2902  2.5780 -1.2344
 5462TIP3   OH240580   4.267   6.095   9.118 -0.5166  0.4391 -0.0689
 5462TIP3    H140581   4.238   6.141   9.196  3.5484  1.5364  1.0244
 5462TIP3    H240582   4.275   6.003   9.145 -1.6883  0.3039 -0.1010
 5463TIP3   OH240583   1.679   1.795   9.313  0.2922 -0.9631  0.5083
 5463TIP3    H140584   1.771   1.798   9.289  0.4560 -0.2889  1.1840
 5463TIP3    H240585   1.649   1.886   9.306 -0.1746 -1.0860  0.8368
 5464TIP3   OH240586   5.033   4.971  11.061 -0.1124  0.7499 -0.5780
 5464TIP3    H140587   5.045   4.990  10.968  1.2237 -0.9932 -0.8075
 5464TIP3    H240588   5.074   4.886  11.074  0.6018  1.3695  1.8184
 5465TIP3   OH240589   1.868   1.732  11.641 -0.1826  0.0284  0.0687
 5465TIP3    H140590   1.798   1.771  11.694  0.0861 -1.0742  1.2753
 5465TIP3    H240591   1.947   1.745  11.693  0.4884  0.9840 -1.1457
 5466TIP3   OH240592   4.434   4.510  10.990  0.4739  0.4534 -0.2528
 5466TIP3    H140593   4.413   4.575  10.923 -0.3449 -0.6922 -1.1474
 5466TIP3    H240594   4.530   4.511  10.996  0.5941  0.2457 -1.8019
 5467TIP3   OH240595   5.456   1.195   8.514  0.5043  0.1467 -0.4214
 5467TIP3    H140596   5.510   1.200   8.435 -0.1114 -0.3248 -0.8889
 5467TIP3    H240597   5.492   1.261   8.573 -0.5285  2.2442 -2.0258
 5468TIP3   OH240598   4.042   3.215  11.015  0.4245 -0.0855  0.2894
 5468TIP3    H140599   4.057   3.132  11.060 -1.3441 -1.1607 -0.9966
 5468TIP3    H240600   3.949   3.234  11.030  0.4935  0.9719 -0.5376
 5469TIP3   OH240601   5.947   2.340  11.356  0.2455 -0.4534 -0.4033
 5469TIP3    H140602   5.972   2.396  11.430  0.2725 -2.1357  0.9134
 5469TIP3    H240603   6.011   2.360  11.288  1.7343 -0.6088  0.9020
 5470TIP3   OH240604   4.049   4.858  11.550  0.0989  0.8391  0.0593
 5470TIP3    H140605   4.059   4.829  11.640 -0.5074  0.4467  0.0022
 5470TIP3    H240606   3.993   4.936  11.556 -0.6424  0.3224 -0.0505
 5471TIP3   OH240607   2.672   3.400   9.205 -0.0130  0.3525 -0.3457
 5471TIP3    H140608   2.640   3.427   9.291 -0.5343 -2.0384  0.2830
 5471TIP3    H240609   2.595   3.404   9.148  0.0125  0.6101 -0.3620
 5472TIP3   OH240610   4.339   1.861  10.843  0.3252 -0.3950 -0.5424
 5472TIP3    H140611   4.267   1.867  10.781 -0.2584 -0.5555  0.1074
 5472TIP3    H240612   4.346   1.949  10.880  1.5418  0.0552 -1.7715
 5473TIP3   OH240613   0.842   3.786   9.666 -0.1666  0.2174  0.6279
 5473TIP3    H140614   0.774   3.796   9.733  0.1966  1.4614  0.8285
 5473TIP3    H240615   0.894   3.711   9.697 -1.1135 -0.4239  0.7363
 5474TIP3   OH240616   5.916   6.194  10.006  0.0453 -0.7445  0.3566
 5474TIP3    H140617   5.835   6.147  10.022 -0.4659  0.7599  2.5989
 5474TIP3    H240618   5.889   6.274   9.961  0.2413 -0.1158  1.3462
 5475TIP3   OH240619   2.634   6.326   8.727  0.3608  0.0142 -0.0728
 5475TIP3    H140620   2.684   6.403   8.753 -0.8540  0.7928 -0.0049
 5475TIP3    H240621   2.574   6.357   8.660  1.2870 -1.3201 -1.6259
 5476TIP3   OH240622   0.683   2.611  10.562 -0.6192  0.1344  0.5618
 5476TIP3    H140623   0.607   2.598  10.618 -0.4377  1.9608  1.2927
 5476TIP3    H240624   0.753   2.562  10.605 -1.4852 -2.2695 -0.5550
 5477TIP3   OH240625   1.863   6.565  10.423  0.0466  0.4712  0.0974
 5477TIP3    H140626   1.886   6.491  10.367 -0.3398 -0.1077  0.7034
 5477TIP3    H240627   1.935   6.571  10.486  1.3697  2.1931 -1.4626
 5478TIP3   OH240628   1.205   5.543  11.881 -0.2469 -0.7148  0.1251
 5478TIP3    H140629   1.145   5.522  11.953 -1.1299  0.9998 -0.0438
 5478TIP3    H240630   1.280   5.584  11.925 -0.1992 -0.8552  0.1742
 5479TIP3   OH240631   5.477   3.724  10.408  0.2791 -0.3017 -0.2072
 5479TIP3    H140632   5.446   3.668  10.336  0.3146  1.3697 -1.6149
 5479TIP3    H240633   5.474   3.668  10.485 -0.0365 -2.1110 -1.4535
 5480TIP3   OH240634   2.607   2.766   8.937  1.0108 -0.0592 -0.1100
 5480TIP3    H140635   2.639   2.795   9.022  2.9506 -1.6023 -0.2474
 5480TIP3    H240636   2.628   2.838   8.878  1.0485  0.3951  0.4451
 5481TIP3   OH240637   0.891   5.674  10.154  0.1589  0.1612  0.3461
 5481TIP3    H140638   0.879   5.587  10.193 -0.1097 -0.2668 -0.6573
 5481TIP3    H240639   0.850   5.667  10.068  1.1420  0.9415 -0.1993
 5482TIP3   OH240640   1.360   0.275  10.558  0.1770  0.4739  0.1041
 5482TIP3    H140641   1.427   0.270  10.626  0.3775 -0.4596 -0.1435
 5482TIP3    H240642   1.366   0.191  10.512 -0.7676  0.6099 -0.2975
 5483TIP3   OH240643   3.821   4.871   9.293 -0.1034  0.1672  0.4423
 5483TIP3    H140644   3.882   4.797   9.292 -0.2694  0.0318 -0.0604
 5483TIP3    H240645   3.737   4.833   9.266  0.1595  0.8337 -1.4639
 5484TIP3   OH240646   2.552   6.153  11.214  0.5305 -0.6413 -0.1352
 5484TIP3    H140647   2.471   6.199  11.193 -0.2052 -1.1409  1.4750
 5484TIP3    H240648   2.615   6.223  11.232  0.2839 -0.2553 -0.7361
 5485TIP3   OH240649   0.145   3.552   8.872  0.3761 -0.6945 -0.5152
 5485TIP3    H140650   0.199   3.622   8.835  0.4010 -0.4702 -0.0486
 5485TIP3    H240651   0.200   3.512   8.939 -0.1834 -0.1946  0.2551
 5486TIP3   OH240652   3.507   6.327   9.033 -0.4736  0.3541  0.0197
 5486TIP3    H140653   3.502   6.231   9.034 -0.0546  0.3234  1.1969
 5486TIP3    H240654   3.422   6.355   9.001 -0.7471 -0.4078  0.0469
 5487TIP3   OH240655   2.058   4.065  11.808  0.1472 -0.1098 -0.3434
 5487TIP3    H140656   2.057   3.980  11.851  0.8968 -0.3328 -0.7511
 5487TIP3    H240657   2.148   4.095  11.815  0.0033  0.4153 -0.6593
 5488TIP3   OH240658   4.797   3.312  11.437 -0.1721  0.0369 -0.1733
 5488TIP3    H140659   4.819   3.240  11.378  0.8007 -0.3871  0.6851
 5488TIP3    H240660   4.766   3.269  11.517  1.6002  0.4888  0.8162
 5489TIP3   OH240661   5.179   2.981   9.582 -0.3463 -0.5907  0.3185
 5489TIP3    H140662   5.222   3.019   9.659  0.2010 -0.0765 -0.2325
 5489TIP3    H240663   5.206   2.890   9.583  0.9408 -0.2397 -0.1189
 5490TIP3   OH240664   4.883   3.838   9.696  0.1850  0.0770 -0.1478
 5490TIP3    H140665   4.906   3.770   9.633 -1.5051 -0.7021  0.0169
 5490TIP3    H240666   4.857   3.791   9.775 -1.4847  0.8416 -0.1836
 5491TIP3   OH240667   0.767   4.576   8.353 -0.0956 -0.0179  0.3914
 5491TIP3    H140668   0.799   4.658   8.315  0.0090  0.0936  0.7158
 5491TIP3    H240669   0.677   4.595   8.378 -0.5631 -0.4457 -0.8696
 5492TIP3   OH240670   0.944   5.477  10.395 -0.5034 -0.1772  0.1231
 5492TIP3    H140671   1.024   5.426  10.406 -1.0646 -1.2825 -0.7817
 5492TIP3    H240672   0.886   5.446  10.465 -0.8852 -0.8895 -0.4949
 5493TIP3   OH240673   2.636   4.425  11.133 -0.4408  0.1400 -0.0769
 5493TIP3    H140674   2.705   4.488  11.115 -1.0537  1.5553  2.0525
 5493TIP3    H240675   2.572   4.438  11.063 -0.0974  1.1983 -0.2075
 5494TIP3   OH240676   4.466   4.371   8.601  0.5319  0.3720 -0.0785
 5494TIP3    H140677   4.436   4.303   8.660 -1.4047 -0.8242 -2.2475
 5494TIP3    H240678   4.556   4.348   8.581  0.2711 -0.9122  0.1335
 5495TIP3   OH240679   0.397   4.276  10.819  0.4655  0.0457  0.7120
 5495TIP3    H140680   0.422   4.229  10.898  1.0983  1.1849  1.2070
 5495TIP3    H240681   0.421   4.367  10.836 -0.3217  0.4803 -0.3966
 5496TIP3   OH240682   6.241   6.459  10.297  0.8401 -0.3386 -0.4033
 5496TIP3    H140683   6.154   6.453  10.334  0.5101  0.3548 -1.0253
 5496TIP3    H240684   6.290   6.513  10.358  0.9906 -1.1527  0.2078
 5497TIP3   OH240685   1.881   3.519  10.561 -0.4106 -0.3604 -0.1157
 5497TIP3    H140686   1.873   3.608  10.527  2.3940  0.2062  0.3977
 5497TIP3    H240687   1.839   3.464  10.496  0.8904  1.0788 -2.2977
 5498TIP3   OH240688   0.386   2.117   9.503 -0.1337 -0.2542 -0.2092
 5498TIP3    H140689   0.416   2.208   9.513  1.1311 -0.7933  1.4038
 5498TIP3    H240690   0.321   2.120   9.432 -1.2128  2.1448  0.7956
 5499TIP3   OH240691   1.041   0.147  11.118  0.3874 -0.5207 -0.2141
 5499TIP3    H140692   1.028   0.060  11.081  0.0909 -0.3565 -0.4936
 5499TIP3    H240693   1.132   0.146  11.149  0.8409 -0.4504 -1.5093
 5500TIP3   OH240694   0.057   0.758  10.705  0.2731  0.1061  0.1506
 5500TIP3    H140695   0.006   0.679  10.720  0.4475 -0.6699 -2.7617
 5500TIP3    H240696   0.147   0.727  10.696  0.7956  1.0388  1.6934
 5501TIP3   OH240697   3.954   2.267  10.310 -0.1917  0.0334 -0.4238
 5501TIP3    H140698   3.953   2.336  10.244 -1.0426  0.3397 -0.1139
 5501TIP3    H240699   3.906   2.195  10.269  0.6756 -0.3752 -0.7388
 5502TIP3   OH240700   5.865   1.826   9.246  0.2690  0.0891  0.1750
 5502TIP3    H140701   5.926   1.871   9.305  0.3258  3.8322 -2.4268
 5502TIP3    H240702   5.778   1.853   9.277  0.0515 -1.5674  1.1229
 5503TIP3   OH240703   2.509   6.418  11.857  0.1418  0.3777 -0.0128
 5503TIP3    H140704   2.506   6.477  11.932 -1.6671  1.3700 -0.7925
 5503TIP3    H240705   2.419   6.416  11.824  0.9766  0.5520 -2.5529
 5504TIP3   OH240706   2.868   1.761   9.646 -0.1887  0.0434  0.1205
 5504TIP3    H140707   2.955   1.747   9.609  0.3202 -0.5388  1.4751
 5504TIP3    H240708   2.810   1.705   9.594  0.7071 -1.7120  0.9306
 5505TIP3   OH240709   1.326   3.608   9.568  0.2526  0.4275 -0.8902
 5505TIP3    H140710   1.400   3.587   9.626  0.5208 -1.3250 -1.8053
 5505TIP3    H240711   1.346   3.562   9.486 -1.0699  1.2586 -1.7092
 5506TIP3   OH240712   2.604   5.649  10.022  0.0282 -0.0685 -0.9053
 5506TIP3    H140713   2.678   5.588  10.029 -1.2094 -1.4987  0.8163
 5506TIP3    H240714   2.527   5.592  10.014 -1.0473  1.3329 -0.9524
 5507TIP3   OH240715   0.431   0.937  11.382  0.0933 -0.8737  0.4418
 5507TIP3    H140716   0.434   1.010  11.445 -0.8929 -0.6797  0.2895
 5507TIP3    H240717   0.433   0.859  11.437  0.4768 -0.7262  0.6441
 5508TIP3   OH240718   4.337   4.565   9.579  0.7344  0.2187 -0.3779
 5508TIP3    H140719   4.289   4.621   9.518 -0.1490  0.3123  0.3763
 5508TIP3    H240720   4.410   4.620   9.609  0.4394  0.6263 -0.3912
 5509TIP3   OH240721   5.571   5.147   8.883  0.1951 -0.6669 -0.2119
 5509TIP3    H140722   5.605   5.066   8.923  1.0267 -0.7477 -1.0679
 5509TIP3    H240723   5.572   5.211   8.954  0.8816 -1.0308  0.1153
 5510TIP3   OH240724   1.775   6.247  11.244  0.6719  0.3858  0.0266
 5510TIP3    H140725   1.774   6.159  11.279  0.2332  0.2888 -0.2195
 5510TIP3    H240726   1.800   6.237  11.152 -0.6309  0.3719 -0.3524
 5511TIP3   OH240727   0.317   0.258  10.403 -0.1351  0.2730 -0.0315
 5511TIP3    H140728   0.302   0.343  10.363  0.8568  0.7970  0.6653
 5511TIP3    H240729   0.230   0.231  10.434 -0.4626  1.0233 -0.2601
 5512TIP3   OH240730   4.450   3.187   9.725 -0.6483 -0.6221 -0.5667
 5512TIP3    H140731   4.507   3.111   9.739 -0.3856 -0.4664 -0.7835
 5512TIP3    H240732   4.494   3.237   9.657 -0.5519  0.0000 -0.0544
 5513TIP3   OH240733   2.943   1.562  10.616 -0.2607  0.2879  0.0131
 5513TIP3    H140734   2.889   1.634  10.649 -0.7707  0.2204 -0.6550
 5513TIP3    H240735   2.881   1.491  10.602  0.2373 -0.2904  0.6476
 5514TIP3   OH240736   2.813   3.391   8.411 -0.4199 -0.5693 -0.0397
 5514TIP3    H140737   2.751   3.401   8.483  0.4165  0.2797  0.5877
 5514TIP3    H240738   2.761   3.411   8.333 -0.5679  1.9611  0.6151
 5515TIP3   OH240739   1.909   3.483   9.676 -0.3234 -0.3451 -0.1975
 5515TIP3    H140740   1.860   3.541   9.735 -0.9924 -0.3283 -0.7528
 5515TIP3    H240741   1.984   3.455   9.727 -0.1581  0.7550  0.1975
 5516TIP3   OH240742   3.299   2.096  11.464  0.2620  0.3153 -0.4682
 5516TIP3    H140743   3.294   2.159  11.393 -0.8220  1.1667  0.3162
 5516TIP3    H240744   3.391   2.094  11.489  0.3751  1.3153 -0.7631
 5517TIP3   OH240745   3.295   4.979  20.093  0.2324 -0.2099  0.2506
 5517TIP3    H140746   3.301   5.003  20.001 -0.0840 -0.6977  0.0980
 5517TIP3    H240747   3.313   5.060  20.141 -1.3633  0.4654 -0.2450
 5518TIP3   OH240748   3.543   6.614  11.133  0.0437  0.0698  0.0539
 5518TIP3    H140749   3.485   6.550  11.091 -2.7538  0.6301  2.7458
 5518TIP3    H240750   3.537   6.594  11.226  4.2346  0.2863  0.5286
 5519TIP3   OH240751   4.931   4.775   8.430 -0.2817  0.0888 -0.0587
 5519TIP3    H140752   5.002   4.836   8.452  0.2517 -0.3385 -0.5673
 5519TIP3    H240753   4.856   4.808   8.479  0.2561  0.5705  0.4616
 5520TIP3   OH240754   6.002   4.960   9.766 -0.9387 -0.6330 -0.2399
 5520TIP3    H140755   6.089   4.996   9.786 -1.2303 -0.5573  0.9301
 5520TIP3    H240756   5.943   5.004   9.827 -1.7586 -0.9417 -0.7955
 5521TIP3   OH240757   6.318   6.053   9.416  0.3697 -0.2978 -0.2109
 5521TIP3    H140758   6.296   6.108   9.341 -0.5399  0.5810  0.6560
 5521TIP3    H240759   6.307   6.111   9.492  1.6188 -1.0481  0.5898
 5522TIP3   OH240760   3.365   1.760   9.490 -0.4864 -0.1403 -0.4402
 5522TIP3    H140761   3.436   1.717   9.442  0.6194 -2.5450  2.9471
 5522TIP3    H240762   3.377   1.853   9.473  2.7756 -0.5500 -0.9568
 5523TIP3   OH240763   5.587   3.522  11.440  0.3453  0.1562  0.3594
 5523TIP3    H140764   5.561   3.571  11.362  1.1327 -0.5862 -0.3862
 5523TIP3    H240765   5.589   3.587  11.510  1.3496  1.1862 -0.5959
 5524TIP3   OH240766   3.418   5.847   8.643 -0.3416  0.1691 -0.4426
 5524TIP3    H140767   3.488   5.781   8.646 -0.2827  0.2594  0.2867
 5524TIP3    H240768   3.384   5.841   8.554 -0.4600 -0.9811 -0.3347
 5525TIP3   OH240769   4.049   1.964  10.383  0.2436  0.4830  0.0568
 5525TIP3    H140770   3.989   2.011  10.324 -1.7980  0.0896  1.7049
 5525TIP3    H240771   4.015   1.874  10.385  1.7193 -0.1151  0.0527
 5526TIP3   OH240772   5.222   2.201   9.529 -0.1579  0.1993 -0.7439
 5526TIP3    H140773   5.137   2.245   9.533 -0.8777 -1.2111  0.3207
 5526TIP3    H240774   5.243   2.199   9.436 -1.8108 -0.3179 -1.1560
 5527TIP3   OH240775   0.408   5.894  11.761 -0.4949  0.5961 -0.2548
 5527TIP3    H140776   0.443   5.849  11.838 -2.1971 -0.2538  0.0731
 5527TIP3    H240777   0.482   5.901  11.701  0.0129 -2.1658 -0.0824
 5528TIP3   OH240778   2.657   1.302   8.847  0.4257 -0.0449 -0.1420
 5528TIP3    H140779   2.681   1.364   8.915  0.7831  0.6592 -0.8872
 5528TIP3    H240780   2.723   1.314   8.779  0.9364 -1.7706  0.0018
 5529TIP3   OH240781   6.096   2.740  18.749 -0.0797  0.4616  0.1412
 5529TIP3    H140782   6.173   2.686  18.765  1.1255  2.0559  0.0027
 5529TIP3    H240783   6.048   2.739  18.832  0.2754 -0.2483  0.3439
 5530TIP3   OH240784   0.327   1.614  11.126  0.2205 -0.7698 -0.2706
 5530TIP3    H140785   0.231   1.610  11.126  0.0805  1.4463  0.3019
 5530TIP3    H240786   0.354   1.544  11.185 -1.0453 -1.1884 -0.1516
 5531TIP3   OH240787   4.229   2.725  11.216 -0.0935 -0.6697 -0.4677
 5531TIP3    H140788   4.233   2.630  11.226  1.0918 -0.6879 -0.9894
 5531TIP3    H240789   4.232   2.740  11.122  1.0548 -0.0761 -0.3504
 5532TIP3   OH240790   5.559   1.575  10.380 -0.4399 -0.4567 -0.1424
 5532TIP3    H140791   5.559   1.651  10.438  0.2975 -2.0358  2.0543
 5532TIP3    H240792   5.559   1.612  10.292  0.3115  2.0796  0.8461
 5533TIP3   OH240793   5.279   4.875   8.971 -0.1198  0.2762 -0.2970
 5533TIP3    H140794   5.284   4.947   8.909 -0.3318 -0.9672 -1.8419
 5533TIP3    H240795   5.368   4.839   8.972  0.4005  1.5080  1.7119
 5534TIP3   OH240796   2.495   2.375   9.411 -0.5099 -0.6487 -0.1485
 5534TIP3    H140797   2.571   2.433   9.415 -0.1582 -1.1773  2.2537
 5534TIP3    H240798   2.520   2.308   9.348  0.0502  0.4536 -1.1426
 5535TIP3   OH240799   0.587   2.167   8.466 -0.3465  0.5587  0.0781
 5535TIP3    H140800   0.527   2.192   8.536 -0.8933  0.7600 -0.4507
 5535TIP3    H240801   0.565   2.076   8.447 -0.4802  0.6285 -0.1067
 5536TIP3   OH240802   1.644   5.611  11.183  0.1926 -0.6311  0.0553
 5536TIP3    H140803   1.686   5.543  11.131  0.9805 -0.5272  0.5436
 5536TIP3    H240804   1.716   5.659  11.224 -0.3457  0.4883 -0.2590
 5537TIP3   OH240805   0.220   0.988   8.591  0.3571  0.7005  0.1932
 5537TIP3    H140806   0.303   1.035   8.604  0.1902  0.5491  2.0313
 5537TIP3    H240807   0.157   1.035   8.646 -0.1432 -0.7742  0.9440
 5538TIP3   OH240808   5.479   4.393  10.287  0.4386  0.3693  0.0918
 5538TIP3    H140809   5.560   4.442  10.299  1.2811 -0.5966 -1.2592
 5538TIP3    H240810   5.492   4.312  10.337  0.4642  0.0785 -0.3708
 5539TIP3   OH240811   6.018   2.549  10.328 -0.3736  0.3418 -0.3840
 5539TIP3    H140812   5.982   2.625  10.375 -0.7161 -1.0969  1.8172
 5539TIP3    H240813   6.093   2.521  10.381 -0.2794 -0.8808 -1.1258
 5540TIP3   OH240814   2.356   4.295   9.522  0.2870  0.2251 -0.0113
 5540TIP3    H140815   2.441   4.335   9.541 -0.4642  1.4569  0.8908
 5540TIP3    H240816   2.377   4.204   9.501  1.8461  0.5602 -0.0238
 5541TIP3   OH240817   4.270   5.832  10.402  0.4043 -0.2616 -0.2039
 5541TIP3    H140818   4.303   5.880  10.326  0.6501  0.2415  0.2137
 5541TIP3    H240819   4.176   5.825  10.388 -0.2239  3.2491  1.2731
 5542TIP3   OH240820   2.277   5.487   9.419  0.7165  0.2045  0.4917
 5542TIP3    H140821   2.197   5.492   9.366  1.0853  0.0318 -0.0941
 5542TIP3    H240822   2.288   5.394   9.438  1.2444  0.1239 -0.1692
 5543TIP3   OH240823   0.497   2.522   9.962 -0.5275 -0.1079  0.6488
 5543TIP3    H140824   0.481   2.615   9.947 -0.1989 -0.2242 -0.5601
 5543TIP3    H240825   0.578   2.519  10.012  0.4352  0.2352 -0.8219
 5544TIP3   OH240826   2.786   2.800  10.319 -0.4039 -0.1691  1.1068
 5544TIP3    H140827   2.814   2.763  10.403  2.0837  0.5918  0.7011
 5544TIP3    H240828   2.846   2.764  10.255 -0.5693  1.2981  0.0639
 5545TIP3   OH240829   0.662   2.724   8.182  0.4851  0.8008 -0.3937
 5545TIP3    H140830   0.609   2.646   8.171 -1.1271  1.8913 -0.6451
 5545TIP3    H240831   0.753   2.693   8.175 -0.1306 -0.8651 -1.5232
 5546TIP3   OH240832   0.918   3.417   9.593 -0.1122 -0.8475 -0.0376
 5546TIP3    H140833   0.966   3.491   9.631 -0.9142 -0.5415  0.4206
 5546TIP3    H240834   0.977   3.342   9.602  0.7014 -0.2780 -0.4738
 5547TIP3   OH240835   5.044   2.862  10.660 -0.6192  0.0925 -0.0965
 5547TIP3    H140836   5.066   2.841  10.570 -0.9717  1.1579 -0.4473
 5547TIP3    H240837   5.016   2.779  10.698  0.6857 -0.6036 -0.6060
 5548TIP3   OH240838   1.130   1.435  10.247 -0.0480  0.5973 -0.2867
 5548TIP3    H140839   1.057   1.484  10.285  0.0806  1.4369 -1.0846
 5548TIP3    H240840   1.088   1.369  10.192 -0.2178  1.4800 -1.2369
 5549TIP3   OH240841   3.706   2.763  11.916  0.1576 -0.2005  0.4098
 5549TIP3    H140842   3.660   2.735  11.995  0.8776  0.4435  1.0793
 5549TIP3    H240843   3.697   2.859  11.915 -1.4979 -0.3137 -1.3420
 5550TIP3   OH240844   5.222   5.965   8.985  0.1687 -0.0579 -0.0935
 5550TIP3    H140845   5.236   6.031   9.053 -1.4946  0.6747 -0.3968
 5550TIP3    H240846   5.276   5.993   8.911 -0.5324  0.9911 -0.2214
 5551TIP3   OH240847   3.245   6.240  11.096  0.4717  0.5268 -0.5216
 5551TIP3    H140848   3.274   6.219  11.185  0.9333  1.1257 -0.5197
 5551TIP3    H240849   3.194   6.165  11.069  0.5060  0.2416  0.1753
 5552TIP3   OH240850   1.987   0.796  11.865 -0.2656 -0.2005  0.0058
 5552TIP3    H140851   2.046   0.831  11.799 -1.0460 -1.4880 -1.4389
 5552TIP3    H240852   2.039   0.730  11.911 -0.1857 -0.4565 -0.4383
 5553TIP3   OH240853   3.843   4.325  11.026 -0.5048 -0.0566  0.1793
 5553TIP3    H140854   3.921   4.282  10.990  1.1066  2.1175  0.8733
 5553TIP3    H240855   3.805   4.260  11.085  0.0579 -1.6082 -1.0769
 5554TIP3   OH240856   0.497   1.238   9.412  0.0794 -0.0444  0.3405
 5554TIP3    H140857   0.524   1.325   9.385  0.5976 -0.0709  0.7580
 5554TIP3    H240858   0.402   1.244   9.423  0.1503  0.5362  0.6281
 5555TIP3   OH240859   3.045   6.133  10.729  0.4360 -0.1239 -0.1473
 5555TIP3    H140860   3.137   6.131  10.703  0.6381  0.6517  0.4780
 5555TIP3    H240861   2.999   6.087  10.658  1.2773 -0.3908 -0.5374
 5556TIP3   OH240862   5.558   1.462   9.443  0.7693 -0.6042  0.5823
 5556TIP3    H140863   5.644   1.421   9.430  1.5650  0.6375  1.7345
 5556TIP3    H240864   5.577   1.555   9.455 -1.0467  0.3299 -2.6127
 5557TIP3   OH240865   0.915   0.921  11.039  0.3818  0.1604  0.0519
 5557TIP3    H140866   0.929   0.961  10.953  1.8635  2.6910  1.3513
 5557TIP3    H240867   0.848   0.975  11.080  0.4973 -0.3125  0.8888
 5558TIP3   OH240868   1.345   1.492   8.368  0.9244 -0.2594  0.6657
 5558TIP3    H140869   1.315   1.490   8.277 -1.0117  0.4036  1.2489
 5558TIP3    H240870   1.267   1.473   8.419  2.1107 -1.2154  2.1927
 5559TIP3   OH240871   0.191   1.784  10.407 -0.2948  0.1468 -0.0109
 5559TIP3    H140872   0.238   1.790  10.323  1.3360  3.5445  0.9633
 5559TIP3    H240873   0.201   1.693  10.433  4.5133  0.2128 -0.7102
 5560TIP3   OH240874   6.273   5.493   9.427 -0.7647 -0.0939 -0.2999
 5560TIP3    H140875   6.304   5.583   9.423 -2.7041  0.6403  0.0043
 5560TIP3    H240876   6.212   5.485   9.353 -0.6043 -1.1581 -0.3351
 5561TIP3   OH240877   2.122   0.857  11.163 -0.3674  0.1394 -0.2640
 5561TIP3    H140878   2.032   0.873  11.134 -0.1666  1.2525 -0.3319
 5561TIP3    H240879   2.152   0.942  11.197  0.1060 -0.6268  1.3115
 5562TIP3   OH240880   5.249   0.489   8.861 -0.0544  0.1446 -0.6068
 5562TIP3    H140881   5.333   0.506   8.820  0.2207  1.3653  0.4019
 5562TIP3    H240882   5.253   0.536   8.944 -0.0460 -3.3108  1.5298
 5563TIP3   OH240883   3.395   0.426   9.992 -0.2612  0.2933 -0.1817
 5563TIP3    H140884   3.439   0.345  10.018 -0.6166  0.6543  1.6919
 5563TIP3    H240885   3.327   0.438  10.059 -0.1267  2.2073 -0.3412
 5564TIP3   OH240886   1.494   5.856   8.603  0.4967 -0.2442 -0.3887
 5564TIP3    H140887   1.444   5.936   8.591  1.0624  0.9145  3.4545
 5564TIP3    H240888   1.428   5.791   8.629  0.4840  0.2826  0.9938
 5565TIP3   OH240889   0.681   2.483  10.164  0.3026  0.4244  0.3542
 5565TIP3    H140890   0.738   2.542  10.214  0.6580  1.4614 -1.2212
 5565TIP3    H240891   0.742   2.427  10.114 -0.0458  0.6290 -0.3053
 5566TIP3   OH240892   0.695   1.738  11.145 -0.6075 -0.0901 -0.6617
 5566TIP3    H140893   0.627   1.710  11.083 -0.8111 -0.5950 -0.2133
 5566TIP3    H240894   0.738   1.812  11.101 -0.8706 -0.3239 -1.3259
 5567TIP3   OH240895   5.352   5.569   9.114 -0.0557 -0.7851 -0.2655
 5567TIP3    H140896   5.378   5.616   9.193 -0.1708 -1.4740  0.1910
 5567TIP3    H240897   5.418   5.501   9.103  1.5720  0.9588 -2.3383
 5568TIP3   OH240898   2.628   5.654  11.494 -0.1304 -0.1918 -0.5381
 5568TIP3    H140899   2.666   5.639  11.407 -1.2862 -1.1578 -0.9031
 5568TIP3    H240900   2.701   5.686  11.547  1.2973 -2.2623 -1.1369
 5569TIP3   OH240901   0.792   2.078  10.169  0.0217 -0.6395  0.1209
 5569TIP3    H140902   0.800   2.153  10.110  0.3528  0.1944  1.1931
 5569TIP3    H240903   0.698   2.059  10.170 -0.1702  0.2683  0.4268
 5570TIP3   OH240904   2.347   1.754  10.717 -0.0437 -0.4322  0.5345
 5570TIP3    H140905   2.393   1.693  10.775 -0.4722 -0.7181  0.5829
 5570TIP3    H240906   2.314   1.699  10.646 -1.1923 -0.4189  1.0293
 5571TIP3   OH240907   2.626   6.238   8.989  0.3641 -0.1312 -0.4965
 5571TIP3    H140908   2.637   6.287   8.907  0.8495  1.2198  0.3439
 5571TIP3    H240909   2.653   6.149   8.967  1.0137  0.3256 -1.6665
 5572TIP3   OH240910   0.315   3.647   9.853 -0.3993 -0.0508 -0.3006
 5572TIP3    H140911   0.397   3.647   9.804 -1.1314 -1.1282 -1.5748
 5572TIP3    H240912   0.343   3.644   9.945  0.9838 -0.1406 -0.7002
 5573TIP3   OH240913   0.001   0.294   8.836  0.3057  0.0475  0.0367
 5573TIP3    H140914   0.021   0.373   8.787  0.6838  0.2973  0.5911
 5573TIP3    H240915   0.081   0.241   8.831  0.3860  0.1244  0.4755
 5574TIP3   OH240916   3.170   0.231   8.417 -0.5226 -0.6224 -0.1043
 5574TIP3    H140917   3.228   0.157   8.400  0.6255  0.1452  0.3632
 5574TIP3    H240918   3.193   0.260   8.505 -0.7914  0.4292 -0.3705
 5575TIP3   OH240919   6.261   4.526  11.749  0.3398  0.1300  0.0143
 5575TIP3    H140920   6.332   4.462  11.738  0.0355 -0.5531  1.7498
 5575TIP3    H240921   6.265   4.579  11.670  3.0730  0.3741  0.2034
 5576TIP3   OH240922   0.687   0.379  10.879 -0.1928  0.8177 -0.3512
 5576TIP3    H140923   0.688   0.474  10.895  2.3817  1.5380 -3.7145
 5576TIP3    H240924   0.773   0.348  10.907 -0.2161 -0.0883 -1.2108
 5577TIP3   OH240925   1.472   5.338  11.220  0.3783  0.1990  0.0866
 5577TIP3    H140926   1.536   5.332  11.150  0.1758  0.9275 -0.1795
 5577TIP3    H240927   1.404   5.396  11.184 -1.0289 -1.5027 -0.0976
 5578TIP3   OH240928   3.169   1.777  11.477  0.1954  0.5216  0.1580
 5578TIP3    H140929   3.171   1.861  11.523  0.4493  1.3314 -1.2780
 5578TIP3    H240930   3.159   1.801  11.385  2.3504 -0.9119 -0.5279
 5579TIP3   OH240931   5.702   6.252   8.878  0.4540  0.1675 -0.8169
 5579TIP3    H140932   5.749   6.325   8.919  0.3880  0.3498 -1.0614
 5579TIP3    H240933   5.765   6.180   8.879  0.4095  0.1307 -0.2850
 5580TIP3   OH240934   4.362   2.994   9.295  0.2762  0.2471  0.6845
 5580TIP3    H140935   4.427   2.984   9.365  0.8050 -0.4570  0.1188
 5580TIP3    H240936   4.353   3.088   9.284  1.3404  0.3641  0.6640
 5581TIP3   OH240937   4.289   6.459   9.167 -0.7624  0.3029 -0.2453
 5581TIP3    H140938   4.220   6.403   9.200  0.3887 -0.2990  1.2554
 5581TIP3    H240939   4.278   6.458   9.072 -2.4691 -0.1709 -0.0725
 5582TIP3   OH240940   5.807   1.105  11.360  0.0643 -0.0885  0.3452
 5582TIP3    H140941   5.748   1.181  11.358 -1.2090 -1.0342  0.2996
 5582TIP3    H240942   5.808   1.079  11.452  0.0620 -0.3251  0.2787
 5583TIP3   OH240943   4.627   1.391   9.166 -0.2524  0.4227  0.7198
 5583TIP3    H140944   4.571   1.419   9.093 -0.1932  0.7338  0.7885
 5583TIP3    H240945   4.712   1.430   9.146  0.4032 -1.4214 -0.2425
 5584TIP3   OH240946   5.923   3.582   9.648 -0.3982 -0.4243 -0.1913
 5584TIP3    H140947   5.964   3.663   9.679 -0.9212 -0.2309  0.0094
 5584TIP3    H240948   5.833   3.587   9.680 -0.4937 -0.9896 -0.3583
 5585TIP3   OH240949   2.855   1.636   8.949  0.1082 -0.0323  0.0781
 5585TIP3    H140950   2.800   1.663   8.876  0.6699 -0.4119 -0.4965
 5585TIP3    H240951   2.796   1.590   9.009  0.0310 -1.6950 -1.2032
 5586TIP3   OH240952   1.559   1.751   9.873 -0.2156 -0.2869  0.1822
 5586TIP3    H140953   1.614   1.684   9.832 -0.6110 -0.0777 -0.7139
 5586TIP3    H240954   1.621   1.815   9.907  0.1068  0.7492 -2.1859
 5587TIP3   OH240955   0.521   1.832   9.601 -0.0286 -0.2898  0.6956
 5587TIP3    H140956   0.465   1.820   9.678 -1.7708 -0.4599 -0.5370
 5587TIP3    H240957   0.590   1.766   9.611 -0.1107 -0.1861  2.1860
 5588TIP3   OH240958   2.016   2.114   9.284  0.3343 -0.1488 -0.3780
 5588TIP3    H140959   1.981   2.056   9.352 -0.1408  0.2444 -0.2811
 5588TIP3    H240960   1.939   2.145   9.237  0.6764 -0.5790 -1.2345
 5589TIP3   OH240961   4.807   2.064  10.529 -0.2282 -0.5825  0.0448
 5589TIP3    H140962   4.800   2.041  10.622 -1.0269 -0.3276  0.0551
 5589TIP3    H240963   4.799   2.159  10.527  0.2967 -0.5464 -0.2402
 5590TIP3   OH240964   3.454   4.125  10.717  0.0491 -0.4276 -0.0093
 5590TIP3    H140965   3.363   4.104  10.696  0.2420 -1.8834  0.5437
 5590TIP3    H240966   3.494   4.145  10.632 -0.3881 -1.3674 -0.4505
 5591TIP3   OH240967   5.593   1.388   8.693 -0.3799 -0.1445 -0.0132
 5591TIP3    H140968   5.646   1.447   8.746  1.0917  0.2220 -1.8045
 5591TIP3    H240969   5.586   1.308   8.746  2.2974 -0.3364  0.1668
 5592TIP3   OH240970   6.031   0.694  11.902 -0.3288  0.3299 -0.9897
 5592TIP3    H140971   6.018   0.784  11.871  1.3542  1.1720  0.5800
 5592TIP3    H240972   6.117   0.669  11.868  0.3620  0.3014  0.6886
 5593TIP3   OH240973   5.631   1.802   8.776 -0.1855 -0.5089 -0.2242
 5593TIP3    H140974   5.561   1.740   8.756  1.2867 -2.1621 -0.5167
 5593TIP3    H240975   5.691   1.796   8.701  1.7602 -1.4083  1.3054
 5594TIP3   OH240976   4.967   2.141   8.849  0.6358  0.2015  0.3328
 5594TIP3    H140977   4.970   2.232   8.878 -0.0164  0.3153  0.0646
 5594TIP3    H240978   4.914   2.143   8.769  0.7693 -0.3870  0.2251
 5595TIP3   OH240979   6.222   2.871   8.859 -0.3405 -0.0457  0.0118
 5595TIP3    H140980   6.140   2.919   8.876 -0.1768  0.2767 -0.0979
 5595TIP3    H240981   6.232   2.874   8.764 -0.5494 -0.6714 -0.0349
 5596TIP3   OH240982   4.070   6.418   9.515  0.2321 -0.6254  0.0225
 5596TIP3    H140983   4.028   6.382   9.593  0.0366 -2.1971 -0.7561
 5596TIP3    H240984   4.163   6.419   9.535  0.0292  1.2513  1.1228
 5597TIP3   OH240985   2.747   2.948   8.503 -0.7923 -0.2577  0.1746
 5597TIP3    H140986   2.669   2.912   8.546 -1.1540  1.4549  1.0443
 5597TIP3    H240987   2.820   2.921   8.558 -0.9963 -0.1929  0.4803
 5598TIP3   OH240988   6.540   1.873   9.596  0.5652 -0.4068 -0.4879
 5598TIP3    H140989   6.627   1.831   9.594  0.1117 -1.4001 -0.2028
 5598TIP3    H240990   6.507   1.855   9.683  1.1386  2.3086  0.3822
 5599TIP3   OH240991   5.006   6.301   9.135 -1.2798  0.5285 -0.0027
 5599TIP3    H140992   4.918   6.264   9.131 -1.4807  0.9858  0.1043
 5599TIP3    H240993   4.993   6.389   9.168 -1.0072  1.3937 -2.0526
 5600TIP3   OH240994   4.003   1.721   9.544  0.2638  0.4887  0.4611
 5600TIP3    H140995   3.958   1.798   9.580 -0.4660  0.7503 -0.9188
 5600TIP3    H240996   3.932   1.669   9.507  1.0753  1.1154 -2.1663
 5601TIP3   OH240997   4.790   2.005   9.986  0.5353  0.3200  0.1491
 5601TIP3    H140998   4.717   1.956   9.948  0.2950  0.6268  0.2099
 5601TIP3    H240999   4.804   2.078   9.926  0.4201  0.5787  0.4364
 5602TIP3   OH241000   6.639   2.833   8.687  0.0600 -0.0049  0.5993
 5602TIP3    H141001   6.671   2.804   8.601  1.4239  0.1083  1.0441
 5602TIP3    H241002   6.563   2.777   8.704  0.9450 -1.4042  0.1856
 5603TIP3   OH241003   6.415   3.763  10.667  0.1755 -0.0027 -0.8102
 5603TIP3    H141004   6.467   3.841  10.685  2.0727 -0.7782 -2.5959
 5603TIP3    H241005   6.461   3.692  10.712 -0.9555 -0.2912 -0.0574
 5604TIP3   OH241006   3.899   0.579  10.243  0.3789  0.5599 -0.4522
 5604TIP3    H141007   3.988   0.551  10.261  0.8701  1.5279 -1.3006
 5604TIP3    H241008   3.879   0.545  10.156 -0.6232 -0.8954  0.3109
 5605TIP3   OH241009   6.394   3.450   9.730  0.1518 -0.6262 -0.2432
 5605TIP3    H141010   6.480   3.409   9.738  0.8803  0.9733  0.4633
 5605TIP3    H241011   6.412   3.543   9.718 -1.4461 -0.4443 -1.8343
 5606TIP3   OH241012   1.573   6.200  10.009  0.4615 -0.0002  0.0010
 5606TIP3    H141013   1.559   6.195  10.103  1.8586  0.3121  0.2477
 5606TIP3    H241014   1.486   6.218   9.972 -0.1037 -0.1771  1.2137
 5607TIP3   OH241015   2.787   2.478  10.322 -0.0940 -0.3404  0.5754
 5607TIP3    H141016   2.881   2.484  10.306 -0.0000 -1.9415  0.3299
 5607TIP3    H241017   2.750   2.455  10.237 -0.9711  2.0967  0.2352
 5608TIP3   OH241018   6.241   1.831   9.063  0.1799 -0.3401  0.1280
 5608TIP3    H141019   6.147   1.815   9.061  0.0631  0.3094  0.3775
 5608TIP3    H241020   6.280   1.748   9.033 -0.4184 -0.9727  1.0694
 5609TIP3   OH241021   1.666   2.615   9.299  0.0394 -0.0079 -0.0387
 5609TIP3    H141022   1.636   2.553   9.232 -1.3349 -0.0664  0.6030
 5609TIP3    H241023   1.759   2.626   9.281 -0.0167 -1.0792 -1.1164
 5610TIP3   OH241024   6.473   6.101   8.963 -0.0129  0.5896  0.4456
 5610TIP3    H141025   6.412   6.028   8.951 -0.1474  0.8198 -0.3025
 5610TIP3    H241026   6.517   6.082   9.046  0.5392 -0.7618 -0.1301
 5611TIP3   OH241027   4.891   4.541  10.375 -0.6760  0.2576  0.2371
 5611TIP3    H141028   4.883   4.482  10.450  0.2690  0.6755  0.6807
 5611TIP3    H241029   4.873   4.628  10.410  0.0610  0.4924  0.0505
 5612TIP3   OH241030   0.203   4.660  10.704  0.9532  0.5026  0.7674
 5612TIP3    H141031   0.231   4.575  10.735  0.0209  0.5530  1.7887
 5612TIP3    H241032   0.127   4.682  10.757  0.2206  1.2694 -0.5433
 5613TIP3   OH241033   0.859   0.698  11.450  0.0071 -0.3246  0.3286
 5613TIP3    H141034   0.849   0.605  11.471 -1.7954 -0.5898 -1.3732
 5613TIP3    H241035   0.845   0.743  11.534 -0.8966 -1.5299  0.8655
 5614TIP3   OH241036   0.331   2.074  10.050  0.0839  0.3043  0.6533
 5614TIP3    H141037   0.240   2.085  10.079 -0.7459  0.9840 -1.9131
 5614TIP3    H241038   0.342   2.138   9.979  1.6267 -1.6778 -1.0435
 5615TIP3   OH241039   1.419   6.243   8.790 -0.3469 -0.5116  0.1215
 5615TIP3    H141040   1.349   6.196   8.835 -1.1313  1.2643  0.8670
 5615TIP3    H241041   1.495   6.235   8.848 -1.3557  1.7774  1.9155
 5616TIP3   OH241042   2.747   1.607  10.292  0.5412  0.0005 -0.0307
 5616TIP3    H141043   2.810   1.534  10.289  0.1007 -0.4401  1.1852
 5616TIP3    H241044   2.663   1.566  10.311  0.2319  0.7973  0.3722
 5617TIP3   OH241045   4.077   3.589   8.734  0.4090 -0.0500 -0.0244
 5617TIP3    H141046   4.111   3.664   8.684  1.6807  0.2915  1.2512
 5617TIP3    H241047   3.984   3.588   8.715  0.0949  2.6548  0.8049
 5618TIP3   OH241048   1.986   6.302  10.763 -0.7559 -0.6836  0.4452
 5618TIP3    H141049   1.977   6.390  10.726  1.4963 -0.1923  0.9306
 5618TIP3    H241050   1.945   6.245  10.698 -0.9259  0.5854 -0.6091
 5619TIP3   OH241051   6.298   5.968  10.753  0.3909  0.3640 -0.0434
 5619TIP3    H141052   6.333   6.051  10.721  1.4996  0.9307  2.3623
 5619TIP3    H241053   6.223   5.993  10.807 -0.6217 -0.4202 -1.0576
 5620TIP3   OH241054   0.795   2.610  11.390  0.1449  0.0214  0.3588
 5620TIP3    H141055   0.785   2.519  11.418  0.3696 -0.1940 -0.2637
 5620TIP3    H241056   0.855   2.648  11.455 -0.5323 -0.0682  1.0530
 5621TIP3   OH241057   5.082   2.144  10.698 -0.2380  0.4986 -0.2871
 5621TIP3    H141058   5.072   2.075  10.763 -1.6482  1.2691  0.3759
 5621TIP3    H241059   5.112   2.220  10.748 -1.1291  1.0425 -0.5561
 5622TIP3   OH241060   0.962   1.484   9.483 -0.1455  0.7604  0.2408
 5622TIP3    H141061   0.994   1.574   9.489  0.7248  0.5371 -0.6890
 5622TIP3    H241062   0.989   1.444   9.566 -0.2642  1.2677  0.5314
 5623TIP3   OH241063   1.018   6.052  10.502  0.3398 -0.0289  0.7157
 5623TIP3    H141064   0.957   6.124  10.483  2.3621  1.4732 -0.4280
 5623TIP3    H241065   1.005   5.990  10.430 -1.8479 -1.2170  2.0268
 5624TIP3   OH241066   3.010   6.432   9.753  0.2403 -0.9413  0.4547
 5624TIP3    H141067   3.058   6.349   9.747  0.2034 -0.9342  0.0209
 5624TIP3    H241068   2.928   6.409   9.797  1.1738 -0.7181  2.3681
 5625TIP3   OH241069   2.444   5.593  10.317 -0.1596  0.2325 -0.4020
 5625TIP3    H141070   2.484   5.678  10.300 -1.0547  0.6122 -0.6741
 5625TIP3    H241071   2.432   5.555  10.230 -1.8666  0.8337 -0.4753
 5626TIP3   OH241072   1.060   3.753   9.244 -0.5785 -0.2409  0.6017
 5626TIP3    H141073   1.013   3.836   9.248 -1.0113 -0.4414 -0.0195
 5626TIP3    H241074   1.004   3.692   9.292 -0.4365 -0.2495  0.7554
 5627TIP3   OH241075   2.476   2.233  11.938 -0.3291 -0.0886 -0.7557
 5627TIP3    H141076   2.417   2.240  12.013  3.4304  1.1123  2.3840
 5627TIP3    H241077   2.485   2.139  11.924 -1.5758 -0.3226 -0.1415
 5628TIP3   OH241078   2.045   5.833  11.886 -0.0939  0.2228  0.4326
 5628TIP3    H141079   2.123   5.878  11.856  0.0665 -1.3288 -1.7114
 5628TIP3    H241080   2.077   5.766  11.946  0.0751  0.3305  0.4637
 5629TIP3   OH241081   0.621   3.558  10.858  0.4179  0.7005  0.1719
 5629TIP3    H141082   0.559   3.540  10.787 -3.0926  1.6633  2.7083
 5629TIP3    H241083   0.605   3.488  10.921  2.6470  0.5059  0.5982
 5630TIP3   OH241084   0.607   4.538   9.322 -0.3472  0.3027  0.0687
 5630TIP3    H141085   0.548   4.462   9.322 -1.6792  1.3030 -0.2204
 5630TIP3    H241086   0.605   4.569   9.412 -0.0877  0.2125  0.1056
 5631TIP3   OH241087   0.894   3.619  11.507 -0.2174  0.5138  0.3127
 5631TIP3    H141088   0.886   3.563  11.584  0.2713  1.3532  0.9888
 5631TIP3    H241089   0.838   3.578  11.441 -1.3010  0.2473  1.3739
 5632TIP3   OH241090   1.930   3.538   8.743 -0.5660 -0.0915  0.3150
 5632TIP3    H141091   1.886   3.621   8.759 -2.7578 -0.9881 -0.6915
 5632TIP3    H241092   1.919   3.489   8.825 -0.5699  0.0551  0.4025
 5633TIP3   OH241093   3.455   5.087  11.100  0.7669 -0.8970  0.5150
 5633TIP3    H141094   3.360   5.097  11.092  0.7165 -0.8617  1.1558
 5633TIP3    H241095   3.489   5.129  11.021  0.3101  0.2679  0.9051
 5634TIP3   OH241096   1.348   2.053   9.884  0.1560  1.0296 -0.2593
 5634TIP3    H141097   1.299   2.042   9.965 -1.2342  0.2156 -1.1805
 5634TIP3    H241098   1.296   2.009   9.817  3.4749 -2.5783 -0.8750
 5635TIP3   OH241099   3.541   5.572  11.268 -0.3894  0.8986  0.2277
 5635TIP3    H141100   3.461   5.529  11.239  0.5760 -0.2166 -0.9291
 5635TIP3    H241101   3.611   5.513  11.240  0.8095  1.4371  1.9206
 5636TIP3   OH241102   0.335   5.888  10.900 -0.1804  0.4511  0.2352
 5636TIP3    H141103   0.404   5.910  10.837 -0.6618 -1.5701 -1.0873
 5636TIP3    H241104   0.346   5.951  10.971  0.9283  2.2837 -1.4675
 5637TIP3   OH241105   5.933   0.203  10.772 -0.4432  0.3223 -0.1021
 5637TIP3    H141106   5.899   0.286  10.806  1.0223  0.6320  0.6902
 5637TIP3    H241107   5.970   0.226  10.687 -1.2685  0.1907 -0.5036
 5638TIP3   OH241108   3.997   5.826  10.324  0.5025 -0.6551 -0.4074
 5638TIP3    H141109   3.930   5.866  10.269 -0.1704 -0.4425  0.5542
 5638TIP3    H241110   3.986   5.732  10.310 -0.3097 -0.6394  0.0977
 5639TIP3   OH241111   2.533   5.808  12.204  0.2437 -0.8205  0.3144
 5639TIP3    H141112   2.518   5.871  12.274  0.4487 -0.1563 -0.2277
 5639TIP3    H241113   2.601   5.848  12.150  0.5902 -1.6428  0.1271
 5640TIP3   OH241114   5.009   3.066   8.450  0.1871  0.0268  0.3150
 5640TIP3    H141115   5.050   3.101   8.528  2.3450 -0.1469 -0.6657
 5640TIP3    H241116   4.992   3.142   8.395 -0.8306  0.0934  0.6977
 5641TIP3   OH241117   5.842   3.588   8.194 -0.0656  0.7473  0.1258
 5641TIP3    H141118   5.808   3.655   8.254 -0.3106  1.6524 -0.9957
 5641TIP3    H241119   5.928   3.620   8.168 -0.5183  1.0665 -1.0474
 5642TIP3   OH241120   6.125   5.564   9.189  0.2372  0.2235 -0.1135
 5642TIP3    H141121   6.067   5.515   9.131  0.7384 -2.9181  1.7763
 5642TIP3    H241122   6.209   5.566   9.143  0.3579 -1.3353 -0.0300
 5643TIP3   OH241123   3.870   6.452  12.109  0.4560 -0.1475 -0.2240
 5643TIP3    H141124   3.897   6.484  12.023 -0.9027 -0.6765 -0.8723
 5643TIP3    H241125   3.948   6.411  12.145  1.1219  0.3382 -1.0736
 5644TIP3   OH241126   1.687   0.757   9.059 -0.5041  0.3862  0.3301
 5644TIP3    H141127   1.624   0.829   9.065  0.0065  0.7575  1.9293
 5644TIP3    H241128   1.757   0.782   9.120  0.8645 -0.3351 -0.8895
 5645TIP3   OH241129   1.638   0.835  10.853  0.0999 -0.0094 -0.2722
 5645TIP3    H141130   1.617   0.805  10.765 -0.0162  0.8544 -0.5465
 5645TIP3    H241131   1.724   0.875  10.845  0.4126 -0.5712  0.1675
 5646TIP3   OH241132   0.490   4.937  11.874  0.1798 -0.3571 -0.0586
 5646TIP3    H141133   0.546   4.980  11.809 -2.3156  1.3856 -1.1981
 5646TIP3    H241134   0.445   4.869  11.824 -1.9950  1.2033 -0.3278
 5647TIP3   OH241135   2.123   4.960   8.836  0.5183  0.7262  0.5466
 5647TIP3    H141136   2.048   4.903   8.853  0.5852  0.5817  0.3466
 5647TIP3    H241137   2.083   5.044   8.810  0.3903  1.1381  1.9425
 5648TIP3   OH241138   1.503   5.646   8.925 -0.1848 -0.1047 -0.7152
 5648TIP3    H141139   1.476   5.626   8.835 -0.0444  1.8629 -1.2552
 5648TIP3    H241140   1.433   5.612   8.979 -0.8850 -0.2295 -1.6707
 5649TIP3   OH241141   5.021   5.178  11.556 -0.3888 -0.1609  0.6737
 5649TIP3    H141142   4.929   5.174  11.533 -0.4780  0.9047  0.8138
 5649TIP3    H241143   5.022   5.172  11.652 -0.2765 -0.6928  0.6408
 5650TIP3   OH241144   4.794   0.146  10.467  0.0485 -0.4494 -0.1764
 5650TIP3    H141145   4.722   0.200  10.434  1.1148  0.9877 -0.2303
 5650TIP3    H241146   4.821   0.093  10.392 -1.0365 -1.1212 -0.1109
 5651TIP3   OH241147   4.667   2.953  11.371 -0.5738  0.2891  0.2053
 5651TIP3    H141148   4.710   2.966  11.287  1.5728 -0.9794  1.0047
 5651TIP3    H241149   4.590   2.900  11.352 -0.6229  0.7968 -1.0540
 5652TIP3   OH241150   4.038   5.520  10.731 -0.1465 -0.0172  0.2746
 5652TIP3    H141151   4.081   5.528  10.646  0.8085  0.7413  0.7998
 5652TIP3    H241152   3.994   5.604  10.744 -1.7180 -0.7456 -0.1979
 5653TIP3   OH241153   6.177   0.823  11.046  0.3065  0.0408  0.6527
 5653TIP3    H141154   6.233   0.749  11.069 -1.5127 -1.1779  1.5006
 5653TIP3    H241155   6.088   0.790  11.060 -0.5990  2.1759  0.3313
 5654TIP3   OH241156   3.643   1.402   9.207 -0.5249  0.5816  0.4887
 5654TIP3    H141157   3.679   1.408   9.119 -2.7982  0.4634 -0.5167
 5654TIP3    H241158   3.682   1.476   9.254  2.0886 -0.3584 -0.0114
 5655TIP3   OH241159   5.537   4.399   8.998 -0.0773 -0.0857  0.4299
 5655TIP3    H141160   5.617   4.442   9.027  0.0958 -0.7796  1.0190
 5655TIP3    H241161   5.472   4.418   9.066 -0.5066  0.7156 -0.1854
 5656TIP3   OH241162   6.635   3.152   9.995  0.0818  0.1213  0.1222
 5656TIP3    H141163   6.604   3.129   9.907  0.3430  1.9805 -0.5117
 5656TIP3    H241164   6.633   3.070  10.044 -0.9819 -0.7761 -1.3453
 5657TIP3   OH241165   4.537   3.940  10.874  0.2586 -0.6761  0.1125
 5657TIP3    H141166   4.467   3.998  10.904 -0.3355 -1.3211  0.0055
 5657TIP3    H241167   4.612   3.998  10.859 -0.6605  0.2438 -1.1390
 5658TIP3   OH241168   4.495   5.404   9.286  0.7396  0.1223  0.1377
 5658TIP3    H141169   4.460   5.426   9.372  0.3547  1.0031 -0.2340
 5658TIP3    H241170   4.534   5.485   9.254  1.7410 -0.4399 -0.1246
 5659TIP3   OH241171   4.888   6.349  11.596 -0.4315 -0.1647 -0.6631
 5659TIP3    H141172   4.826   6.335  11.667  0.3872 -0.0050  0.0957
 5659TIP3    H241173   4.900   6.263  11.556 -0.8200 -0.2699 -0.5550
 5660TIP3   OH241174   1.654   2.572  10.898  0.6145  0.2535  0.1947
 5660TIP3    H141175   1.644   2.479  10.917  1.5927  0.1219  0.1177
 5660TIP3    H241176   1.726   2.601  10.954 -0.6807  1.3358  1.3697
 5661TIP3   OH241177   3.423   4.482   9.387  0.0469 -0.2215  0.2040
 5661TIP3    H141178   3.467   4.400   9.364 -0.6208 -0.1461 -1.5548
 5661TIP3    H241179   3.380   4.464   9.470  1.9071 -0.8407  1.0939
 5662TIP3   OH241180   3.859   6.229  10.689 -0.1145  0.0656 -0.3167
 5662TIP3    H141181   3.805   6.248  10.612 -1.9518  0.9900  1.1207
 5662TIP3    H241182   3.854   6.133  10.698 -1.6286  0.1380 -0.1701
 5663TIP3   OH241183   3.718   3.037  11.939  0.1268 -0.6768 -0.3692
 5663TIP3    H141184   3.810   3.064  11.932  0.5812 -2.3438 -1.3970
 5663TIP3    H241185   3.671   3.118  11.962  1.4808  0.8055 -2.4415
 5664TIP3   OH241186   0.319   4.926  10.694  0.4115 -0.7262  0.2415
 5664TIP3    H141187   0.310   4.832  10.680  0.2845 -0.5635 -0.8418
 5664TIP3    H241188   0.405   4.948  10.658  1.8483 -0.8930  3.2112
 5665TIP3   OH241189   0.934   0.291  10.893 -0.1672 -0.1056  0.1542
 5665TIP3    H141190   1.022   0.260  10.913 -1.5281 -3.6576  1.4312
 5665TIP3    H241191   0.934   0.304  10.798  0.7942 -3.8586 -0.5055
 5666TIP3   OH241192   2.273   2.100  10.270 -0.3553 -0.6245 -0.2736
 5666TIP3    H141193   2.253   2.193  10.284 -2.2224 -1.0220 -0.0553
 5666TIP3    H241194   2.195   2.065  10.226  1.1869 -1.6486 -2.3575
 5667TIP3   OH241195   2.619   3.840  10.167 -0.2373  0.5384  0.2010
 5667TIP3    H141196   2.558   3.795  10.226  0.7457 -0.3150  0.6082
 5667TIP3    H241197   2.637   3.776  10.099 -0.8239  1.2703 -0.6519
 5668TIP3   OH241198   0.477   6.140  10.440  0.0023  0.7315  0.2048
 5668TIP3    H141199   0.385   6.142  10.467 -0.3066 -0.8560 -0.6362
 5668TIP3    H241200   0.477   6.185  10.355 -0.1003  0.2498 -0.0533
 5669TIP3   OH241201   4.665   6.387   9.659 -0.1294 -0.1722  0.2353
 5669TIP3    H141202   4.695   6.466   9.614 -0.1378 -0.5285 -0.4039
 5669TIP3    H241203   4.621   6.419   9.738  2.0834  0.3804  1.3260
 5670TIP3   OH241204   4.173   6.350  12.481 -0.3250  1.0292 -0.5121
 5670TIP3    H141205   4.266   6.369  12.469  0.2801  0.1801  2.1155
 5670TIP3    H241206   4.128   6.431  12.455  1.0259  1.2265 -2.4808
 5671TIP3   OH241207   3.318   4.635   9.881 -0.0198 -0.4333 -0.2982
 5671TIP3    H141208   3.399   4.665   9.922 -1.0555  1.3345  0.5617
 5671TIP3    H241209   3.288   4.563   9.936  1.1703 -1.4188 -0.8909
 5672TIP3   OH241210   3.185   1.054   8.293  0.4774  0.0556  0.2102
 5672TIP3    H141211   3.274   1.020   8.291  0.4651 -0.0145  0.7418
 5672TIP3    H241212   3.156   1.042   8.384  0.1600  0.6655  0.1978
 5673TIP3   OH241213   3.614   1.233  10.737 -0.3218 -0.0026 -0.0065
 5673TIP3    H141214   3.527   1.268  10.756 -0.1823  0.1516  0.3657
 5673TIP3    H241215   3.613   1.216  10.643 -0.8300 -0.2165  0.0322
 5674TIP3   OH241216   2.775   4.518   8.540 -0.0766  0.4422  0.5191
 5674TIP3    H141217   2.819   4.463   8.604 -2.3617 -2.3727 -0.1322
 5674TIP3    H241218   2.704   4.560   8.589 -0.4376  0.0763  0.3145
 5675TIP3   OH241219   0.349   1.207  10.339 -0.5467 -0.0233  0.0781
 5675TIP3    H141220   0.268   1.158  10.357 -0.9383  0.4769 -0.2700
 5675TIP3    H241221   0.380   1.234  10.426 -2.9869  3.2698  0.1432
 5676TIP3   OH241222   3.707   3.192  11.605 -0.1032  0.1410 -0.1433
 5676TIP3    H141223   3.787   3.187  11.553 -0.5465  2.5989 -1.1989
 5676TIP3    H241224   3.728   3.253  11.676 -0.4514 -0.7806  0.7792
 5677TIP3   OH241225   4.925   0.758  10.016 -0.3861 -0.1919 -0.0805
 5677TIP3    H141226   4.875   0.816  10.074  0.1204  0.0689  0.1002
 5677TIP3    H241227   4.932   0.676  10.064  1.0094  0.3803  0.7325
 5678TIP3   OH241228   1.696   1.263   9.457 -0.3782 -0.7302  0.0765
 5678TIP3    H141229   1.653   1.209   9.391  0.0836 -0.2449 -0.6299
 5678TIP3    H241230   1.678   1.353   9.430  0.4108 -0.5237  0.2235
 5679TIP3   OH241231   3.299   4.574  10.419  0.6428 -0.3498  0.2164
 5679TIP3    H141232   3.248   4.615  10.490  0.5076  0.2657 -0.2267
 5679TIP3    H241233   3.276   4.481  10.424  0.3625 -0.2581  0.7557
 5680TIP3   OH241234   5.988   3.883  10.057  0.2433  0.7959 -0.2877
 5680TIP3    H141235   6.024   3.795  10.048 -0.2591  0.5246  0.2952
 5680TIP3    H241236   6.018   3.913  10.143  0.0406  1.0153 -0.2921
 5681TIP3   OH241237   2.320   4.260  11.041  0.0614 -0.6755  0.1188
 5681TIP3    H141238   2.242   4.204  11.045  0.3701 -1.1013  0.3003
 5681TIP3    H241239   2.301   4.332  11.100 -1.1089  0.4162 -1.5118
 5682TIP3   OH241240   3.083   3.543  11.407  0.6755 -0.1193 -0.3354
 5682TIP3    H141241   3.153   3.524  11.469 -0.0153 -0.0070  0.5038
 5682TIP3    H241242   3.017   3.475  11.425 -0.9148  1.6938  1.2649
 5683TIP3   OH241243   1.722   6.435   9.666 -0.3769 -0.0553  0.2755
 5683TIP3    H141244   1.790   6.475   9.721 -1.4054  2.0498  0.1207
 5683TIP3    H241245   1.742   6.465   9.577 -0.5514 -0.7926 -0.0158
 5684TIP3   OH241246   4.544   2.340  11.015  0.4898  0.0459  0.1009
 5684TIP3    H141247   4.555   2.408  11.081 -0.9158  0.4277 -0.0199
 5684TIP3    H241248   4.631   2.330  10.976  1.0598  0.6695  1.1706
 5685TIP3   OH241249   6.437   1.221   8.590 -0.2525  0.0287 -0.0527
 5685TIP3    H141250   6.356   1.193   8.633  0.7556 -1.3315  1.0639
 5685TIP3    H241251   6.439   1.316   8.602 -1.3986  0.0047  0.4304
 5686TIP3   OH241252   5.388   2.460   9.410 -0.0655  0.1986 -0.3919
 5686TIP3    H141253   5.338   2.378   9.408  0.9558 -0.4457 -0.3181
 5686TIP3    H241254   5.379   2.496   9.322  0.0347 -0.3450 -0.6317
 5687TIP3   OH241255   3.427   0.942  11.921  0.3774 -0.2208  0.7587
 5687TIP3    H141256   3.455   0.869  11.866  0.9993 -0.0315  0.8220
 5687TIP3    H241257   3.357   0.985  11.870  3.4569  2.3028 -1.8033
 5688TIP3   OH241258   2.297   0.282   9.606  0.2872 -0.2935  0.4087
 5688TIP3    H141259   2.295   0.372   9.639 -0.0537 -0.7760  1.7751
 5688TIP3    H241260   2.217   0.274   9.554  0.4565  0.2675  0.0522
 5689TIP3   OH241261   3.740   1.226   8.650 -0.6662  0.1897  0.0766
 5689TIP3    H141262   3.798   1.301   8.665 -1.8048  0.7747  1.8432
 5689TIP3    H241263   3.783   1.176   8.580  1.6692  0.8906  0.9185
 5690TIP3   OH241264   1.582   6.160  12.239 -0.3789  0.1504  0.4947
 5690TIP3    H141265   1.628   6.119  12.312  1.6891  1.4819  0.0512
 5690TIP3    H241266   1.633   6.239  12.220 -1.5094  0.4553 -1.6337
 5691TIP3   OH241267   0.003   5.198   8.898 -0.2073 -0.2152  0.4119
 5691TIP3    H141268   0.050   5.222   8.818  0.6352  0.9531  1.2098
 5691TIP3    H241269  -0.031   5.111   8.881  2.1288 -1.0835 -0.2948
 5692TIP3   OH241270   1.150   1.415  11.047  0.2325  0.4499  0.3585
 5692TIP3    H141271   1.124   1.497  11.005 -0.9665  1.0829  2.2279
 5692TIP3    H241272   1.245   1.423  11.058  0.2330  1.2572 -0.1515
 5693TIP3   OH241273   5.801   4.783   9.344  0.3290 -0.2582  0.3285
 5693TIP3    H141274   5.861   4.771   9.418  0.5634  0.0175  0.1838
 5693TIP3    H241275   5.720   4.815   9.383 -0.6130 -3.0224  0.8468
 5694TIP3   OH241276   1.844   3.652  11.893  0.1498 -0.5006 -0.1258
 5694TIP3    H141277   1.784   3.581  11.918  0.2794 -0.8686 -0.8431
 5694TIP3    H241278   1.813   3.728  11.944 -0.4240 -0.8873  0.1181
 5695TIP3   OH241279   2.738   4.219   9.101  0.3381  0.1641  0.5409
 5695TIP3    H141280   2.755   4.280   9.172  2.6393  0.5868 -0.2794
 5695TIP3    H241281   2.644   4.229   9.083 -0.2454  0.3031  3.1991
 5696TIP3   OH241282   4.618   4.196   9.452 -0.0908 -0.7380  0.2440
 5696TIP3    H141283   4.646   4.105   9.457  1.2145 -0.4838 -1.4840
 5696TIP3    H241284   4.548   4.196   9.386  0.6781 -0.3426 -0.5857
 5697TIP3   OH241285   3.770   5.967  10.208 -0.3704  0.9888 -0.0580
 5697TIP3    H141286   3.751   6.001  10.120 -0.6310 -0.3568 -0.5505
 5697TIP3    H241287   3.712   5.891  10.218 -1.7099  2.2026  2.0539
 5698TIP3   OH241288   0.346   4.782   8.960 -0.0077  0.2563  0.2033
 5698TIP3    H141289   0.429   4.734   8.956  0.0390  0.4226 -1.2602
 5698TIP3    H241290   0.322   4.796   8.869 -0.8531  1.5943  0.5979
 5699TIP3   OH241291   1.680   0.964  11.440  0.6435  0.1971 -0.2629
 5699TIP3    H141292   1.672   1.026  11.368  0.8458 -1.3709 -1.6918
 5699TIP3    H241293   1.774   0.951  11.450  0.8461  2.6986  2.4204
 5700TIP3   OH241294   3.575   2.062   9.362  0.5997 -0.1110 -0.4955
 5700TIP3    H141295   3.580   2.026   9.451 -0.1183 -2.9732 -1.4982
 5700TIP3    H241296   3.598   1.988   9.306 -1.5706  0.8461 -2.7998
 5701TIP3   OH241297   5.694   6.055  10.048  0.0887  0.1023 -0.0791
 5701TIP3    H141298   5.623   6.107  10.085 -0.5500  0.4285 -1.6741
 5701TIP3    H241299   5.685   5.968  10.088 -2.0371 -0.2425 -1.1669
 5702TIP3   OH241300   6.136   4.164   8.730  0.3440 -0.3516 -0.3130
 5702TIP3    H141301   6.117   4.153   8.637 -0.3005  3.2353 -0.7409
 5702TIP3    H241302   6.050   4.157   8.773 -0.2122  2.6422 -0.6804
 5703TIP3   OH241303   3.091   4.639   9.553 -0.1088 -0.3918  0.5196
 5703TIP3    H141304   3.077   4.583   9.477  1.3126  0.2566 -0.2504
 5703TIP3    H241305   3.055   4.588   9.627 -1.3475 -1.0945 -0.5292
 5704TIP3   OH241306   0.193   4.059  10.943 -0.5184  0.4328 -1.4472
 5704TIP3    H141307   0.171   4.120  11.013  0.3808 -1.4483  0.6016
 5704TIP3    H241308   0.257   4.107  10.890 -0.7590  1.7086 -0.6469
 5705TIP3   OH241309   6.173   1.768  11.384 -0.7685 -0.1008  0.2446
 5705TIP3    H141310   6.113   1.790  11.313 -0.2892 -1.3375 -0.5767
 5705TIP3    H241311   6.219   1.850  11.402 -0.8826  0.2358 -0.8967
 5706TIP3   OH241312   0.265   6.045   9.822  0.0596 -0.4912  0.4739
 5706TIP3    H141313   0.314   6.003   9.751 -0.1400 -1.2826  0.7912
 5706TIP3    H241314   0.225   6.122   9.781 -1.1360 -1.6440 -0.6304
 5707TIP3   OH241315   1.680   4.354   8.418  0.3159  0.7352  0.3030
 5707TIP3    H141316   1.611   4.351   8.484 -0.5030  1.6351 -0.4872
 5707TIP3    H241317   1.694   4.447   8.401  2.2602  0.6068  0.9668
 5708TIP3   OH241318   4.700   3.454   9.691  0.4863  0.4496  0.3522
 5708TIP3    H141319   4.722   3.515   9.620  0.6054  0.3401  0.2968
 5708TIP3    H241320   4.716   3.367   9.655 -1.0149  0.3087 -0.0499
 5709TIP3   OH241321   5.057   2.914  11.261  0.1990  0.2281  0.0566
 5709TIP3    H141322   5.053   2.823  11.289 -0.1862 -0.0529 -0.9089
 5709TIP3    H241323   5.111   2.957  11.329 -2.6168  0.0807  2.6057
 5710TIP3   OH241324   6.662   2.422  10.407 -0.0712 -0.0438 -0.2778
 5710TIP3    H141325   6.583   2.380  10.442 -0.5264  0.5125 -0.6121
 5710TIP3    H241326   6.661   2.400  10.314 -0.0568  0.2993 -0.3608
 5711TIP3   OH241327   1.693   1.125   9.910 -0.2522  0.5191  0.0667
 5711TIP3    H141328   1.613   1.178   9.905  0.8375  2.1112 -1.4161
 5711TIP3    H241329   1.759   1.175   9.862  1.4201 -1.1900  0.4457
 5712TIP3   OH241330   0.394   0.552  10.482 -0.4311  0.3333 -0.4559
 5712TIP3    H141331   0.396   0.600  10.399  0.1564  3.3847  1.1970
 5712TIP3    H241332   0.484   0.553  10.513 -0.4608 -1.6498 -0.1805
 5713TIP3   OH241333   4.910   6.013  11.172 -0.0135  0.6081  0.1073
 5713TIP3    H141334   4.967   5.989  11.100 -1.0162  0.1887 -0.5668
 5713TIP3    H241335   4.845   5.943  11.176 -0.5555  1.1350  0.7701
 5714TIP3   OH241336   2.928   5.585  10.922 -0.1324 -0.0182 -0.3702
 5714TIP3    H141337   2.905   5.557  10.833  0.8785 -0.8450 -0.3958
 5714TIP3    H241338   2.932   5.504  10.972  0.7228  0.2896  0.0785
 5715TIP3   OH241339   4.904   5.336  10.225 -0.4081 -0.2122 -0.2858
 5715TIP3    H141340   4.890   5.317  10.318 -1.1044 -1.8967 -0.6971
 5715TIP3    H241341   4.997   5.359  10.219 -0.4254  0.2295  0.8553
 5716TIP3   OH241342   5.630   5.500   8.389 -0.4858 -0.2419 -0.4621
 5716TIP3    H141343   5.581   5.544   8.459 -1.1299 -0.0236 -1.0447
 5716TIP3    H241344   5.627   5.561   8.316  0.5911 -0.2657 -0.5416
 5717TIP3   OH241345   0.793   4.449  10.399  0.9188  0.6740 -0.0955
 5717TIP3    H141346   0.810   4.359  10.426 -2.2563 -0.3199 -0.9790
 5717TIP3    H241347   0.725   4.480  10.459 -0.4208  1.2496 -1.8234
 5718TIP3   OH241348   5.340   2.736   9.435 -0.2618 -0.1965 -0.3117
 5718TIP3    H141349   5.353   2.807   9.373 -1.0161  0.2919  0.0777
 5718TIP3    H241350   5.386   2.661   9.396 -0.6980  0.1077 -1.4425
 5719TIP3   OH241351   1.294   6.482  10.143  0.1821  0.4005 -0.3878
 5719TIP3    H141352   1.368   6.467  10.203 -0.0850 -0.1279 -0.1911
 5719TIP3    H241353   1.229   6.417  10.168 -0.0968  0.4474 -0.9890
 5720TIP3   OH241354   3.359   2.577  11.044 -0.4069 -0.2053  0.7136
 5720TIP3    H141355   3.405   2.494  11.059  1.3697  0.6710  0.2842
 5720TIP3    H241356   3.427   2.638  11.018 -1.7379  1.3388  0.7244
 5721TIP3   OH241357   2.127   2.158  10.876  0.6075  0.1859 -0.3107
 5721TIP3    H141358   2.033   2.164  10.896  0.1370 -2.3841 -1.3514
 5721TIP3    H241359   2.170   2.168  10.961 -0.8466 -1.9318  0.7941
 5722TIP3   OH241360   5.603   6.181  10.423 -0.2883  0.6182  0.0010
 5722TIP3    H141361   5.597   6.087  10.411 -1.0514  0.5058  1.1025
 5722TIP3    H241362   5.683   6.206  10.376 -0.2513 -0.5132 -0.5755
 5723TIP3   OH241363   1.411   6.385   9.414 -0.0282 -0.4135 -0.0406
 5723TIP3    H141364   1.438   6.454   9.354 -1.3976 -0.7807 -1.1348
 5723TIP3    H241365   1.398   6.308   9.359  2.4236 -1.8798  1.2980
 5724TIP3   OH241366   1.419   0.904  10.144  0.3479  0.1856  0.6416
 5724TIP3    H141367   1.461   0.846  10.080  0.8169  0.1115  1.0107
 5724TIP3    H241368   1.374   0.970  10.091 -1.7152 -1.5191  0.1357
 5725TIP3   OH241369   6.472   0.372   9.024 -0.3582  0.2743 -0.6663
 5725TIP3    H141370   6.498   0.318   8.949 -1.3556 -0.5252 -0.4474
 5725TIP3    H241371   6.471   0.461   8.989 -0.2939 -0.0269 -1.4598
 5726TIP3   OH241372   2.533   5.633   8.647  0.0503 -0.3372 -0.2284
 5726TIP3    H141373   2.513   5.656   8.738 -0.8357 -0.4029 -0.3953
 5726TIP3    H241374   2.582   5.709   8.614 -0.0512 -0.0984  0.1592
 5727TIP3   OH241375   3.450   2.734   8.691 -0.4388  0.3378 -0.1745
 5727TIP3    H141376   3.420   2.644   8.704 -2.2589  0.5363 -2.3771
 5727TIP3    H241377   3.546   2.728   8.693 -0.4743 -1.9303 -1.5656
 5728TIP3   OH241378   0.174   4.265  11.113  0.0900 -0.4408  0.2693
 5728TIP3    H141379   0.134   4.225  11.190  0.8631 -1.4946  0.1420
 5728TIP3    H241380   0.261   4.291  11.142  0.1020 -0.1321 -0.0392
 5729TIP3   OH241381   3.387   2.810  11.361  0.0378  0.1416  0.1861
 5729TIP3    H141382   3.448   2.738  11.375  0.1546  0.2567  0.2705
 5729TIP3    H241383   3.435   2.888  11.389  0.2058  0.3551 -0.6687
 5730TIP3   OH241384   6.181   0.095  10.596  0.3242 -0.2207  0.1521
 5730TIP3    H141385   6.203   0.105  10.689 -0.9435 -0.5361  0.5150
 5730TIP3    H241386   6.094   0.053  10.597  0.9167 -1.5648 -1.1854
 5731TIP3   OH241387   6.132   3.418   9.762  0.3112  0.4649 -0.0734
 5731TIP3    H141388   6.227   3.409   9.755  0.2392 -0.9331  0.4795
 5731TIP3    H241389   6.104   3.438   9.673  0.9270 -1.3293 -0.7147
 5732TIP3   OH241390   3.648   3.228   9.560  0.1271  0.1908 -0.6111
 5732TIP3    H141391   3.687   3.247   9.645 -1.1899 -1.2708  0.3901
 5732TIP3    H241392   3.556   3.252   9.570 -0.5096 -1.8994 -0.8800
 5733TIP3   OH241393   5.970   1.194   9.619 -0.0598 -0.3132 -0.2670
 5733TIP3    H141394   6.050   1.186   9.566 -1.4080 -2.0305 -2.2108
 5733TIP3    H241395   5.967   1.114   9.670  0.5311  0.7388  1.4958
 5734TIP3   OH241396   1.103   0.034  10.206  0.1055  0.1945  0.3365
 5734TIP3    H141397   1.077   0.017  10.115  1.2465  1.0651 -0.1718
 5734TIP3    H241398   1.168  -0.034  10.226 -1.7921 -1.4424  1.3196
 5735TIP3   OH241399   2.957   2.624   9.187 -0.5355  0.6696  0.9018
 5735TIP3    H141400   3.028   2.560   9.178  0.6823  2.0392  0.3577
 5735TIP3    H241401   2.940   2.653   9.098  0.5546  2.7478  1.3049
 5736TIP3   OH241402   0.694   2.845  10.972 -0.1019 -0.2049 -0.0027
 5736TIP3    H141403   0.724   2.833  10.882  0.6570 -0.4322  0.2671
 5736TIP3    H241404   0.746   2.783  11.023  1.3530  1.6784  0.9460
 5737TIP3   OH241405   3.345   1.255   8.869 -0.0989 -0.6443 -0.0968
 5737TIP3    H141406   3.254   1.261   8.839 -0.0736  0.2738 -0.0150
 5737TIP3    H241407   3.386   1.192   8.809 -0.2975  0.4089 -1.3797
 5738TIP3   OH241408   5.876   6.450   8.980  0.1489 -0.0093  0.1945
 5738TIP3    H141409   5.914   6.425   8.896 -2.1388  1.3120 -1.3636
 5738TIP3    H241410   5.933   6.519   9.013 -0.9951  2.3458 -2.3560
 5739TIP3   OH241411   1.458   5.002  10.511 -0.6305  0.2733  0.6622
 5739TIP3    H141412   1.404   4.975  10.437  1.7998 -1.2757 -0.7029
 5739TIP3    H241413   1.430   4.945  10.583  0.4793 -2.0663 -0.6120
 5740TIP3   OH241414   1.693   5.057  10.348 -1.1456 -0.2293 -0.0570
 5740TIP3    H141415   1.604   5.041  10.380 -0.8803  0.3987  1.0403
 5740TIP3    H241416   1.682   5.127  10.283 -1.3906  0.2560  0.4966
 5741TIP3   OH241417   5.506   3.984   8.868 -0.0281 -0.4375 -0.4029
 5741TIP3    H141418   5.514   3.901   8.915  1.1155 -0.8146 -1.2349
 5741TIP3    H241419   5.563   3.975   8.791  0.5896  1.3352 -0.2106
 5742TIP3   OH241420   1.920   2.575   9.168  0.2210  0.5837 -0.1869
 5742TIP3    H141421   1.960   2.491   9.193 -1.2118 -0.6241 -1.7118
 5742TIP3    H241422   1.983   2.615   9.108  0.4542  0.0899 -0.2824
 5743TIP3   OH241423   5.011   4.366  18.616  0.2662 -0.1542 -0.3837
 5743TIP3    H141424   5.063   4.321  18.683 -0.1780 -0.2735 -0.1057
 5743TIP3    H241425   4.992   4.298  18.551  1.5305  0.2079 -1.1422
 5744TIP3   OH241426   0.567   4.577  10.520 -0.6793 -0.0553  0.1432
 5744TIP3    H141427   0.522   4.500  10.486  1.4468 -2.0916  1.6622
 5744TIP3    H241428   0.514   4.606  10.594 -0.6127 -1.1637  0.6446
 5745TIP3   OH241429   4.937   0.161  11.271  0.5481  0.3506  0.1480
 5745TIP3    H141430   4.888   0.238  11.300  1.3284  1.3966 -1.1857
 5745TIP3    H241431   5.019   0.197  11.237  1.3911 -1.1816  0.4949
 5746TIP3   OH241432   1.332   3.368   9.989 -0.3940  0.1394 -0.1652
 5746TIP3    H141433   1.318   3.435  10.056 -0.1140  0.1443 -0.1080
 5746TIP3    H241434   1.385   3.302  10.033 -0.2055  0.1456 -0.3836
 5747TIP3   OH241435   4.878   0.761   8.808 -0.2801  0.5601  0.5997
 5747TIP3    H141436   4.862   0.677   8.766 -1.0608  0.6746  0.6566
 5747TIP3    H241437   4.796   0.810   8.797 -0.8697  0.2498  3.0276
 5748TIP3   OH241438   4.838   0.188   8.677 -0.1985 -0.2338  0.4842
 5748TIP3    H141439   4.798   0.261   8.628 -0.2491 -0.7595 -0.2722
 5748TIP3    H241440   4.917   0.226   8.715  0.9593 -0.3063 -1.7125
 5749TIP3   OH241441   5.182   4.210  10.239 -0.0292  0.2654 -0.2312
 5749TIP3    H141442   5.190   4.204  10.334  0.6163 -0.3857 -0.3273
 5749TIP3    H241443   5.092   4.241  10.225 -1.1421 -2.3787  0.5024
 5750TIP3   OH241444   2.449   3.828   9.765 -0.1917 -0.1032  0.1594
 5750TIP3    H141445   2.456   3.913   9.722  2.2690 -0.0693  0.4782
 5750TIP3    H241446   2.524   3.824   9.824 -0.4235 -2.3610  0.4133
 5751TIP3   OH241447   4.486   0.572  10.003  0.3003  0.2218 -0.1601
 5751TIP3    H141448   4.533   0.491  10.022  3.1611  1.7164 -0.3835
 5751TIP3    H241449   4.494   0.624  10.083  0.2890  1.0572 -0.6792
 5752TIP3   OH241450   1.940   4.874   9.745  0.0460 -0.1270 -0.3970
 5752TIP3    H141451   1.862   4.929   9.747 -0.2506 -0.4443 -1.8982
 5752TIP3    H241452   2.012   4.934   9.729  0.0036  0.0565  0.0785
 5753TIP3   OH241453   4.122   3.033   9.700  0.1348  0.0651  0.0964
 5753TIP3    H141454   4.060   3.103   9.682 -1.1124 -0.8446  0.6694
 5753TIP3    H241455   4.070   2.952   9.691  1.2382 -0.7221  0.5450
 5754TIP3   OH241456   3.698   0.586  11.495  0.1374  0.7453  0.3307
 5754TIP3    H141457   3.706   0.591  11.590  0.2423  1.5451  0.2884
 5754TIP3    H241458   3.727   0.672  11.464 -0.6205  0.7608 -0.3730
 5755TIP3   OH241459   2.260   4.473   9.314 -0.0920  0.3059 -0.2770
 5755TIP3    H141460   2.288   4.405   9.375  0.5212 -0.3466 -1.2495
 5755TIP3    H241461   2.218   4.425   9.243 -3.7192  1.2160  1.0411
 5756TIP3   OH241462   5.421   2.395  10.531 -0.2929  0.7765 -0.4682
 5756TIP3    H141463   5.403   2.372  10.440  0.3595  2.2279 -1.0077
 5756TIP3    H241464   5.423   2.491  10.531  0.9311  0.7890  0.8262
 5757TIP3   OH241465   0.580   0.029  11.602 -0.6039 -0.7888  0.1065
 5757TIP3    H141466   0.660   0.079  11.618 -1.3055  0.2464  0.5277
 5757TIP3    H241467   0.603  -0.061  11.623  0.0095 -0.2682  1.8140
 5758TIP3   OH241468   5.928   6.055  10.514  0.0685 -0.4915 -0.0818
 5758TIP3    H141469   5.946   6.144  10.545 -1.9420  0.3544 -1.0818
 5758TIP3    H241470   5.936   6.000  10.591  0.6260  0.6791  0.7294
 5759TIP3   OH241471   1.481   0.113   8.772  0.0379 -0.6423  0.0718
 5759TIP3    H141472   1.485   0.047   8.702 -0.2638 -1.7122  1.0383
 5759TIP3    H241473   1.417   0.177   8.741  0.1292 -0.9459 -0.7614
 5760TIP3   OH241474   3.427   0.472  10.910  0.5087 -0.1595  0.6219
 5760TIP3    H141475   3.367   0.459  10.984 -1.4278 -1.6380 -1.1113
 5760TIP3    H241476   3.370   0.482  10.834  2.4587  0.0562 -0.8812
 5761TIP3   OH241477   3.585   2.874   9.848 -0.0747 -0.1774 -0.1102
 5761TIP3    H141478   3.621   2.957   9.878 -0.6748 -0.5866  1.8619
 5761TIP3    H241479   3.568   2.825   9.928 -1.7593 -1.3483 -1.1319
 5762TIP3   OH241480   0.650   2.422   9.157 -0.0732 -0.1536 -0.1528
 5762TIP3    H141481   0.559   2.452   9.152 -1.3212 -3.5047 -0.5549
 5762TIP3    H241482   0.670   2.394   9.067  1.6893  1.1962 -0.2367
 5763TIP3   OH241483   2.335   3.270   9.667 -0.4360 -0.5411  0.0804
 5763TIP3    H141484   2.335   3.365   9.660 -1.9288 -0.5413 -0.2025
 5763TIP3    H241485   2.242   3.245   9.667 -0.1036 -2.1096 -1.7177
 5764TIP3   OH241486   5.246   4.182  10.516 -0.3620  0.7769  0.0047
 5764TIP3    H141487   5.182   4.179  10.588 -1.6968 -0.0111 -1.1747
 5764TIP3    H241488   5.302   4.106  10.531  0.1954  1.3346  0.9047
 5765TIP3   OH241489   3.588   5.066  10.840  0.5222 -0.1735 -0.5243
 5765TIP3    H141490   3.587   4.971  10.826 -0.0765 -0.0733 -1.2492
 5765TIP3    H241491   3.587   5.103  10.752 -0.9453  0.5014 -0.2663
 5766TIP3   OH241492   2.816   6.457  11.869  0.4957  0.6771 -0.2539
 5766TIP3    H141493   2.730   6.423  11.841 -0.1832  2.1731 -0.0836
 5766TIP3    H241494   2.797   6.508  11.947  1.3520  2.0476 -0.9157
 5767TIP3   OH241495   3.769   5.152  11.029  0.5028  0.2118 -0.9618
 5767TIP3    H141496   3.713   5.102  10.970  1.5330 -2.4082  0.1039
 5767TIP3    H241497   3.848   5.170  10.978  1.8627 -2.9994 -0.2908
 5768TIP3   OH241498   1.199   3.852   8.988  0.0712  0.2636  0.0074
 5768TIP3    H141499   1.236   3.886   9.070  1.3527 -0.8285 -0.0894
 5768TIP3    H241500   1.104   3.850   9.004  0.4013 -2.8386  2.7051
 5769TIP3   OH241501   5.291   4.478  10.492 -0.1000  0.0146 -0.5046
 5769TIP3    H141502   5.344   4.492  10.414  0.0925 -0.1703 -0.4088
 5769TIP3    H241503   5.268   4.385  10.489 -0.4513  0.1038 -0.5685
 5770TIP3   OH241504   2.502   5.829   9.374 -0.0013  0.0847  0.0253
 5770TIP3    H141505   2.454   5.813   9.455  1.6373  0.1347  1.0507
 5770TIP3    H241506   2.456   5.902   9.333 -2.5476 -1.7338 -0.5607
 5771TIP3   OH241507   1.637   6.456   9.942 -0.3858  0.5470  0.0385
 5771TIP3    H141508   1.597   6.373   9.968 -1.0880  1.2953  1.4483
 5771TIP3    H241509   1.641   6.452   9.847 -0.2300 -1.1804  0.0874
 5772TIP3   OH241510   1.930   2.463  12.144  0.0229  0.2944 -0.5216
 5772TIP3    H141511   1.892   2.538  12.191  1.7307  1.0878 -0.3496
 5772TIP3    H241512   1.876   2.388  12.171 -0.0898  1.0048  1.3820
 5773TIP3   OH241513   5.038   4.889  11.602 -0.1663  0.3025  0.0983
 5773TIP3    H141514   5.010   4.848  11.520  0.9078  0.3777 -0.3257
 5773TIP3    H241515   5.114   4.838  11.629 -0.6185  0.1685  1.1561
 5774TIP3   OH241516   5.851   2.055  12.246 -0.1326 -0.1371 -0.1043
 5774TIP3    H141517   5.776   1.998  12.261 -1.1107  1.0407 -0.3428
 5774TIP3    H241518   5.918   2.023  12.306 -1.6505  0.2939  1.9193
 5775TIP3   OH241519   4.488   5.086  11.392  0.0801 -0.3484  0.2241
 5775TIP3    H141520   4.415   5.084  11.453  0.1542 -0.4392  0.3097
 5775TIP3    H241521   4.451   5.122  11.311 -0.0837 -0.4898  0.2348
 5776TIP3   OH241522   1.087   2.491  10.871  0.3106  0.3141  0.2126
 5776TIP3    H141523   1.107   2.448  10.954 -0.5504 -1.7193 -0.5526
 5776TIP3    H241524   1.157   2.462  10.812  0.1049  0.5243 -0.1394
 5777TIP3   OH241525   4.899   3.048   9.811  0.2705 -0.2168  0.5013
 5777TIP3    H141526   4.830   3.059   9.876 -0.3059  0.0449 -0.1490
 5777TIP3    H241527   4.978   3.080   9.855  0.1510 -1.2549  1.5302
 5778TIP3   OH241528   3.023   0.140  11.109 -0.1448  0.1873  0.2803
 5778TIP3    H141529   3.004   0.118  11.201  0.7431  1.4012  0.7825
 5778TIP3    H241530   3.119   0.141  11.104 -0.1769  0.9251 -0.4538
 5779TIP3   OH241531   0.688   0.742  11.220  0.3152  0.7360 -0.0121
 5779TIP3    H141532   0.741   0.728  11.299  0.5678 -1.0789 -0.4611
 5779TIP3    H241533   0.730   0.687  11.154 -1.0249  0.7265 -0.8861
 5780TIP3   OH241534   5.131   0.000   8.792  0.2351  0.1978  0.2597
 5780TIP3    H141535   5.098   0.000   8.702 -0.7353  1.1071  0.5969
 5780TIP3    H241536   5.113  -0.088   8.823  0.0065  0.0597 -0.2407
 5781TIP3   OH241537   0.690   4.420   8.891  0.8343  0.7092  0.1340
 5781TIP3    H141538   0.737   4.457   8.816  1.6462 -1.5250 -0.5504
 5781TIP3    H241539   0.746   4.349   8.921 -0.2962  0.4744  1.8226
 5782TIP3   OH241540   0.635   4.304  10.623  0.1403 -0.2994 -0.3785
 5782TIP3    H141541   0.620   4.213  10.598 -1.1115 -0.5924  1.2159
 5782TIP3    H241542   0.548   4.345  10.617  0.5595  0.6151 -0.4258
 5783TIP3   OH241543   0.347   6.157   9.177  0.2047  0.8220  0.6978
 5783TIP3    H141544   0.378   6.179   9.089 -2.2575  1.0624 -0.2082
 5783TIP3    H241545   0.329   6.243   9.217  0.1321  0.6927  0.9416
 5784TIP3   OH241546   1.175   6.545  10.415 -0.0684 -0.0829 -0.0820
 5784TIP3    H141547   1.148   6.517  10.503 -1.0629  1.4724  0.1488
 5784TIP3    H241548   1.240   6.613  10.432 -2.2207  2.1801 -0.4211
 5785TIP3   OH241549   2.044   5.485   9.277  0.3493  0.6658 -0.0794
 5785TIP3    H141550   2.060   5.571   9.238 -0.4898  0.0468 -1.8986
 5785TIP3    H241551   1.958   5.493   9.318  0.1374  0.6223 -0.5081
 5786TIP3   OH241552   1.573   6.514  11.171 -0.1784  0.1798 -0.0466
 5786TIP3    H141553   1.516   6.591  11.170  1.0439  1.1720 -2.3039
 5786TIP3    H241554   1.625   6.523  11.091  2.0945 -1.4583  1.1575
 5787TIP3   OH241555   4.573   1.236  10.925  0.2479  0.4117 -0.0959
 5787TIP3    H141556   4.662   1.202  10.928  0.0110 -0.1678  1.2929
 5787TIP3    H241557   4.553   1.245  10.832  1.6287  0.2255 -0.4200
 5788TIP3   OH241558   5.166   6.423  11.874  0.3793 -0.2195  0.5256
 5788TIP3    H141559   5.223   6.485  11.919  1.7038 -0.4382 -0.7943
 5788TIP3    H241560   5.191   6.429  11.782 -2.4927  0.4705 -0.3218
 5789TIP3   OH241561   1.709   4.990   9.435 -0.4043 -0.7350 -0.0992
 5789TIP3    H141562   1.788   4.951   9.472 -0.7391 -1.6026 -0.2871
 5789TIP3    H241563   1.739   5.073   9.396  0.4013 -1.0373 -0.1365
 5790TIP3   OH241564   0.549   4.852  11.135 -0.4378 -0.5306 -0.2642
 5790TIP3    H141565   0.459   4.823  11.150 -0.4774  0.2344  1.0685
 5790TIP3    H241566   0.543   4.947  11.128  0.1200 -0.5538 -1.4563
 5791TIP3   OH241567   4.358   2.503  12.423  0.0159  0.0372  0.3552
 5791TIP3    H141568   4.446   2.500  12.388  0.1769  0.0126  0.7507
 5791TIP3    H241569   4.307   2.550  12.357  0.3958  0.3456  0.2779
 5792TIP3   OH241570   4.006   1.017  11.000  0.3996  0.0443 -0.4133
 5792TIP3    H141571   4.093   1.042  10.970  0.8379 -2.0303 -1.0572
 5792TIP3    H241572   3.949   1.032  10.925  0.2622  0.9687 -0.1384
 5793TIP3   OH241573   4.027   4.472   9.650  1.3580  0.5655 -0.3614
 5793TIP3    H141574   4.082   4.394   9.645 -1.7258 -1.8222  0.3561
 5793TIP3    H241575   3.994   4.474   9.739 -0.1715  1.5476 -0.8971
 5794TIP3   OH241576   3.936   4.852  10.943  0.3431 -0.2171 -0.4344
 5794TIP3    H141577   3.863   4.854  10.881  1.5895 -0.2951 -1.9726
 5794TIP3    H241578   3.994   4.922  10.915  1.0439 -0.3757  0.5456
 5795TIP3   OH241579   1.792   5.587  12.102  0.6438  0.3320  0.1347
 5795TIP3    H141580   1.714   5.579  12.158 -1.2198  0.4141 -2.2720
 5795TIP3    H241581   1.760   5.633  12.024  3.1470  0.3828 -0.9415
 5796TIP3   OH241582   5.677   3.614   9.788  0.4119  0.3465 -0.2626
 5796TIP3    H141583   5.691   3.702   9.824 -0.5698  0.2834  0.3107
 5796TIP3    H241584   5.667   3.558   9.866 -1.9065  0.2213 -0.5880
 5797TIP3   OH241585   1.132   3.588  11.214 -0.0029  0.0224 -0.1208
 5797TIP3    H141586   1.168   3.546  11.292  0.6759  1.0402  0.1387
 5797TIP3    H241587   1.086   3.666  11.247  1.1614  1.0379 -0.7758
 5798TIP3   OH241588   1.192   1.993  11.329  0.3524 -0.0064  0.1569
 5798TIP3    H141589   1.225   1.996  11.419  1.4210  0.3355 -0.2296
 5798TIP3    H241590   1.249   2.054  11.282  0.6668 -1.1742 -1.0273
 5799TIP3   OH241591   0.170   0.324  11.935 -0.0695 -0.0665  0.5150
 5799TIP3    H141592   0.157   0.320  11.840  2.3822  0.8336  0.0700
 5799TIP3    H241593   0.118   0.252  11.969 -2.4698  0.6642 -1.3032
 5800TIP3   OH241594   3.822   4.883   8.756 -0.7655 -0.0683 -0.0603
 5800TIP3    H141595   3.846   4.791   8.773 -1.2944 -0.4480 -1.2972
 5800TIP3    H241596   3.900   4.933   8.781 -0.5174 -0.8341  0.7575
 5801TIP3   OH241597   2.452   4.422   9.947 -0.1692  0.2699  0.1110
 5801TIP3    H141598   2.442   4.492  10.012 -0.4408 -0.4521  0.8586
 5801TIP3    H241599   2.377   4.433   9.888 -0.6220  0.1563  0.6619
 5802TIP3   OH241600   0.946   5.831   9.289 -0.0169  0.1215 -0.3590
 5802TIP3    H141601   1.026   5.878   9.309 -0.2483 -0.2800  1.7315
 5802TIP3    H241602   0.895   5.834   9.370 -1.6839 -0.4859 -1.3247
 5803TIP3   OH241603   3.980   1.489   9.763  0.4893 -0.0160  0.0307
 5803TIP3    H141604   3.921   1.416   9.743 -0.7488  0.3177  2.1184
 5803TIP3    H241605   3.969   1.549   9.690 -0.9087 -0.5048 -0.1966
 5804TIP3   OH241606   1.863   3.263   8.318 -0.3201 -0.3411  0.1615
 5804TIP3    H141607   1.911   3.190   8.279  0.9602  0.0812  0.8916
 5804TIP3    H241608   1.886   3.259   8.411 -0.1968  1.0004  0.1985
 5805TIP3   OH241609   1.612   6.618  10.547  0.6939 -0.5056 -0.2393
 5805TIP3    H141610   1.662   6.670  10.610 -0.6090  0.5452 -0.0505
 5805TIP3    H241611   1.674   6.601  10.476  1.6348 -0.1416  0.4737
 5806TIP3   OH241612   5.906   1.567  11.322 -0.0360 -0.2613  0.1986
 5806TIP3    H141613   5.818   1.533  11.304 -0.1315  0.5447 -0.9607
 5806TIP3    H241614   5.958   1.542  11.245  1.0508 -1.6393  1.3115
 5807TIP3   OH241615   0.887   6.163   9.538 -0.0619  0.1274 -0.1221
 5807TIP3    H141616   0.910   6.199   9.623 -0.8810  1.2053 -0.3248
 5807TIP3    H241617   0.812   6.106   9.555 -0.4786  0.6575 -0.1736
 5808TIP3   OH241618   0.114   2.305  10.681 -0.6378  0.2626 -0.2148
 5808TIP3    H141619   0.135   2.394  10.652 -0.2988  0.1895 -0.1978
 5808TIP3    H241620   0.153   2.248  10.615 -0.9372  0.1256 -0.2775
 5809TIP3   OH241621   3.099   1.822   8.751 -0.3374  0.0927 -1.0440
 5809TIP3    H141622   3.109   1.895   8.812  0.7684 -0.8859 -0.0070
 5809TIP3    H241623   3.053   1.755   8.802 -2.0461  0.3152 -2.2282
 5810TIP3   OH241624   4.422   3.476   9.125  0.0239 -0.0119 -0.2467
 5810TIP3    H141625   4.447   3.567   9.134  1.4271 -0.5039  1.1695
 5810TIP3    H241626   4.350   3.477   9.061  0.1944  2.0235 -0.4573
 5811TIP3   OH241627   1.826   5.492  11.625  0.6201  0.3687  0.7586
 5811TIP3    H141628   1.753   5.504  11.685  0.6153 -0.1685  0.8645
 5811TIP3    H241629   1.792   5.433  11.557  1.8177 -2.3960  2.4070
 5812TIP3   OH241630   0.123   0.479   9.191 -0.0902 -0.0224  0.2841
 5812TIP3    H141631   0.207   0.524   9.199  0.9403 -1.6079 -1.0123
 5812TIP3    H241632   0.066   0.543   9.148  0.9561  0.4955 -0.3842
 5813TIP3   OH241633   6.310   3.532  10.013  0.2610 -0.4092  0.3886
 5813TIP3    H141634   6.344   3.484  10.089 -0.3417 -3.9709 -1.3600
 5813TIP3    H241635   6.343   3.484   9.937 -1.9169  0.9151 -1.5457
 5814TIP3   OH241636   5.819   1.008   9.999  0.3854  0.6403 -0.7936
 5814TIP3    H141637   5.782   1.086  10.041 -1.5828 -0.5244 -0.2009
 5814TIP3    H241638   5.817   0.941  10.068  0.5988 -0.3379 -1.7089
 5815TIP3   OH241639   4.894   2.658   8.571 -0.1069  0.2084  0.3334
 5815TIP3    H141640   4.843   2.736   8.550 -1.7092 -0.8310  0.2497
 5815TIP3    H241641   4.951   2.645   8.495  0.4198  1.4470  0.4843
 5816TIP3   OH241642   1.302   5.245  10.259 -0.3855  0.7332  0.0347
 5816TIP3    H141643   1.310   5.182  10.187 -0.5976  0.8252 -0.0722
 5816TIP3    H241644   1.359   5.318  10.233  1.0212 -0.0229  0.8461
 5817TIP3   OH241645   4.444   2.353   9.431 -0.0157 -0.4514 -0.3400
 5817TIP3    H141646   4.365   2.407   9.422 -1.1319 -1.8312  0.7459
 5817TIP3    H241647   4.484   2.382   9.513 -0.6240 -1.2486  0.2514
 5818TIP3   OH241648   3.944   2.713  10.341  0.1265  0.0462 -0.6424
 5818TIP3    H141649   3.891   2.792  10.350  0.8190  0.5753 -1.0955
 5818TIP3    H241650   3.930   2.664  10.422 -0.8163  0.3192 -0.6392
 5819TIP3   OH241651   6.162   6.131  10.122  0.0891 -0.2780 -0.5311
 5819TIP3    H141652   6.078   6.155  10.082 -0.2526 -1.8518 -0.8345
 5819TIP3    H241653   6.139   6.062  10.185  0.9786  0.2790  0.4199
 5820TIP3   OH241654   6.629   0.838   9.668 -0.6487 -0.8103  0.0677
 5820TIP3    H141655   6.656   0.863   9.756  1.0538  0.5843 -0.7741
 5820TIP3    H241656   6.634   0.742   9.668  1.3738 -0.7714  0.9394
 5821TIP3   OH241657   4.792   3.350   9.932 -0.0911  0.3111 -0.9677
 5821TIP3    H141658   4.885   3.353   9.908  0.1268  2.0519 -0.0581
 5821TIP3    H241659   4.747   3.390   9.857  0.0038  0.4713 -0.9396
 5822TIP3   OH241660   6.373   4.089   8.804  0.0005 -0.0431  0.3105
 5822TIP3    H141661   6.285   4.095   8.765  0.3515  1.1303 -0.3592
 5822TIP3    H241662   6.365   4.020   8.869 -1.0076 -1.0857 -0.8408
 5823TIP3   OH241663   5.055   5.048   9.649  0.4726  0.7677 -0.7858
 5823TIP3    H141664   5.069   5.120   9.711  0.7110  0.1777 -0.1392
 5823TIP3    H241665   5.017   4.978   9.702 -1.6344  1.0704 -1.7823
 5824TIP3   OH241666   1.063   2.935   9.969  0.2860  0.3799  0.4478
 5824TIP3    H141667   1.065   2.995  10.044  0.4099  1.3939 -0.3532
 5824TIP3    H241668   1.042   2.990   9.894 -1.7489 -0.9131 -0.0189
 5825TIP3   OH241669   4.823   6.237   9.471 -0.2684  0.0063  0.1107
 5825TIP3    H141670   4.915   6.265   9.462 -1.6258  4.9173 -2.9853
 5825TIP3    H241671   4.792   6.281   9.550 -0.0000 -1.9570  1.3698
 5826TIP3   OH241672   4.152   3.719   9.148  0.3300 -0.2598  0.1556
 5826TIP3    H141673   4.145   3.640   9.095  1.6168  0.1380 -0.6331
 5826TIP3    H241674   4.244   3.745   9.142 -0.0304  1.2051  0.5192
 5827TIP3   OH241675   5.100   0.904   8.917  0.4084  0.1115  0.6513
 5827TIP3    H141676   5.033   0.839   8.895  1.8394 -1.1226 -0.2702
 5827TIP3    H241677   5.082   0.977   8.859  0.6571 -0.7709 -0.5718
 5828TIP3   OH241678   4.974   4.854   9.826 -0.5776 -0.0235 -0.4433
 5828TIP3    H141679   5.055   4.882   9.869 -1.8343  1.9889  0.8195
 5828TIP3    H241680   4.949   4.774   9.872 -0.6170  0.7665  0.9655
 5829TIP3   OH241681   0.559   0.379   8.862  0.0585 -0.0453 -0.1361
 5829TIP3    H141682   0.627   0.379   8.930 -0.6428 -0.9113  0.6039
 5829TIP3    H241683   0.540   0.471   8.846  0.5449  0.1771  0.5362
 5830TIP3   OH241684   6.174   3.229   9.995 -0.2367  0.0140 -0.1171
 5830TIP3    H141685   6.182   3.285   9.919  0.4001 -0.6364 -0.5502
 5830TIP3    H241686   6.170   3.140   9.959  1.4347 -0.4037  0.6409
 5831TIP3   OH241687   3.491   4.659   8.711  0.2755 -0.1655 -0.1112
 5831TIP3    H141688   3.424   4.690   8.650 -0.4767  0.4638  0.9970
 5831TIP3    H241689   3.571   4.705   8.684 -0.8371  3.1399  1.6371
 5832TIP3   OH241690   1.385   5.013   8.790  0.2429  0.1272  0.3235
 5832TIP3    H141691   1.372   4.997   8.696 -0.8827  1.2605  0.2550
 5832TIP3    H241692   1.326   4.952   8.833  0.1022  0.2140  0.2558
 5833TIP3   OH241693   2.803   0.230  11.325  0.2848 -0.3020 -0.5885
 5833TIP3    H141694   2.851   0.308  11.353 -0.6680  0.6559 -1.5489
 5833TIP3    H241695   2.748   0.207  11.400  0.0242  0.3981 -0.5625
 5834TIP3   OH241696   0.828   4.515   8.631 -0.0646  0.5869 -0.6903
 5834TIP3    H141697   0.820   4.422   8.611  1.0539  0.6713 -1.5994
 5834TIP3    H241698   0.813   4.560   8.548 -0.5080  1.2202 -0.2795
 5835TIP3   OH241699   6.641   3.948  10.738  0.0138  0.1360 -0.0038
 5835TIP3    H141700   6.715   3.998  10.773  1.1339 -0.7252 -1.0349
 5835TIP3    H241701   6.680   3.866  10.708 -1.5989 -0.8992  0.6171
 5836TIP3   OH241702   3.879   1.930  11.087 -0.2531 -0.9306 -0.4041
 5836TIP3    H141703   3.812   1.946  11.154 -1.1993  0.8833 -1.7150
 5836TIP3    H241704   3.845   1.855  11.037 -1.8546  0.5217 -1.6264
 5837TIP3   OH241705   3.989   3.962  10.972 -0.1200  0.0320 -0.8133
 5837TIP3    H141706   4.019   4.038  10.923  3.2686 -1.3885 -1.2260
 5837TIP3    H241707   3.936   3.998  11.043  1.4402  2.8069 -0.9177
 5838TIP3   OH241708   3.122   4.989  11.976  0.5235 -0.2781 -0.2053
 5838TIP3    H141709   3.176   4.915  12.004  2.1176  1.4980  1.7963
 5838TIP3    H241710   3.039   4.977  12.022  1.5408  0.2355  1.9011
 5839TIP3   OH241711   4.323   3.243   9.234 -0.0458  0.7524  0.1055
 5839TIP3    H141712   4.231   3.245   9.207 -0.1735 -0.8833  0.3324
 5839TIP3    H241713   4.359   3.324   9.199 -1.2346  0.7625 -1.2255
 5840TIP3   OH241714   3.453   4.199   9.287  0.5945 -0.2307 -0.7097
 5840TIP3    H141715   3.509   4.157   9.352 -0.4605  0.0009  0.3862
 5840TIP3    H241716   3.514   4.243   9.228  1.6341 -1.5832 -0.6932
 5841TIP3   OH241717   0.842   2.319  12.300 -0.5816  0.3304  0.7853
 5841TIP3    H141718   0.859   2.242  12.355 -0.6180  0.0337  0.3848
 5841TIP3    H241719   0.927   2.362  12.292 -0.3872 -0.1411  0.3009
 5842TIP3   OH241720   1.109   2.529  11.377  0.2586  0.0057  0.2522
 5842TIP3    H141721   1.068   2.597  11.431 -0.0781  0.9314 -1.1098
 5842TIP3    H241722   1.124   2.457  11.437  1.4943  1.6044  1.9941
 5843TIP3   OH241723   0.604   4.439  11.133  0.3176 -0.0295 -1.0659
 5843TIP3    H141724   0.513   4.454  11.159  0.3301 -0.2835 -0.8669
 5843TIP3    H241725   0.602   4.437  11.038  0.0470 -0.4207 -1.0529
 5844TIP3   OH241726   2.986   3.033  10.309  0.0358 -0.1605 -0.1073
 5844TIP3    H141727   2.970   2.939  10.311  0.0797 -0.1721 -0.2746
 5844TIP3    H241728   3.015   3.050  10.219  1.3515 -0.1999  0.2999
 5845TIP3   OH241729   1.009   2.487   9.041 -0.2700 -0.3367 -0.8556
 5845TIP3    H141730   1.081   2.549   9.031 -0.2456 -0.3721 -0.8967
 5845TIP3    H241731   0.930   2.539   9.023 -0.5113  0.4284  1.8578
 5846TIP3   OH241732   6.466   3.402   9.389  0.1014 -0.2670  0.1553
 5846TIP3    H141733   6.476   3.320   9.438 -0.3647 -0.1296  0.4803
 5846TIP3    H241734   6.507   3.468   9.445 -0.7031 -0.0592  0.5091
 5847TIP3   OH241735   6.324   4.942   9.693  0.4670 -0.2685 -0.5425
 5847TIP3    H141736   6.408   4.947   9.740  0.1262 -0.9213  0.1496
 5847TIP3    H241737   6.305   5.033   9.670 -0.0472  0.2914  1.8538
 5848TIP3   OH241738   2.845   5.473  10.662 -0.1918 -0.5285 -0.0467
 5848TIP3    H141739   2.787   5.457  10.588 -1.1590 -0.2717  0.6330
 5848TIP3    H241740   2.900   5.395  10.667 -0.0723 -0.5285 -1.0460
 5849TIP3   OH241741   0.566   1.861  10.046  0.5601  0.1099  0.0468
 5849TIP3    H141742   0.571   1.896   9.957  1.0860 -0.0030  0.0247
 5849TIP3    H241743   0.475   1.872  10.072  0.5450  0.7493 -0.2637
 5850TIP3   OH241744   2.895   3.912  10.216 -0.2765  0.0739  0.2571
 5850TIP3    H141745   2.908   3.949  10.303 -1.3374  0.2877  0.3469
 5850TIP3    H241746   2.806   3.877  10.218  0.4187 -1.8307 -0.0785
 5851TIP3   OH241747   6.341   2.155   9.910  0.0064  0.5986 -0.0257
 5851TIP3    H141748   6.425   2.133   9.869  0.4590  1.1747  0.5641
 5851TIP3    H241749   6.276   2.141   9.842  0.6739  0.8850 -0.7328
 5852TIP3   OH241750   2.799   6.622  11.504  0.0405 -0.0322 -0.0287
 5852TIP3    H141751   2.729   6.674  11.465  1.1153  0.3091 -1.6111
 5852TIP3    H241752   2.854   6.596  11.430  0.7986 -1.5041  0.9949
 5853TIP3   OH241753   5.800   0.440  10.849  0.3653 -0.4604 -0.3867
 5853TIP3    H141754   5.749   0.521  10.853  2.4797  0.9396  0.9519
 5853TIP3    H241755   5.736   0.370  10.862 -1.4728  1.0172 -1.0782
 5854TIP3   OH241756   5.526   3.186   9.250 -0.5233 -0.2722 -0.0202
 5854TIP3    H141757   5.580   3.194   9.329 -0.9411  0.6746  0.1831
 5854TIP3    H241758   5.519   3.276   9.217 -0.0455 -0.7080 -1.3571
 5855TIP3   OH241759   5.818   2.270  12.376  0.1805 -0.5859 -0.0883
 5855TIP3    H141760   5.859   2.214  12.310  0.2539  0.1653 -0.6852
 5855TIP3    H241761   5.883   2.338  12.393 -0.5671  0.2590 -0.5860
 5856TIP3   OH241762   1.502   0.949   8.986 -0.3946 -0.1364 -0.0201
 5856TIP3    H141763   1.416   0.912   9.006 -0.0724 -1.0130 -0.2003
 5856TIP3    H241764   1.484   1.021   8.925 -0.8682 -1.5711 -1.6707
 5857TIP3   OH241765   3.592   3.787   9.201 -0.1957 -0.3419  0.1622
 5857TIP3    H141766   3.631   3.783   9.288 -0.4229 -0.6460  0.2516
 5857TIP3    H241767   3.632   3.864   9.160  0.0079 -0.2735  0.4871
 5858TIP3   OH241768   2.746   5.651   8.862 -0.0402  0.1356  0.4044
 5858TIP3    H141769   2.801   5.625   8.935  1.3936 -1.2943 -1.0742
 5858TIP3    H241770   2.716   5.739   8.883  2.5325  0.8394  1.4626
 5859TIP3   OH241771   2.692   0.380   9.938 -0.2260 -0.0362 -0.3719
 5859TIP3    H141772   2.610   0.377   9.889  0.6306 -1.4704 -1.8180
 5859TIP3    H241773   2.670   0.424  10.020 -2.6466 -1.2045 -0.3187
 5860TIP3   OH241774   6.640   3.853   9.850  0.7600  0.2193  0.0059
 5860TIP3    H141775   6.582   3.900   9.910 -1.8061 -1.8854 -0.6538
 5860TIP3    H241776   6.660   3.771   9.894 -0.0201 -0.7605 -1.4115
 5861TIP3   OH241777   3.517   4.770  10.144  0.0163  0.6955  0.4317
 5861TIP3    H141778   3.526   4.680  10.112  0.5883  0.8241  0.2095
 5861TIP3    H241779   3.430   4.773  10.184 -0.1440  0.1373  0.1408
 5862TIP3   OH241780   0.686   6.534  11.050 -0.0069  0.4656  0.1428
 5862TIP3    H141781   0.696   6.627  11.028 -0.0509  0.5414  0.4274
 5862TIP3    H241782   0.774   6.498  11.046 -0.2626 -0.0765 -2.4593
 5863TIP3   OH241783   2.748   5.152  11.020  0.3874 -0.6408  0.5746
 5863TIP3    H141784   2.669   5.120  11.063 -0.0366 -1.1755 -0.5833
 5863TIP3    H241785   2.785   5.075  10.978  2.0845 -0.6179  1.9061
 5864TIP3   OH241786   1.677   6.436  12.193  0.2662 -0.1968  1.0000
 5864TIP3    H141787   1.656   6.458  12.102 -0.3578  1.5112  1.4961
 5864TIP3    H241788   1.764   6.472  12.207  0.2879 -0.2935  1.1106
 5865TIP3   OH241789   3.860   6.371  10.192  0.2888 -0.3720 -0.6704
 5865TIP3    H141790   3.905   6.416  10.263 -1.2118  0.0151  0.0586
 5865TIP3    H241791   3.831   6.440  10.133 -0.9596 -0.4633 -0.1768
 5866TIP3   OH241792   6.097   0.738   9.230 -0.8214  0.4004  0.5992
 5866TIP3    H141793   6.098   0.733   9.134 -1.8931 -0.4101  0.6064
 5866TIP3    H241794   6.185   0.712   9.257 -0.9704 -0.9771 -0.1277
 5867TIP3   OH241795   5.336   3.274   9.795  0.1745 -0.3887  0.4545
 5867TIP3    H141796   5.345   3.297   9.702 -0.6656  0.3170  0.5327
 5867TIP3    H241797   5.340   3.178   9.796 -0.1076 -0.4229 -0.3585
 5868TIP3   OH241798   6.083   1.645  10.631 -0.0251 -0.0957  0.4386
 5868TIP3    H141799   6.031   1.579  10.676 -1.3341  0.3258 -0.4122
 5868TIP3    H241800   6.113   1.602  10.551 -1.5278  0.5429 -0.5002
 5869TIP3   OH241801   2.449   3.930   8.657  0.1152 -0.6431  0.4200
 5869TIP3    H141802   2.534   3.918   8.616  1.2131  0.8023  2.1368
 5869TIP3    H241803   2.457   3.889   8.743 -1.5404 -2.0237 -0.0089
 5870TIP3   OH241804   0.862   2.115  12.483 -0.9158  0.2901 -0.5039
 5870TIP3    H141805   0.772   2.083  12.488 -0.0090 -2.3958  2.5770
 5870TIP3    H241806   0.913   2.038  12.456  0.7601  0.8526  0.8878
 5871TIP3   OH241807   0.402   6.574  10.540  0.0951 -0.0145 -0.3751
 5871TIP3    H141808   0.473   6.598  10.600  0.4199  1.2901 -1.2504
 5871TIP3    H241809   0.337   6.531  10.597  0.3414  1.2664  0.9547
 5872TIP3   OH241810   2.708   2.769  10.652  0.1777 -0.2256  0.4130
 5872TIP3    H141811   2.716   2.846  10.708  0.2883  0.6627 -0.7811
 5872TIP3    H241812   2.638   2.791  10.591  0.1867 -1.0927  0.0790
 5873TIP3   OH241813   4.571   5.373  11.162  0.1365  0.3647  0.1544
 5873TIP3    H141814   4.537   5.299  11.111  0.2517  0.2113  0.3005
 5873TIP3    H241815   4.497   5.433  11.167  0.4768  0.9422 -1.2317
 5874TIP3   OH241816   5.260   2.239   9.258  0.3984 -0.3752  0.4325
 5874TIP3    H141817   5.180   2.287   9.236  0.6619 -0.5014 -0.9234
 5874TIP3    H241818   5.290   2.204   9.174  0.2355 -2.9332  1.3499
 5875TIP3   OH241819   4.223   3.499   8.935  0.4143 -0.2568  0.2127
 5875TIP3    H141820   4.154   3.543   8.884  0.7389  0.4408  0.3657
 5875TIP3    H241821   4.199   3.406   8.933 -0.3158 -0.0663 -0.0647
 5876TIP3   OH241822   1.869   2.731  12.231  0.0357  0.0542 -0.0940
 5876TIP3    H141823   1.835   2.789  12.300  1.4610  1.0750 -0.2026
 5876TIP3    H241824   1.922   2.789  12.176  0.1388 -1.0519 -1.1825
 5877TIP3   OH241825   4.541   2.741   8.687 -0.3262 -0.0957 -0.3166
 5877TIP3    H141826   4.451   2.724   8.715 -0.9590  1.8012 -0.9987
 5877TIP3    H241827   4.581   2.655   8.680 -1.6105 -0.8960  1.5243
 5878TIP3   OH241828   0.182   0.096   8.722 -0.2512  0.8795  0.3759
 5878TIP3    H141829   0.120   0.029   8.752  0.6728 -0.7611 -1.1549
 5878TIP3    H241830   0.175   0.094   8.627  2.2200  0.5074  0.1437
 5879TIP3   OH241831   0.455   3.635   8.884 -0.4942 -0.2011  0.3442
 5879TIP3    H141832   0.390   3.705   8.882 -0.3835 -0.0437  1.4232
 5879TIP3    H241833   0.538   3.680   8.900 -0.2783 -0.4910  0.0409
 5880TIP3   OH241834   4.741   2.774   9.088  0.1774 -0.5685  0.0794
 5880TIP3    H141835   4.756   2.853   9.139  0.3945 -0.4060 -0.2348
 5880TIP3    H241836   4.730   2.805   8.998 -0.9651 -0.7784  0.1279
 5881TIP3   OH241837   3.034   0.083  10.686 -0.4998  0.1727 -0.5559
 5881TIP3    H141838   3.023   0.005  10.631 -1.7656  0.4665 -0.7553
 5881TIP3    H241839   2.984   0.063  10.765 -0.3615  0.5574 -0.3719
 5882TIP3   OH241840   1.313   3.571  10.218  0.0423  0.6661 -0.6269
 5882TIP3    H141841   1.352   3.624  10.149  0.9278  0.7177 -0.1049
 5882TIP3    H241842   1.379   3.571  10.288 -0.0680 -0.8507 -0.4894
 5883TIP3   OH241843   2.278   6.514  11.514 -0.0706  0.4659 -0.4564
 5883TIP3    H141844   2.328   6.536  11.593 -1.4894  1.0138  0.3236
 5883TIP3    H241845   2.338   6.460  11.462  1.3179  1.1086  0.4301
 5884TIP3   OH241846   2.727   5.843   9.535 -0.4239  0.6903 -0.0718
 5884TIP3    H141847   2.764   5.920   9.490  0.0323 -0.4614 -1.7508
 5884TIP3    H241848   2.640   5.833   9.497  0.3690 -0.9401 -1.6260
 5885TIP3   OH241849   5.977   3.561  10.418  0.2063  0.6832 -0.0514
 5885TIP3    H141850   5.998   3.474  10.453  0.3086  0.7540  0.0633
 5885TIP3    H241851   6.062   3.603  10.405  0.1424  0.8962  0.2231
 5886TIP3   OH241852   2.897   2.543   9.533 -0.3221  0.3728  0.2470
 5886TIP3    H141853   2.840   2.481   9.579  0.0677 -0.6304 -0.6006
 5886TIP3    H241854   2.897   2.513   9.442 -0.1148  1.6138 -0.1803
 5887TIP3   OH241855   1.061   5.268   8.952 -0.3223 -0.6697 -0.4565
 5887TIP3    H141856   1.100   5.234   9.033 -0.7065 -0.4082 -0.1587
 5887TIP3    H241857   0.997   5.203   8.926 -0.6261 -0.4704 -0.2174
 5888TIP3   OH241858   5.915   1.053   9.029 -0.3375  1.0049  0.9507
 5888TIP3    H141859   5.874   0.967   9.035  0.0697  0.6638 -0.7090
 5888TIP3    H241860   5.844   1.115   9.041 -0.5253  0.4909  2.9180
 5889TIP3   OH241861   1.523   1.792   9.075  0.3976 -0.0881  0.1751
 5889TIP3    H141862   1.595   1.791   9.012  1.1792  0.4617  1.0438
 5889TIP3    H241863   1.532   1.875   9.121 -0.5655 -0.1893  0.5727
 5890TIP3   OH241864   0.836   6.261  10.371 -0.2057 -0.1270  0.1159
 5890TIP3    H141865   0.803   6.346  10.342 -1.4032 -0.8654 -0.8017
 5890TIP3    H241866   0.787   6.241  10.451  1.9127  1.1531  1.8622
 5891TIP3   OH241867   6.109   5.836   9.311  0.2305 -0.6225 -0.0588
 5891TIP3    H141868   6.095   5.754   9.264 -0.3417 -2.0406  2.3786
 5891TIP3    H241869   6.191   5.823   9.358 -0.4002 -0.2619  1.1926
 5892TIP3   OH241870   1.330   3.482   8.695  0.3254  0.6358  0.1793
 5892TIP3    H141871   1.244   3.441   8.689  0.7802 -0.1553 -1.3258
 5892TIP3    H241872   1.312   3.575   8.707 -0.7521  0.6104 -1.0713
 5893TIP3   OH241873   3.892   5.750   9.833  0.6129 -0.5276 -1.0214
 5893TIP3    H141874   3.922   5.659   9.826 -0.7126 -1.2288  1.2720
 5893TIP3    H241875   3.830   5.749   9.906 -0.3436  2.0086 -1.6978
 5894TIP3   OH241876   5.703   5.420  10.746  0.0388 -0.3411 -0.3489
 5894TIP3    H141877   5.793   5.429  10.776 -0.4996  1.2706  0.9152
 5894TIP3    H241878   5.686   5.326  10.748  1.0359 -0.5235  1.4284
 5895TIP3   OH241879   5.765   5.692   9.763 -0.5525 -0.4183  0.2276
 5895TIP3    H141880   5.846   5.741   9.771  0.3994 -1.8020 -0.4308
 5895TIP3    H241881   5.765   5.634   9.840 -1.7453  0.6641  1.0918
 5896TIP3   OH241882   5.211   2.648   8.954 -0.9410  0.0458  0.2093
 5896TIP3    H141883   5.190   2.711   8.886  2.4437  0.9633 -0.1637
 5896TIP3    H241884   5.243   2.571   8.907  0.9371  0.4961  0.6311
 5897TIP3   OH241885   3.425   4.701  10.720  0.2102  0.5631 -0.0495
 5897TIP3    H141886   3.403   4.726  10.810 -1.6896 -0.1910 -0.2692
 5897TIP3    H241887   3.407   4.608  10.716  0.3200  0.5808 -1.2140
 5898TIP3   OH241888   6.208   6.616  11.400  0.2858  0.1657 -0.3191
 5898TIP3    H141889   6.269   6.586  11.332 -0.4269  1.2276 -1.4733
 5898TIP3    H241890   6.194   6.538  11.454  0.4863 -0.8752 -1.6846
 5899TIP3   OH241891   4.305   1.967  12.237  0.5066  0.3732  0.5546
 5899TIP3    H141892   4.377   2.020  12.271  0.2507 -0.6101  2.8564
 5899TIP3    H241893   4.226   2.019  12.255  0.3764 -0.1208  1.5026
 5900TIP3   OH241894   5.341   5.012   9.548 -0.1000  0.3067 -0.5233
 5900TIP3    H141895   5.351   5.091   9.496  2.6094  1.3373  1.3521
 5900TIP3    H241896   5.273   5.034   9.612 -0.9493  0.2761 -1.3956
 5901TIP3   OH241897   3.321   5.062   9.917  0.0551 -0.3453 -0.5998
 5901TIP3    H141898   3.307   5.152   9.888 -0.5980 -0.1994  0.1205
 5901TIP3    H241899   3.415   5.056   9.933 -0.1344  0.8954  1.3984
 5902TIP3   OH241900   5.729   3.119   9.755  0.2247 -0.3679 -0.5181
 5902TIP3    H141901   5.787   3.150   9.825  0.5340 -0.2358 -0.8316
 5902TIP3    H241902   5.682   3.046   9.795  0.0974 -0.0333 -0.0393
 5903TIP3   OH241903   4.396   0.547  10.322  0.3565  0.4888  0.5698
 5903TIP3    H141904   4.379   0.582  10.410 -0.1440  0.6270  0.4212
 5903TIP3    H241905   4.368   0.616  10.263  0.0835  0.1425  0.2890
 5904TIP3   OH241906   2.958   1.595  11.014  0.1918  0.2721  0.2131
 5904TIP3    H141907   2.989   1.677  10.974  1.2158 -0.1347  0.1478
 5904TIP3    H241908   2.870   1.584  10.978  0.9892  0.0353 -1.8175
 5905TIP3   OH241909   2.577   1.902   8.599  0.2796  0.0686 -0.2732
 5905TIP3    H141910   2.587   1.810   8.575  0.7390  0.3001 -0.9714
 5905TIP3    H241911   2.637   1.914   8.673  1.0985  0.0993 -0.9414
 5906TIP3   OH241912   6.060   6.099   8.684 -0.2480  0.1251  0.0006
 5906TIP3    H141913   6.067   6.104   8.779 -1.5349 -1.7871  0.2547
 5906TIP3    H241914   6.140   6.054   8.656 -1.5841 -2.9139  0.6737
 5907TIP3   OH241915   1.137   5.696  10.910 -0.2710 -0.0389  0.1559
 5907TIP3    H141916   1.119   5.754  10.984  1.7412 -0.4755  1.0306
 5907TIP3    H241917   1.216   5.731  10.869 -0.6252 -0.5487 -1.0227
 5908TIP3   OH241918   2.180   4.574  10.694 -0.2185 -0.0919 -0.0776
 5908TIP3    H141919   2.197   4.623  10.774  1.1124 -0.0001 -0.3978
 5908TIP3    H241920   2.127   4.633  10.641  2.4758  1.6554 -1.0260
 5909TIP3   OH241921   3.386   4.003  10.100  0.0748 -0.3704 -0.5130
 5909TIP3    H141922   3.326   3.929  10.106 -0.6528  0.2666  0.3911
 5909TIP3    H241923   3.456   3.981  10.162 -0.1451 -0.3061 -0.2383
 5910TIP3   OH241924   6.008   0.421  11.837 -0.4733 -0.4087 -0.2093
 5910TIP3    H141925   5.945   0.421  11.908  2.3014 -1.3787  2.4662
 5910TIP3    H241926   6.063   0.497  11.852  1.4215 -1.7309  0.0101
 5911TIP3   OH241927   2.806   2.022   9.751  0.0119 -0.1048  0.2922
 5911TIP3    H141928   2.868   2.009   9.823  2.2891 -1.0534 -1.6997
 5911TIP3    H241929   2.830   1.955   9.686 -0.4387  2.0397 -2.2803
 5912TIP3   OH241930   4.012   1.888  11.651 -0.5161 -0.2378  0.4138
 5912TIP3    H141931   4.092   1.848  11.618 -1.4867 -0.6997 -1.4723
 5912TIP3    H241932   4.041   1.944  11.723  1.3636 -1.1427  0.4043
 5913TIP3   OH241933   4.990   3.899  10.815 -0.6983 -0.4131 -0.0838
 5913TIP3    H141934   4.935   3.822  10.802 -1.1888  0.0315 -0.6850
 5913TIP3    H241935   5.015   3.896  10.907 -0.7584 -1.2607 -0.0908
 5914TIP3   OH241936   2.705   4.556   9.814 -0.1140 -0.2779  0.0875
 5914TIP3    H141937   2.737   4.474   9.850  0.5393 -0.4314 -0.8313
 5914TIP3    H241938   2.775   4.619   9.830  0.1302 -0.3177 -0.7807
 5915TIP3   OH241939   6.337   1.353   9.287 -0.0285 -0.1887 -0.0383
 5915TIP3    H141940   6.286   1.434   9.289  1.8559  1.0480 -0.0298
 5915TIP3    H241941   6.389   1.355   9.366  0.3749 -1.2034 -0.2616
 5916TIP3   OH241942   3.782   1.583   9.451  0.7185 -0.0916  0.7736
 5916TIP3    H141943   3.721   1.570   9.523  2.4355  1.0795  2.5346
 5916TIP3    H241944   3.738   1.646   9.394 -0.3380 -0.4427  1.1746
 5917TIP3   OH241945   0.367   2.113  12.429 -0.1612  0.0118  0.2589
 5917TIP3    H141946   0.371   2.166  12.350 -0.2785 -0.9610 -0.4151
 5917TIP3    H241947   0.298   2.049  12.411  1.2807 -1.6070  0.2609
 5918TIP3   OH241948   1.251   2.719  10.377 -0.0137 -0.1413  0.2216
 5918TIP3    H141949   1.210   2.675  10.302 -0.5461 -0.4126  0.6653
 5918TIP3    H241950   1.328   2.666  10.398  0.1385 -0.0624 -0.1366
 5919TIP3   OH241951   6.157   0.793  10.741  0.3248  0.5340 -0.0762
 5919TIP3    H141952   6.186   0.795  10.833 -1.9819  0.8881  0.7035
 5919TIP3    H241953   6.103   0.714  10.735  0.2362  0.6606 -1.0761
 5920TIP3   OH241954   2.141   0.072  10.218  0.6875 -0.2763 -0.1391
 5920TIP3    H141955   2.054   0.046  10.248  0.9299  0.1179  0.9659
 5920TIP3    H241956   2.188  -0.011  10.204 -0.0658 -0.5069 -1.4160
 5921TIP3   OH241957   2.414   4.523   8.638 -0.5296  0.1287  0.3766
 5921TIP3    H141958   2.484   4.587   8.653  0.4205 -1.0456  1.1768
 5921TIP3    H241959   2.366   4.521   8.721 -2.3213  1.8093 -0.5549
 5922TIP3   OH241960   6.140   4.340   9.316 -0.2263  0.7422  0.2369
 5922TIP3    H141961   6.152   4.326   9.410  1.3365 -0.3226 -0.0910
 5922TIP3    H241962   6.140   4.435   9.306 -0.6351  0.8723  1.3332
 5923TIP3   OH241963   5.727   3.845   9.429 -0.1810  0.1850  0.7060
 5923TIP3    H141964   5.792   3.776   9.418  0.3645  0.8600 -0.3720
 5923TIP3    H241965   5.710   3.877   9.341 -1.4634  0.5047  1.0442
 5924TIP3   OH241966   3.356   3.468   8.947 -0.0580 -0.0173  0.1890
 5924TIP3    H141967   3.291   3.460   8.876  1.3810 -2.4903 -0.9718
 5924TIP3    H241968   3.407   3.545   8.922  0.5782 -0.9736 -1.6925
 5925TIP3   OH241969   0.612   1.497   9.649  0.2763 -0.6091  0.3981
 5925TIP3    H141970   0.650   1.548   9.577  0.8602  1.8599  2.3158
 5925TIP3    H241971   0.518   1.508   9.640  0.1338 -2.7382 -1.5736
 5926TIP3   OH241972   5.260   0.023   9.803 -0.3346  0.0644 -0.5206
 5926TIP3    H141973   5.203   0.063   9.869  0.1009 -1.0382  0.5705
 5926TIP3    H241974   5.272  -0.067   9.834  1.8798  0.2159 -0.7644
 5927TIP3   OH241975   0.349   3.563  10.158 -0.2277 -0.0143 -0.1716
 5927TIP3    H141976   0.258   3.544  10.184  0.2852 -0.7307  1.2106
 5927TIP3    H241977   0.396   3.482  10.175  0.7842  0.5100 -0.3959
 5928TIP3   OH241978   1.906   4.269  10.169  0.3759  0.3796  0.1258
 5928TIP3    H141979   1.947   4.251  10.253 -0.7592 -0.5547  0.5055
 5928TIP3    H241980   1.972   4.246  10.104  0.9918  0.3802  0.7411
 5929TIP3   OH241981   4.399   2.577   8.380 -0.1670  0.0732 -0.4042
 5929TIP3    H141982   4.450   2.651   8.414  1.2744 -0.4747 -1.2935
 5929TIP3    H241983   4.313   2.615   8.359 -0.6892  0.7231  2.4607
 5930TIP3   OH241984   1.484   0.438  11.258  0.2018 -0.3198 -0.0522
 5930TIP3    H141985   1.576   0.417  11.241  0.1271  1.2056 -3.1633
 5930TIP3    H241986   1.449   0.362  11.304  2.9987 -0.8905  1.3432
 5931TIP3   OH241987   4.827   0.843   9.605 -0.7081  0.6587  0.2514
 5931TIP3    H141988   4.747   0.833   9.656 -0.2858 -1.4359  0.6158
 5931TIP3    H241989   4.896   0.853   9.670 -0.6056  2.0847 -0.0520
 5932TIP3   OH241990   5.808   0.578   8.951  0.4122 -0.0271 -0.6192
 5932TIP3    H141991   5.747   0.541   9.014 -0.0544  2.0759  0.2461
 5932TIP3    H241992   5.868   0.506   8.930 -0.0150 -1.0485  1.4553
 5933TIP3   OH241993   4.212   0.724   9.869  0.3276 -0.2742  0.1738
 5933TIP3    H141994   4.145   0.729   9.937  0.3615  0.2092  0.1763
 5933TIP3    H241995   4.294   0.714   9.916  0.2470 -0.9629  0.1678
 5934TIP3   OH241996   1.598   6.247  10.951 -0.8005  0.1542  0.0256
 5934TIP3    H141997   1.688   6.217  10.936 -1.0941 -0.5765 -0.3686
 5934TIP3    H241998   1.552   6.169  10.983 -1.2109  0.6173  0.5808
 5935TIP3   OH241999   5.356   4.537  10.101 -0.6418 -0.2939 -0.0249
 5935TIP3    H142000   5.265   4.508  10.115 -0.2657 -0.5462  2.4769
 5935TIP3    H242001   5.409   4.473  10.149  0.7009  0.8622  0.0985
 5936TIP3   OH242002   1.255   5.584   9.108  0.3380  0.1335 -0.0037
 5936TIP3    H142003   1.218   5.577   9.195 -1.6880 -1.3950 -0.9099
 5936TIP3    H242004   1.226   5.670   9.076 -0.0624  0.1149  0.3083
 5937TIP3   OH242005   3.937   5.968   8.697  0.3968 -0.5674  0.0198
 5937TIP3    H142006   3.893   5.883   8.703 -1.3411  0.3112  0.1690
 5937TIP3    H242007   4.024   5.952   8.735 -0.8095 -1.6644  2.5244
 5938TIP3   OH242008   5.419   1.485  11.018 -0.7040  0.0667  0.1330
 5938TIP3    H142009   5.485   1.438  10.968 -1.2778 -0.9674  0.3306
 5938TIP3    H242010   5.458   1.571  11.035  0.0287 -0.0461 -0.9302
 5939TIP3   OH242011   1.667   4.536   9.836  0.1695 -0.2033  0.2333
 5939TIP3    H142012   1.741   4.581   9.796 -1.0401  0.5735 -1.2734
 5939TIP3    H242013   1.687   4.443   9.827 -0.1127 -0.1055 -2.5412
 5940TIP3   OH242014   0.371   2.304   9.893  0.4675  0.3092 -0.0442
 5940TIP3    H142015   0.392   2.395   9.913 -0.7014  0.7203 -0.5336
 5940TIP3    H242016   0.444   2.273   9.840  0.4416  1.2688 -0.6660
 5941TIP3   OH242017   1.377   2.808   8.530  0.4321 -0.1899 -0.3757
 5941TIP3    H142018   1.379   2.893   8.486 -1.6509  1.6547  2.7050
 5941TIP3    H242019   1.292   2.771   8.506  0.4380 -0.4046 -0.0665
 5942TIP3   OH242020   3.346   0.027   8.396  0.9398 -0.2250 -0.1844
 5942TIP3    H142021   3.381   0.043   8.308 -1.4300 -0.7069 -1.2912
 5942TIP3    H242022   3.338  -0.068   8.402  1.2620 -0.2114  0.6703
 5943TIP3   OH242023   5.283   5.411   9.664  0.2622  0.3288 -0.2356
 5943TIP3    H142024   5.306   5.348   9.733  0.5902  1.6209  0.8629
 5943TIP3    H242025   5.256   5.490   9.711 -0.4241  0.9356 -1.5883
 5944TIP3   OH242026   6.038   5.565   9.646 -0.0565 -0.5597 -0.1075
 5944TIP3    H142027   6.007   5.635   9.588  1.7055  0.1792 -0.2540
 5944TIP3    H242028   6.101   5.609   9.703  1.7733 -2.1664 -0.7814
 5945TIP3   OH242029   4.680   5.312   9.856 -0.1071  0.3079  0.4076
 5945TIP3    H142030   4.610   5.374   9.873 -0.9091 -0.5579  0.3446
 5945TIP3    H242031   4.750   5.364   9.817 -0.7494  1.1661  0.3901
 5946TIP3   OH242032   6.333   1.601   8.974 -0.0502  0.2050 -0.3159
 5946TIP3    H142033   6.385   1.603   8.894 -0.8990  0.4904 -0.8757
 5946TIP3    H242034   6.285   1.518   8.969 -1.8490  1.2326 -1.2743
 5947TIP3   OH242035   3.859   4.084  11.174  0.1219 -0.2401  0.2333
 5947TIP3    H142036   3.790   4.080  11.240 -2.6966  1.5327 -2.3271
 5947TIP3    H242037   3.940   4.095  11.224 -1.4174 -1.8998  3.3910
 5948TIP3   OH242038   2.621   2.407  12.297 -0.4088 -0.3659 -0.2147
 5948TIP3    H142039   2.657   2.330  12.252  2.6074  0.6243  0.2639
 5948TIP3    H242040   2.594   2.373  12.383  0.1255 -1.0570 -0.3040
 5949TIP3   OH242041   6.211   0.787  10.448 -0.3643 -0.7768 -0.8409
 5949TIP3    H142042   6.128   0.824  10.417 -0.6818  0.0073  0.8684
 5949TIP3    H242043   6.206   0.791  10.543  1.1881 -1.7592 -0.6759
 5950TIP3   OH242044   2.909   5.885  11.381 -0.0039 -0.0040  0.1256
 5950TIP3    H142045   2.954   5.949  11.326  0.6008 -0.8676 -0.4091
 5950TIP3    H242046   2.823   5.873  11.340 -0.3617  0.9109  0.5842
 5951TIP3   OH242047   6.455   4.720   8.965  0.1780 -0.2440  0.5790
 5951TIP3    H142048   6.483   4.635   8.931  1.1895  0.0743  0.5780
 5951TIP3    H242049   6.369   4.704   9.004 -0.0907 -1.0527 -0.3128
 5952TIP3   OH242050   2.510   3.098   9.562 -0.1447 -0.0068  0.2115
 5952TIP3    H142051   2.491   3.064   9.475 -0.9732 -0.5010  0.5777
 5952TIP3    H242052   2.439   3.161   9.579  0.0977  0.2008  0.4726
 5953TIP3   OH242053   1.283   3.034  11.270  0.0422  0.0320 -0.4281
 5953TIP3    H142054   1.282   2.978  11.192 -0.6221 -1.8382  0.8278
 5953TIP3    H242055   1.357   3.093  11.257  1.6022 -1.9726 -1.3232
 5954TIP3   OH242056   3.661   2.867  11.075 -0.0609 -0.0006 -0.1284
 5954TIP3    H142057   3.744   2.889  11.033 -1.0305  1.8147 -1.2268
 5954TIP3    H242058   3.685   2.837  11.163  1.7376  0.5736 -0.3985
 5955TIP3   OH242059   1.808   5.028   9.029 -0.1671  0.0308 -0.0601
 5955TIP3    H142060   1.729   5.078   9.008  0.2012  0.9504  0.6658
 5955TIP3    H242061   1.801   4.949   8.976 -0.9377  0.6917 -0.9864
 5956TIP3   OH242062   3.631   3.292  17.287 -0.3915  0.4865 -0.1576
 5956TIP3    H142063   3.607   3.368  17.340 -1.6007  0.9552 -1.3188
 5956TIP3    H242064   3.608   3.317  17.197  0.7410 -0.6336 -0.7909
 5957TIP3   OH242065   1.980   0.428  11.035 -0.0599 -0.3815 -0.0451
 5957TIP3    H142066   1.903   0.485  11.044 -0.7228 -1.2824  0.1907
 5957TIP3    H242067   2.009   0.440  10.945 -1.1646 -0.8538 -0.4868
 5958TIP3   OH242068   4.511   1.260   9.899 -0.2055 -0.1130  0.1094
 5958TIP3    H142069   4.590   1.221   9.936 -1.5634 -2.2464  0.9827
 5958TIP3    H242070   4.478   1.194   9.838 -1.2395  0.7868 -0.3397
 5959TIP3   OH242071   6.045   0.663  11.606 -0.3453  0.1900 -0.4333
 5959TIP3    H142072   6.030   0.569  11.603  0.9901 -0.0191 -2.8455
 5959TIP3    H242073   6.124   0.674  11.659  0.1862 -0.1923 -1.1291
 5960TIP3   OH242074   1.987   2.363  10.332  0.0663  0.2768 -0.1443
 5960TIP3    H142075   1.918   2.381  10.268  0.3418 -0.5794 -0.7126
 5960TIP3    H242076   2.067   2.352  10.279  0.4764  0.4527  0.4265
 5961TIP3   OH242077   5.201   2.762   9.884  0.0849 -0.0332 -0.0122
 5961TIP3    H142078   5.218   2.690   9.944 -0.2701  0.2883  0.4840
 5961TIP3    H242079   5.174   2.720   9.802  0.8613 -0.4807 -0.0441
 5962TIP3   OH242080   3.558   2.851   8.332 -0.6787 -0.1651 -0.4037
 5962TIP3    H142081   3.554   2.915   8.403  1.2020 -0.7569  0.2893
 5962TIP3    H242082   3.511   2.892   8.259 -1.7044  0.9121  0.8180
 5963TIP3   OH242083   0.203   6.366  10.662 -0.1018  0.0383  1.2395
 5963TIP3    H142084   0.218   6.381  10.756 -1.4015 -0.6303  1.5814
 5963TIP3    H242085   0.229   6.276  10.648  1.5375  0.5782  0.5956
 5964TIP3   OH242086   3.249   0.306   9.704 -1.1868 -0.4404 -0.3111
 5964TIP3    H142087   3.265   0.362   9.780 -0.9921 -1.1547  0.1825
 5964TIP3    H242088   3.331   0.309   9.654 -0.7073 -1.3049  0.3938
 5965TIP3   OH242089   0.800   1.763   8.564  0.8536 -0.5408  0.0752
 5965TIP3    H142090   0.710   1.736   8.544  0.5721  1.2821 -1.4152
 5965TIP3    H242091   0.809   1.747   8.658 -0.5552 -2.0048  0.0066
 5966TIP3   OH242092   3.881   2.511  10.160 -0.1267 -0.0796  0.0314
 5966TIP3    H142093   3.891   2.541  10.069  1.7894  0.7554  0.4701
 5966TIP3    H242094   3.866   2.591  10.210 -0.2461 -0.4388  0.5746
 5967TIP3   OH242095   0.799   3.472  10.624  0.0972  0.1333 -0.3217
 5967TIP3    H142096   0.755   3.502  10.703 -1.2232 -0.8224 -0.6653
 5967TIP3    H242097   0.877   3.427  10.656  0.3602  1.0408  0.3482
 5968TIP3   OH242098   0.493   1.210   9.954 -0.3675  0.5112 -0.0446
 5968TIP3    H142099   0.444   1.262  10.017 -1.0599  0.5081 -0.5779
 5968TIP3    H242100   0.571   1.262   9.935 -1.0262  1.3515 -0.5418
 5969TIP3   OH242101   2.876   2.443  11.671  0.4325  0.0330 -0.5748
 5969TIP3    H142102   2.798   2.498  11.667  0.7192  0.5600  0.6775
 5969TIP3    H242103   2.905   2.435  11.580 -0.4389  0.7507 -0.9228
 5970TIP3   OH242104   3.947   2.584  12.604  0.3549  0.4241  0.3892
 5970TIP3    H142105   3.949   2.620  12.693  1.5846  1.3544  0.0099
 5970TIP3    H242106   3.987   2.652  12.550 -0.1978 -0.2152 -0.8535
 5971TIP3   OH242107   2.186   2.956   7.986 -0.1326 -0.2067 -0.5423
 5971TIP3    H142108   2.176   2.954   7.891 -0.3587  0.0484 -0.5266
 5971TIP3    H242109   2.275   2.927   8.001  0.0702  0.2350 -0.8648
 5972TIP3   OH242110   1.173   1.667  10.898  0.0815 -0.5880  0.4867
 5972TIP3    H142111   1.261   1.639  10.872 -0.4970 -1.8496 -0.2093
 5972TIP3    H242112   1.185   1.713  10.981  1.5113  0.1280 -0.0882
 5973TIP3   OH242113   2.968   5.496  11.604 -0.4766 -0.1195  0.6490
 5973TIP3    H142114   2.903   5.562  11.627 -0.2194  0.4063 -0.0889
 5973TIP3    H242115   3.051   5.534  11.633 -0.2651  0.1229 -0.2546
 5974TIP3   OH242116   0.388   3.337   8.412 -0.0277 -0.2490 -0.2497
 5974TIP3    H142117   0.429   3.250   8.418 -0.8287 -0.5445  2.0794
 5974TIP3    H242118   0.431   3.388   8.480 -1.2129  0.4439  0.0040
 5975TIP3   OH242119   1.800   4.840   8.252 -0.0574 -0.1110 -0.2919
 5975TIP3    H142120   1.876   4.898   8.249 -0.7887  0.8324 -1.2791
 5975TIP3    H242121   1.780   4.823   8.160 -0.9663 -0.4469 -0.0373
 5976TIP3   OH242122   1.109   3.942  10.076  0.0307  0.0616  0.0442
 5976TIP3    H142123   1.155   3.903  10.151  1.0614  1.4774  0.1919
 5976TIP3    H242124   1.068   4.021  10.112  0.3772  0.6566 -0.8321
 5977TIP3   OH242125   3.472   6.077   9.301 -0.4669  0.1017  0.2307
 5977TIP3    H142126   3.556   6.114   9.327  0.9453 -2.3064 -0.6243
 5977TIP3    H242127   3.471   6.083   9.205 -1.0013 -0.4544  0.1918
 5978TIP3   OH242128   4.712   1.434  11.112  0.1250 -0.2683 -0.2945
 5978TIP3    H142129   4.778   1.421  11.044  1.2164 -0.2765  0.7320
 5978TIP3    H242130   4.762   1.442  11.193 -1.1443 -0.3018  0.5254
 5979TIP3   OH242131   2.978   0.055   8.544  0.6226  0.1144 -0.0226
 5979TIP3    H142132   3.052   0.031   8.600  0.2559 -2.1752 -0.4137
 5979TIP3    H242133   3.018   0.098   8.469  1.3361  0.9635  0.8192
 5980TIP3   OH242134   1.816   3.272   9.468  0.5067  1.0411 -0.1273
 5980TIP3    H142135   1.834   3.306   9.556  1.4570 -0.7848  0.4331
 5980TIP3    H242136   1.802   3.178   9.482  0.0442  0.8321 -1.8616
 5981TIP3   OH242137   6.581   2.497   9.000  0.2648  0.3715 -0.1249
 5981TIP3    H142138   6.614   2.471   9.086  2.3974  0.4476 -0.8552
 5981TIP3    H242139   6.535   2.579   9.016  1.2554  0.7653  0.8448
 5982TIP3   OH242140   6.583   5.691   9.591 -0.4459  0.3913 -0.0078
 5982TIP3    H142141   6.615   5.766   9.641  1.5989 -1.0666  1.0223
 5982TIP3    H242142   6.539   5.636   9.656 -1.1517  0.2662 -0.5779
 5983TIP3   OH242143   1.342   4.689  10.285  0.4066 -0.0199  0.6739
 5983TIP3    H142144   1.346   4.783  10.303  2.1387 -0.4773  3.3508
 5983TIP3    H242145   1.275   4.656  10.346  0.2594 -0.6174  0.1983
 5984TIP3   OH242146   5.916   1.712   9.556  0.8604  0.0049 -0.3389
 5984TIP3    H142147   6.002   1.736   9.522  1.3221 -1.2989 -0.1781
 5984TIP3    H242148   5.935   1.647   9.624 -0.1822  0.6946  0.6458
 5985TIP3   OH242149   0.117   5.493   9.494  0.0699  0.0621  0.1000
 5985TIP3    H142150   0.050   5.480   9.427 -0.0736  0.3183  0.1935
 5985TIP3    H242151   0.080   5.558   9.553  0.0456 -0.4333  0.6353
 5986TIP3   OH242152   4.130   4.746   9.169  0.0949 -0.2850  0.3286
 5986TIP3    H142153   4.209   4.776   9.215  0.9872 -1.4756 -0.3717
 5986TIP3    H242154   4.136   4.786   9.083  0.2477 -0.8566  0.0729
 5987TIP3   OH242155   0.318   4.405  11.327  0.1166  1.0278  0.0774
 5987TIP3    H142156   0.252   4.402  11.396  1.3527 -0.0684  1.2928
 5987TIP3    H242157   0.399   4.428  11.373  1.1723 -0.6935 -0.8006
 5988TIP3   OH242158   2.780   1.371   9.638  0.5833  0.2583  0.3581
 5988TIP3    H142159   2.750   1.349   9.726  0.6649  0.8292  0.5276
 5988TIP3    H242160   2.751   1.461   9.624  4.3863  1.8698  1.5495
 5989TIP3   OH242161   6.249   3.329  10.691 -0.2506 -0.2396 -0.1772
 5989TIP3    H142162   6.223   3.266  10.758  0.9538 -0.1914  0.3710
 5989TIP3    H242163   6.202   3.409  10.714 -1.8200 -0.9203 -0.8997
 5990TIP3   OH242164   1.967   5.736   8.988 -0.3485  0.0163  0.7270
 5990TIP3    H142165   1.980   5.781   8.905 -1.9918  0.3987  0.6241
 5990TIP3    H242166   2.001   5.797   9.054  1.2330 -0.4182  0.3406
 5991TIP3   OH242167   3.096   4.766  10.487  0.9602 -0.1888  0.0185
 5991TIP3    H142168   3.029   4.739  10.550 -0.1960  1.6196 -0.3567
 5991TIP3    H242169   3.162   4.811  10.539  0.8425 -0.1627  0.1452
 5992TIP3   OH242170   1.372   4.160  12.779 -0.0625 -0.0784  0.4059
 5992TIP3    H142171   1.309   4.174  12.709  0.8164  1.3981 -0.1283
 5992TIP3    H242172   1.457   4.179  12.739  0.6488 -1.1085  1.3626
 5993TIP3   OH242173   0.874   5.005  11.061 -0.0185  0.1556  0.4486
 5993TIP3    H142174   0.892   5.070  10.993 -0.2425  0.7241  0.9226
 5993TIP3    H242175   0.779   5.007  11.072 -0.2861 -1.7212 -0.9532
 5994TIP3   OH242176   3.902   2.229   9.977 -0.3641  0.0886  0.3404
 5994TIP3    H142177   3.869   2.294   9.914  0.7065  1.2555  0.9301
 5994TIP3    H242178   3.986   2.265  10.006 -0.3185 -0.9762  1.6030
 5995TIP3   OH242179   1.981   6.459  11.567 -0.0061 -0.3994  0.0311
 5995TIP3    H142180   2.000   6.365  11.577 -0.1269 -0.4316 -0.0441
 5995TIP3    H242181   2.065   6.502  11.586  0.3189 -0.5768 -0.9706
 5996TIP3   OH242182   0.403   4.716  11.713  0.2992  0.3918 -0.0838
 5996TIP3    H142183   0.397   4.621  11.709  0.6021  0.2994  1.1539
 5996TIP3    H242184   0.444   4.741  11.630  0.6911 -0.5917 -0.2025
 5997TIP3   OH242185   3.633   5.347   8.547 -0.2348  0.2557 -0.0724
 5997TIP3    H142186   3.584   5.320   8.469 -0.0168  0.3677 -0.2510
 5997TIP3    H242187   3.667   5.265   8.583 -1.4556  0.0549  0.6797
 5998TIP3   OH242188   2.023   0.047   9.266  0.1517 -0.4243 -0.1894
 5998TIP3    H142189   2.070   0.095   9.335  0.0629  1.3055 -1.2637
 5998TIP3    H242190   2.091   0.021   9.204 -0.0733  0.7227 -0.9584
 5999TIP3   OH242191   5.154   3.516   8.814  0.2898  0.3979  0.2265
 5999TIP3    H142192   5.128   3.459   8.742 -1.5824  2.0242 -0.4490
 5999TIP3    H242193   5.205   3.586   8.773 -1.5002  1.8027  0.2589
 6000TIP3   OH242194   5.470   1.286   8.946 -0.3996  0.3211  0.4642
 6000TIP3    H142195   5.406   1.227   8.905 -0.3661  1.8463 -1.9247
 6000TIP3    H242196   5.419   1.363   8.971  0.3056  1.1524 -0.5899
 6001TIP3   OH242197   5.716   1.529  11.122 -0.4375  0.0995  0.7707
 6001TIP3    H142198   5.682   1.459  11.067  0.2632  0.1650  0.2474
 6001TIP3    H242199   5.779   1.575  11.067  0.8566 -0.3016  1.8553
 6002TIP3   OH242200   3.520   5.249  12.045 -0.3664  0.1581  0.5090
 6002TIP3    H142201   3.555   5.247  12.135 -0.3438 -1.0443  0.4870
 6002TIP3    H242202   3.490   5.160  12.029 -0.6515  0.4359 -0.5795
 6003TIP3   OH242203   6.656   6.261   8.775 -0.1019 -0.0703  0.2992
 6003TIP3    H142204   6.679   6.194   8.711  0.3574  0.1542  0.2201
 6003TIP3    H242205   6.582   6.225   8.823 -0.5769 -0.1639 -0.4897
 6004TIP3   OH242206   0.882   2.672  12.324 -0.5529 -0.1007  0.2234
 6004TIP3    H142207   0.809   2.626  12.283  0.9792 -1.6165 -0.9588
 6004TIP3    H242208   0.960   2.627  12.291  0.9219  1.3871  1.5084
 6005TIP3   OH242209   4.203   4.321  10.015  0.4415  0.9227 -0.6590
 6005TIP3    H142210   4.252   4.365   9.945  1.7247  2.1739  0.9419
 6005TIP3    H242211   4.235   4.362  10.096 -1.0736 -0.3845  0.6665
 6006TIP3   OH242212   3.630   0.739   8.959  0.6863 -0.7114 -0.2688
 6006TIP3    H142213   3.691   0.811   8.976  1.3081 -0.9523 -1.3932
 6006TIP3    H242214   3.685   0.668   8.927 -0.0750 -1.2783 -0.3401
 6007TIP3   OH242215   0.869   1.080   9.809 -0.9350 -0.1704 -0.0460
 6007TIP3    H142216   0.900   1.167   9.787 -0.8988 -0.2781 -0.4313
 6007TIP3    H242217   0.928   1.021   9.762 -2.7956 -0.3626 -2.3219
 6008TIP3   OH242218   2.934   3.900  10.482  0.2090 -0.3902 -0.0827
 6008TIP3    H142219   2.854   3.884  10.532  0.6130 -1.5975  0.2097
 6008TIP3    H242220   2.957   3.815  10.445  1.8288 -0.2568  0.5327
 6009TIP3   OH242221   0.385   2.824   8.311 -0.8512 -0.1611 -0.0973
 6009TIP3    H142222   0.392   2.733   8.339 -1.0658 -0.0020  0.4824
 6009TIP3    H242223   0.458   2.836   8.251 -0.8179 -0.7120 -0.1731
 6010TIP3   OH242224   2.012   4.078   9.153 -0.6095 -0.1415  0.3401
 6010TIP3    H142225   1.961   4.062   9.074 -1.8845 -1.0196  1.2812
 6010TIP3    H242226   1.953   4.052   9.224 -0.0773  2.0523  1.6702
 6011TIP3   OH242227   4.942   1.499   8.590 -1.1724  0.1936 -0.4506
 6011TIP3    H142228   4.952   1.436   8.518  0.4206  0.7228 -0.7327
 6011TIP3    H242229   5.032   1.516   8.619 -1.6219  1.8804  0.0156
 6012TIP3   OH242230   6.321   3.015   9.587 -0.0697  0.0109  0.2933
 6012TIP3    H142231   6.360   2.928   9.577 -1.0252 -0.4070  0.1865
 6012TIP3    H242232   6.266   3.026   9.510 -0.2163  0.5820  0.4761
 6013TIP3   OH242233   0.227   1.087   9.987  0.1075 -0.0150  0.3315
 6013TIP3    H142234   0.242   1.171  10.031  0.9762  1.0127 -1.7914
 6013TIP3    H242235   0.133   1.088   9.965  0.0444  0.2465  0.6018
 6014TIP3   OH242236   1.266   1.825   8.383  0.4589  0.2304  0.1443
 6014TIP3    H142237   1.182   1.868   8.398  0.0351 -0.1214 -1.1298
 6014TIP3    H242238   1.290   1.790   8.469 -0.5528  0.5801  0.5870
 6015TIP3   OH242239   1.641   2.228   9.458  0.4107 -0.1269  0.7653
 6015TIP3    H142240   1.575   2.260   9.520 -1.6671 -1.6133 -0.5347
 6015TIP3    H242241   1.652   2.135   9.481  1.9883  0.0478  0.8473
 6016TIP3   OH242242   4.796   0.510  11.050 -0.1935 -0.7921 -0.1712
 6016TIP3    H142243   4.870   0.553  11.007 -0.6519 -1.4799 -1.6918
 6016TIP3    H242244   4.814   0.521  11.144  1.6703 -0.6706 -0.5014
 6017TIP3   OH242245   2.586   0.742   8.379  0.6814  0.2822 -0.1620
 6017TIP3    H142246   2.494   0.726   8.359  0.3959 -0.9265  1.7599
 6017TIP3    H242247   2.590   0.833   8.408 -0.8267 -0.6716  3.6848
 6018TIP3   OH242248   2.297   4.442   8.406  0.6421 -0.1707  0.1650
 6018TIP3    H142249   2.341   4.463   8.488 -2.0493 -0.9608  1.9610
 6018TIP3    H242250   2.317   4.349   8.391  1.0585 -0.0502 -0.0366
 6019TIP3   OH242251   6.628   4.945  11.062  0.3674 -0.1650 -0.0139
 6019TIP3    H142252   6.661   5.011  11.001 -0.4050  0.0983 -0.1533
 6019TIP3    H242253   6.594   4.995  11.136  0.1548 -0.4283  0.0684
 6020TIP3   OH242254   4.614   4.655  10.322  0.3213  0.3147  0.2677
 6020TIP3    H142255   4.628   4.704  10.241 -0.6310  0.6071  0.2665
 6020TIP3    H242256   4.630   4.564  10.298  1.9245  0.5896  0.2246
 6021TIP3   OH242257   0.959   4.181  10.784 -0.0634  0.5108 -0.4817
 6021TIP3    H142258   0.917   4.214  10.704  1.4570 -1.5975 -2.2765
 6021TIP3    H242259   0.913   4.098  10.802  1.1099 -0.1812 -0.5715
 6022TIP3   OH242260   6.286   6.182  10.394  0.5774  0.0339 -0.5415
 6022TIP3    H142261   6.228   6.114  10.430  1.1958 -0.7481 -0.9969
 6022TIP3    H242262   6.234   6.226  10.328  0.0825  0.1865 -0.0579
 6023TIP3   OH242263   0.479   4.731   9.516 -0.6138 -0.3587 -0.3290
 6023TIP3    H142264   0.390   4.703   9.537 -0.8822  1.2795  0.8874
 6023TIP3    H242265   0.478   4.826   9.527  1.0530 -0.1963 -1.2169
 6024TIP3   OH242266   0.941   3.170   8.927  0.4546  0.5472 -0.1530
 6024TIP3    H142267   0.864   3.203   8.973  1.1560  0.8416  0.8326
 6024TIP3    H242268   1.004   3.242   8.931  0.6172  0.4969 -1.3941
 6025TIP3   OH242269   3.590   5.755  10.282  0.3546 -0.0110 -0.2762
 6025TIP3    H142270   3.576   5.813  10.357  1.0359  1.9265 -1.5641
 6025TIP3    H242271   3.502   5.726  10.257  0.1288 -0.7612  1.2880
 6026TIP3   OH242272   0.012   2.235   9.516  0.6090  0.0022 -0.4390
 6026TIP3    H142273   0.018   2.191   9.601  1.2177 -0.6593 -0.8134
 6026TIP3    H242274  -0.075   2.276   9.517  0.5170 -0.1878  0.4073
 6027TIP3   OH242275   5.747   4.211   8.510  0.1120  0.2816 -0.0788
 6027TIP3    H142276   5.738   4.296   8.467  1.0621  0.1392 -0.5868
 6027TIP3    H242277   5.715   4.226   8.599  0.2267  1.1629 -0.1754
 6028TIP3   OH242278   4.525   2.591   8.975  0.2707 -0.0742 -1.0520
 6028TIP3    H142279   4.615   2.593   8.945  1.1685 -0.5629  1.3953
 6028TIP3    H242280   4.524   2.647   9.053 -1.4347 -0.3862 -0.8091
 6029TIP3   OH242281   6.459   4.297   8.646  0.4882  0.0114  0.0992
 6029TIP3    H142282   6.425   4.272   8.559  0.2825 -0.3613  0.2826
 6029TIP3    H242283   6.418   4.234   8.706 -0.5535  1.1987  0.6680
 6030TIP3   OH242284   3.106   5.205  11.800 -0.0215 -0.0355 -0.1789
 6030TIP3    H142285   3.099   5.136  11.866  0.7707  0.0515  0.0039
 6030TIP3    H242286   3.188   5.249  11.821  0.8947 -0.7934 -1.9655
 6031TIP3   OH242287   5.013   6.538   9.233 -0.8872 -0.5294 -0.5748
 6031TIP3    H142288   5.030   6.621   9.190 -0.9466 -0.8045 -1.1334
 6031TIP3    H242289   4.978   6.562   9.319 -0.1148  0.0245 -0.4064
 6032TIP3   OH242290   1.403   0.101  11.668 -0.0859  0.5751  0.0696
 6032TIP3    H142291   1.395   0.011  11.700  0.0797 -0.0980 -1.6927
 6032TIP3    H242292   1.346   0.152  11.726  1.9472 -0.1325  2.9249
 6033TIP3   OH242293   6.575   2.824   9.487  0.3148  0.6456  0.2229
 6033TIP3    H142294   6.500   2.768   9.508  1.9478 -1.0036  2.0859
 6033TIP3    H242295   6.578   2.824   9.391 -1.4264 -0.1087  0.1290
 6034TIP3   OH242296   5.293   1.761  11.338 -0.3810  0.0882  0.4341
 6034TIP3    H142297   5.293   1.674  11.379  0.7641  0.8825  2.1985
 6034TIP3    H242298   5.248   1.817  11.400  0.1713  1.0548 -0.0228
 6035TIP3   OH242299   5.716   5.894   9.183 -0.1288  0.3183  0.2266
 6035TIP3    H142300   5.778   5.822   9.171 -0.0409  0.3526  0.4676
 6035TIP3    H242301   5.760   5.970   9.146 -0.1604  0.2786  0.1069
 6036TIP3   OH242302   3.077   2.259   9.390  0.0722  0.3746  0.0213
 6036TIP3    H142303   3.136   2.186   9.410  0.4468  1.3099  2.7306
 6036TIP3    H242304   3.054   2.246   9.298 -0.1470 -3.3035  0.4466
 6037TIP3   OH242305   2.931   1.894   9.386  0.0157  0.1959  0.2572
 6037TIP3    H142306   2.919   1.808   9.347  0.5414 -0.1373  0.8142
 6037TIP3    H242307   2.957   1.877   9.477 -0.3379  0.9447  0.5127
 6038TIP3   OH242308   6.005   0.412   8.848  0.0743 -0.2087  0.3287
 6038TIP3    H142309   5.968   0.346   8.790 -0.8235 -0.1869  0.8678
 6038TIP3    H242310   6.079   0.368   8.890  0.1737 -0.5055 -0.1528
 6039TIP3   OH242311   3.515   0.730  10.623  0.0299  0.1675  0.4294
 6039TIP3    H142312   3.446   0.666  10.642 -1.7301  1.9465  0.3964
 6039TIP3    H242313   3.531   0.773  10.707  0.5250  0.3402  0.2533
 6040TIP3   OH242314   5.505   4.953   9.865  0.3226  0.3476 -0.2748
 6040TIP3    H142315   5.486   4.907   9.947 -2.5968  0.7000 -0.6136
 6040TIP3    H242316   5.536   4.885   9.806 -1.4237 -0.7614 -0.0029
 6041TIP3   OH242317   0.585   6.209  10.141 -0.2213  0.5317  0.2149
 6041TIP3    H142318   0.662   6.254  10.104  0.7517  0.1995  1.7579
 6041TIP3    H242319   0.513   6.270  10.126  0.3414  0.8977 -1.1862
 6042TIP3   OH242320   0.075   6.235   9.768  0.8683 -0.4954 -0.2456
 6042TIP3    H142321   0.113   6.323   9.769  0.7287 -0.4295 -0.6636
 6042TIP3    H242322  -0.019   6.249   9.758  0.8577 -0.6985 -0.4330
 6043TIP3   OH242323   3.653   0.694   9.275 -0.0231  0.0579  0.1245
 6043TIP3    H142324   3.674   0.690   9.368  1.4073  1.2203 -0.1162
 6043TIP3    H242325   3.723   0.746   9.236 -0.6567 -0.2878 -1.5943
 6044TIP3   OH242326   0.823   2.505  11.982  0.3664  0.4553  0.4310
 6044TIP3    H142327   0.771   2.453  12.043 -1.5480  2.1713  0.3846
 6044TIP3    H242328   0.912   2.500  12.016 -0.1345 -1.0261  1.6447
 6045TIP3   OH242329   2.127   6.535  11.825  0.0247 -0.1631  0.3554
 6045TIP3    H142330   2.192   6.605  11.832  1.9245 -1.5890 -1.4262
 6045TIP3    H242331   2.170   6.458  11.863 -0.1552 -1.3813 -1.7356
 6046TIP3   OH242332   1.460   4.735   8.613  0.1403 -0.3888  0.2038
 6046TIP3    H142333   1.421   4.654   8.644  0.1734 -1.1203 -1.5368
 6046TIP3    H242334   1.542   4.743   8.662  0.3817 -1.6905  0.0382
 6047TIP3   OH242335   2.240   0.331  11.275  0.3254  0.4292 -0.1152
 6047TIP3    H142336   2.222   0.412  11.324  0.1935  0.4531 -0.2037
 6047TIP3    H242337   2.321   0.298  11.313  0.2686  0.4932  0.0632
 6048TIP3   OH242338   1.586   5.911   8.927 -0.3328 -0.1050 -0.7564
 6048TIP3    H142339   1.547   5.864   9.001 -0.0319  0.4064 -0.2631
 6048TIP3    H242340   1.591   5.846   8.857  2.2927 -1.6076  0.6293
 6049TIP3   OH242341   0.502   6.025   9.424  0.2553 -0.0801  0.0590
 6049TIP3    H142342   0.508   5.943   9.375  1.1359  0.2609 -0.4115
 6049TIP3    H242343   0.451   6.083   9.368  1.6577  0.4647 -0.7065
 6050TIP3   OH242344   5.484   0.893  10.902 -0.3043 -0.1361 -0.2369
 6050TIP3    H142345   5.551   0.928  10.960 -0.8227 -0.9775  0.9141
 6050TIP3    H242346   5.489   0.798  10.914 -0.8229 -0.2838 -1.1219
 6051TIP3   OH242347   4.555   5.652  10.195 -0.2044  0.7024 -0.1063
 6051TIP3    H142348   4.640   5.614  10.170 -0.8407 -2.2164  1.7140
 6051TIP3    H242349   4.532   5.708  10.121  1.7188 -1.1233 -2.2723
 6052TIP3   OH242350   5.778   0.092  10.356  0.6680 -0.1847 -0.0637
 6052TIP3    H142351   5.772   0.187  10.350 -1.9042 -0.3051 -0.8686
 6052TIP3    H242352   5.696   0.061  10.317  1.9400 -2.7831 -0.8878
 6053TIP3   OH242353   1.639   2.622   8.253  0.3644  0.1859  0.5566
 6053TIP3    H142354   1.689   2.702   8.234 -0.2997  0.1284 -1.6239
 6053TIP3    H242355   1.702   2.551   8.241  0.4083  0.2536  0.3904
 6054TIP3   OH242356   3.672   5.986  11.984 -0.7551  0.5972 -0.3079
 6054TIP3    H142357   3.614   5.925  12.030 -0.2068 -0.8342 -1.4373
 6054TIP3    H242358   3.724   6.026  12.053 -1.7983  0.5196  0.5511
 6055TIP3   OH242359   2.357   5.199   9.453  0.2551  0.0543 -0.2140
 6055TIP3    H142360   2.376   5.141   9.379 -1.2610  0.0451 -0.6393
 6055TIP3    H242361   2.429   5.261   9.454  0.3435  0.0133 -1.6752
 6056TIP3   OH242362   4.479   2.682   9.233 -0.0557  0.0717 -0.2021
 6056TIP3    H142363   4.574   2.694   9.232 -0.2262  1.5284 -0.8360
 6056TIP3    H242364   4.452   2.714   9.319 -0.1320  1.1044 -0.6030
 6057TIP3   OH242365   0.235   5.122   9.366 -0.2363 -0.0665  0.1123
 6057TIP3    H142366   0.298   5.077   9.309  2.1392  2.4089  0.5357
 6057TIP3    H242367   0.181   5.173   9.305 -0.5573 -0.7175 -0.1543
 6058TIP3   OH242368   5.215   5.339   8.453 -0.2944 -0.3893 -0.1126
 6058TIP3    H142369   5.249   5.251   8.467  0.3133 -0.0490  0.6141
 6058TIP3    H242370   5.271   5.376   8.385  0.6649  0.0830  0.9070
 6059TIP3   OH242371   3.067   6.325  11.848  0.1471  0.3203  0.6941
 6059TIP3    H142372   3.096   6.394  11.788 -0.8279  0.4913  0.4009
 6059TIP3    H242373   2.971   6.330  11.846 -0.2076 -3.4000 -2.1867
 6060TIP3   OH242374   2.243   1.849   8.530  0.1353 -0.3596  0.0708
 6060TIP3    H142375   2.174   1.910   8.556  1.2874  0.3309  1.6669
 6060TIP3    H242376   2.318   1.904   8.509  0.8684 -1.1737  0.4603
 6061TIP3   OH242377   0.286   5.028   9.084  0.4612  0.1047  0.1257
 6061TIP3    H142378   0.310   5.091   9.016  2.1951 -0.0152  0.5791
 6061TIP3    H242379   0.312   4.943   9.048  0.6548 -0.0413  0.5945
 6062TIP3   OH242380   5.742   1.395  10.090  0.0422 -0.8089 -0.0666
 6062TIP3    H142381   5.666   1.418  10.143  0.7567 -0.1061  0.6834
 6062TIP3    H242382   5.719   1.424  10.001 -0.8932 -1.3811 -0.0232
 6063TIP3   OH242383   5.088   1.458  11.520 -0.7133 -0.3419 -0.0752
 6063TIP3    H142384   5.095   1.363  11.532  0.1626 -0.6575 -2.6406
 6063TIP3    H242385   5.177   1.487  11.504 -1.2522  0.5307 -1.6713
 6064TIP3   OH242386   2.311   3.395  11.022  0.1469 -0.2214  0.4985
 6064TIP3    H142387   2.228   3.423  10.983  0.6825 -0.6530 -0.9815
 6064TIP3    H242388   2.370   3.470  11.009  0.1928 -0.1757  0.9451
 6065TIP3   OH242389   3.208   1.567  10.553 -0.3922  0.1366 -0.1156
 6065TIP3    H142390   3.113   1.563  10.561 -0.5473 -0.4613 -1.8085
 6065TIP3    H242391   3.236   1.475  10.553  0.1620  0.3009  0.0578
 6066TIP3   OH242392   4.161   1.770  12.126  0.2317  0.3041  0.1340
 6066TIP3    H142393   4.198   1.848  12.167  1.0258 -0.6950  1.3843
 6066TIP3    H242394   4.222   1.748  12.056  0.9591 -0.1821  0.9035
 6067TIP3   OH242395   5.889   5.420   9.831  0.4467  0.2376  0.1515
 6067TIP3    H142396   5.952   5.447   9.765  0.5199  0.1927  0.2028
 6067TIP3    H242397   5.922   5.456   9.913  1.1041 -0.8657  0.3902
 6068TIP3   OH242398   3.071   2.541   9.987  0.0524 -0.3272  0.0828
 6068TIP3    H142399   3.035   2.538  10.075  1.1980 -0.9462  0.5427
 6068TIP3    H242400   3.058   2.453   9.953  1.6608 -0.7354  0.4824
 6069TIP3   OH242401   1.663   5.280  10.189  0.1154  0.5777 -0.6434
 6069TIP3    H142402   1.656   5.373  10.213  2.0968  0.2332  1.5485
 6069TIP3    H242403   1.750   5.273  10.149 -0.4724 -0.1782 -1.8494
 6070TIP3   OH242404   1.953   1.680   9.575  0.1996 -0.0236  0.6385
 6070TIP3    H142405   2.028   1.623   9.594 -0.3095 -0.5474  1.0945
 6070TIP3    H242406   1.930   1.718   9.660  2.0432  2.8019  0.0222
 6071TIP3   OH242407   1.609   4.090   9.053 -0.9117  0.2079  0.1742
 6071TIP3    H142408   1.664   4.087   9.131 -2.1524 -0.0034  1.0693
 6071TIP3    H242409   1.553   4.166   9.066 -0.6360  0.6182 -0.8827
 6072TIP3   OH242410   2.770   2.288   9.589 -0.0747 -0.7338  0.1892
 6072TIP3    H142411   2.792   2.274   9.497  0.2694  1.1508 -0.0536
 6072TIP3    H242412   2.758   2.200   9.625 -1.7592 -1.4980 -2.0164
 6073TIP3   OH242413   2.949   6.008  10.495 -0.1692 -0.1364 -0.4571
 6073TIP3    H142414   3.023   6.019  10.435  0.1990  1.5219  0.2413
 6073TIP3    H242415   2.946   5.914  10.513  1.3673 -0.3050 -0.9750
 6074TIP3   OH242416   2.078   3.063   8.500  0.1369  1.2509  0.2278
 6074TIP3    H142417   2.052   2.971   8.497  1.8096  0.7714 -1.7341
 6074TIP3    H242418   2.021   3.101   8.566 -1.2893 -0.9719  0.4069
 6075TIP3   OH242419   0.165   2.999  10.466  0.0790  0.1525 -0.3900
 6075TIP3    H142420   0.174   2.948  10.386  1.0037  0.9723 -0.8296
 6075TIP3    H242421   0.109   3.073  10.441 -0.6136 -0.2128  0.0415
 6076TIP3   OH242422   4.018   1.151  12.041 -0.0726 -0.0019 -0.1650
 6076TIP3    H142423   4.007   1.166  12.135  0.4069 -1.3123  0.1338
 6076TIP3    H242424   4.038   1.057  12.034 -0.2547  0.0361 -1.5903
 6077TIP3   OH242425   0.608   2.233   9.383 -0.0153  0.4624  0.5215
 6077TIP3    H142426   0.602   2.297   9.454 -0.2608  0.6465  0.3401
 6077TIP3    H242427   0.608   2.287   9.303 -1.8975  0.1918  0.2881
 6078TIP3   OH242428   5.324   2.997   9.795 -0.2672 -0.1022 -0.0464
 6078TIP3    H142429   5.410   2.978   9.833 -0.4497  0.8635  0.8936
 6078TIP3    H242430   5.271   2.920   9.818  0.7870 -1.6014 -2.2609
 6079TIP3   OH242431   4.206   6.311   8.921  0.5638 -0.1697 -0.0982
 6079TIP3    H142432   4.112   6.327   8.930  0.5844  0.0465 -0.2610
 6079TIP3    H242433   4.220   6.227   8.965  0.2371 -0.3722 -0.3699
 6080TIP3   OH242434   2.728   2.704  11.754  0.0388  0.0647 -0.2811
 6080TIP3    H142435   2.781   2.783  11.738 -0.6973  0.7776  0.7030
 6080TIP3    H242436   2.643   2.725  11.714 -0.4140  0.1042  0.6857
 6081TIP3   OH242437   5.937   5.217  11.937  0.2322  0.1995  0.1248
 6081TIP3    H142438   5.859   5.188  11.984  0.1295  1.4388  0.7396
 6081TIP3    H242439   5.957   5.303  11.973  2.4285 -0.4507  0.6257
 6082TIP3   OH242440   2.124   5.307   9.723 -0.0272  0.6425 -0.2372
 6082TIP3    H142441   2.063   5.244   9.763  1.1262 -1.8566 -2.1242
 6082TIP3    H242442   2.067   5.378   9.693 -1.5315  0.1308  1.2221
 6083TIP3   OH242443   3.057   6.408   9.067 -0.2559  0.0506  0.1151
 6083TIP3    H142444   3.048   6.375   8.978  1.3431  0.0637 -0.0646
 6083TIP3    H242445   3.118   6.348   9.110 -2.1668 -0.8868  1.7200
 6084TIP3   OH242446   3.506   2.306  10.984 -0.2107 -0.0055  0.1684
 6084TIP3    H142447   3.570   2.264  11.041 -1.6635 -1.9914  0.4423
 6084TIP3    H242448   3.555   2.374  10.938  1.8644 -0.8825  0.9784
 6085TIP3   OH242449   5.368   3.996  10.768  0.1241 -0.1836  0.6597
 6085TIP3    H142450   5.391   3.998  10.861 -0.1185 -1.1773  0.7514
 6085TIP3    H242451   5.443   4.035  10.724 -0.9227  3.0409  1.4585
 6086TIP3   OH242452   6.324   1.576  12.217  0.1271 -0.2361  0.5838
 6086TIP3    H142453   6.388   1.506  12.204  1.9229  1.4821 -0.5539
 6086TIP3    H242454   6.346   1.641  12.150 -2.2514  0.8820  0.7726
 6087TIP3   OH242455   2.716   2.044  12.416 -0.2021  0.1947 -0.2948
 6087TIP3    H142456   2.653   1.972  12.418  0.7548 -0.6729 -0.4859
 6087TIP3    H242457   2.722   2.068  12.324  2.1507 -1.9736 -0.8376
 6088TIP3   OH242458   3.980   5.545   8.854  0.1588  0.9088 -0.3000
 6088TIP3    H142459   4.054   5.573   8.907  0.4716  1.0064 -0.7784
 6088TIP3    H242460   4.011   5.464   8.811 -0.2368  0.6019 -0.0141
 6089TIP3   OH242461   1.919   1.727   9.148 -0.1642  0.5878  0.3463
 6089TIP3    H142462   1.942   1.669   9.075 -1.5481 -0.4865  0.7136
 6089TIP3    H242463   1.948   1.814   9.120  2.7235 -0.3488  0.1226
 6090TIP3   OH242464   2.626   2.116   8.186 -0.2463  0.1264  0.6258
 6090TIP3    H142465   2.616   2.088   8.095 -1.3309  0.3148  0.6741
 6090TIP3    H242466   2.679   2.196   8.181  0.2660 -0.2295  0.2271
 6091TIP3   OH242467   2.777   4.247   9.628  0.1661  0.2113  0.2670
 6091TIP3    H142468   2.763   4.220   9.718  2.0511  0.6080  0.7180
 6091TIP3    H242469   2.764   4.168   9.576 -2.5425  0.3000  0.6323
 6092TIP3   OH242470   2.866   3.112  10.553 -0.6158 -0.1486 -0.0801
 6092TIP3    H142471   2.777   3.077  10.547 -0.7734  0.0972  0.7018
 6092TIP3    H242472   2.906   3.090  10.468 -0.9976 -1.3926  0.0364
 6093TIP3   OH242473   2.674   3.896   8.497  0.3902 -0.1561 -0.3117
 6093TIP3    H142474   2.752   3.952   8.497  0.4126 -0.1675 -1.4779
 6093TIP3    H242475   2.701   3.817   8.543  2.1262 -1.5411 -3.4103
 6094TIP3   OH242476   4.282   0.115  10.405  0.2752  0.0786 -0.1564
 6094TIP3    H142477   4.243   0.165  10.477 -0.2911 -0.1193 -0.3243
 6094TIP3    H242478   4.215   0.114  10.337  0.3957 -0.6542 -0.2746
 6095TIP3   OH242479   3.777   0.186   9.025  0.7105  0.1951  0.0227
 6095TIP3    H142480   3.756   0.241   8.949  0.9434  0.1758 -0.0571
 6095TIP3    H242481   3.692   0.168   9.065  0.4001 -1.1353 -1.1548
 6096TIP3   OH242482   0.289   4.519   9.892  0.8764 -0.1953  0.3642
 6096TIP3    H142483   0.344   4.447   9.923 -1.4102 -1.9741  0.5567
 6096TIP3    H242484   0.230   4.538   9.965  0.9021  1.3625  0.0222
 6097TIP3   OH242485   5.847   3.162  10.646 -0.1722 -0.4525  0.2228
 6097TIP3    H142486   5.921   3.222  10.644  0.8303 -1.5988  1.5404
 6097TIP3    H242487   5.823   3.156  10.739 -1.0538 -1.1459 -0.0337
 6098TIP3   OH242488   3.700   2.275   9.454  0.7469 -0.3186 -0.0685
 6098TIP3    H142489   3.793   2.255   9.466  1.0582 -0.6275 -2.5109
 6098TIP3    H242490   3.665   2.200   9.407 -0.5542  0.1744  0.0716
 6099TIP3   OH242491   3.934   5.218   8.938 -0.2167  0.1404  0.2707
 6099TIP3    H142492   3.985   5.149   8.896  0.4629  0.4742  0.5481
 6099TIP3    H242493   3.931   5.289   8.873 -0.4691  0.0621  0.1928
 6100TIP3   OH242494   2.093   5.838   8.743 -0.2009 -0.2134 -0.0513
 6100TIP3    H142495   2.137   5.756   8.720  2.1915  1.2898 -1.2440
 6100TIP3    H242496   2.108   5.895   8.667 -1.1407  1.5759  1.0382
 6101TIP3   OH242497   1.274   1.364   9.216  0.4579  0.2891 -0.7091
 6101TIP3    H142498   1.346   1.388   9.159  0.9408  2.2351  0.6384
 6101TIP3    H242499   1.214   1.438   9.213 -1.0049 -0.8507 -0.9836
 6102TIP3   OH242500   3.729   3.536  12.113 -0.8961 -0.2309 -0.1159
 6102TIP3    H142501   3.690   3.449  12.103  0.7307 -0.8844 -1.3001
 6102TIP3    H242502   3.811   3.520  12.159 -0.2833  0.5831 -0.8947
 6103TIP3   OH242503   6.087   2.090  10.990  0.5560 -0.2874 -0.2563
 6103TIP3    H142504   6.110   2.097  10.898  0.2278  3.0651 -0.2052
 6103TIP3    H242505   6.106   2.177  11.027 -1.9175 -0.6092  2.1784
 6104TIP3   OH242506   5.624   2.451  10.048 -0.0049  0.2318  0.6613
 6104TIP3    H142507   5.592   2.361  10.044  0.7673 -0.0355  0.4043
 6104TIP3    H242508   5.679   2.453  10.127  1.6168 -0.0847 -0.4076
 6105TIP3   OH242509   6.178   3.831  10.861 -0.4440 -0.0273 -0.5579
 6105TIP3    H142510   6.268   3.842  10.831 -0.0797  1.6098  0.9842
 6105TIP3    H242511   6.178   3.749  10.910 -0.0409 -0.4886 -1.3040
 6106TIP3   OH242512   0.187   1.147  11.181 -0.2682 -0.1435  0.3848
 6106TIP3    H142513   0.159   1.064  11.219  0.6064 -0.3532  0.5959
 6106TIP3    H242514   0.227   1.124  11.097 -0.0147  0.0620  0.4469
 6107TIP3   OH242515   3.550   4.528  10.037 -0.2118 -0.3828 -0.3807
 6107TIP3    H142516   3.543   4.445  10.085  1.0186 -0.7801 -0.8556
 6107TIP3    H242517   3.598   4.505   9.957 -0.5498  0.6473 -0.8942
 6108TIP3   OH242518   4.111   0.037   9.988 -0.3075  0.3751 -0.1042
 6108TIP3    H142519   4.178  -0.002  10.044 -0.0564  2.5215  1.1954
 6108TIP3    H242520   4.159   0.070   9.912 -0.4187 -1.1115 -0.8441
 6109TIP3   OH242521   5.791   1.774  10.450 -0.2196  0.0254  0.0740
 6109TIP3    H142522   5.834   1.857  10.473 -1.1761  0.7464 -0.6327
 6109TIP3    H242523   5.786   1.726  10.532  0.1670  0.7573  0.5384
 6110TIP3   OH242524   3.458   5.468  10.916  0.4252 -0.8180 -1.0280
 6110TIP3    H142525   3.401   5.486  10.841 -0.3017 -2.1155 -0.8077
 6110TIP3    H242526   3.530   5.416  10.879  1.0060  0.0444 -1.1354
 6111TIP3   OH242527   1.943   6.572  12.111  0.3422 -0.6564 -0.1881
 6111TIP3    H142528   1.942   6.663  12.143  1.3017  0.4791 -3.0447
 6111TIP3    H242529   1.989   6.524  12.179  1.3028  1.3369  0.6721
 6112TIP3   OH242530   3.020   2.283   9.708  0.0419 -0.3013  0.1136
 6112TIP3    H142531   2.929   2.310   9.707  0.3140  0.7297  1.0138
 6112TIP3    H242532   3.050   2.297   9.618 -0.5102 -0.0354 -0.0344
 6113TIP3   OH242533   3.350   2.625   8.265 -0.1311 -0.3499 -0.0440
 6113TIP3    H142534   3.444   2.640   8.271  0.4587 -3.3403 -0.3008
 6113TIP3    H242535   3.315   2.708   8.233  2.6127  0.3404 -1.6131
 6114TIP3   OH242536   5.214   6.481  10.312  0.5194 -0.2292 -0.2556
 6114TIP3    H142537   5.259   6.435  10.383  0.9336 -0.9027 -0.9422
 6114TIP3    H242538   5.283   6.531  10.268  0.3627 -0.2584 -0.5352
 6115TIP3   OH242539   0.321   3.211   8.648  0.4661  0.3191 -0.1850
 6115TIP3    H142540   0.380   3.141   8.619  1.4510 -0.0787  2.4787
 6115TIP3    H242541   0.241   3.165   8.676 -0.7325  0.7516 -2.6555
 6116TIP3   OH242542   2.743   0.105   8.680  0.6211 -0.3428 -0.5278
 6116TIP3    H142543   2.738   0.201   8.680 -0.3901 -0.3266  1.8029
 6116TIP3    H242544   2.811   0.085   8.616  1.1658  1.9335 -0.7736
 6117TIP3   OH242545   0.746   1.641  10.141 -0.0183 -0.1976 -0.1401
 6117TIP3    H142546   0.688   1.693  10.086  0.1712  0.7808  0.5693
 6117TIP3    H242547   0.688   1.583  10.190 -0.5143  1.4213  1.2604
 6118TIP3   OH242548   3.005   5.947   9.113  0.2425  0.1928  0.4916
 6118TIP3    H142549   2.922   5.968   9.071  0.5236  0.8463  0.2575
 6118TIP3    H242550   3.005   6.001   9.193  0.9975  1.1695 -0.1469
 6119TIP3   OH242551   3.847   3.964   8.818  0.8782  0.2257 -0.0666
 6119TIP3    H142552   3.824   4.011   8.738 -0.1203 -0.5038 -0.2265
 6119TIP3    H242553   3.927   4.008   8.849  0.2654  1.6817 -0.4652
 6120TIP3   OH242554   2.730   2.963   8.205  0.4226  0.6125  0.7911
 6120TIP3    H142555   2.764   2.997   8.288  2.3696  0.0667  0.2496
 6120TIP3    H242556   2.733   3.038   8.146  0.7318  0.5480  0.7260
 6121TIP3   OH242557   6.004   5.832   9.808  0.2348 -0.0036  0.4546
 6121TIP3    H142558   6.021   5.848   9.714  0.7522 -1.1336  0.3411
 6121TIP3    H242559   6.092   5.827   9.847  0.0383 -0.4585  0.8401
 6122TIP3   OH242560   4.909   2.162   8.436 -0.0586 -0.5392  0.1713
 6122TIP3    H142561   5.001   2.178   8.413  0.3762 -2.9081  0.0200
 6122TIP3    H242562   4.860   2.223   8.381  1.3887  0.1917 -0.3616
 6123TIP3   OH242563   2.940   3.264  11.085 -0.5315  0.1628  0.7477
 6123TIP3    H142564   2.932   3.179  11.127 -0.9996 -0.2112 -0.0694
 6123TIP3    H242565   3.020   3.301  11.121  1.9197 -2.2790 -1.7022
 6124TIP3   OH242566   2.058   1.477  10.650  0.5644 -0.0915 -0.5742
 6124TIP3    H142567   1.973   1.449  10.615  0.9274 -0.1888 -1.3960
 6124TIP3    H242568   2.119   1.466  10.577  1.2524  0.1586 -0.0489
 6125TIP3   OH242569   4.692   3.207   9.552  0.3026 -0.6924  0.1175
 6125TIP3    H142570   4.656   3.121   9.530  0.4265 -0.4394 -1.1258
 6125TIP3    H242571   4.787   3.194   9.549  0.3623 -0.9497  1.7862
 6126TIP3   OH242572   5.259   6.173   9.136 -0.1754  0.2725  0.1726
 6126TIP3    H142573   5.196   6.242   9.157  1.4498  1.0632  3.1838
 6126TIP3    H242574   5.334   6.221   9.099 -0.9089 -0.5629 -2.6168
 6127TIP3   OH242575   3.123   0.275  12.058 -0.0048  0.3658  0.3098
 6127TIP3    H142576   3.204   0.246  12.015 -0.0916  0.0300  0.3747
 6127TIP3    H242577   3.152   0.319  12.137  0.0617 -0.8934  1.0043
 6128TIP3   OH242578   3.962   2.324  11.102  0.0587  0.1603 -0.0468
 6128TIP3    H142579   4.048   2.363  11.089 -0.9393  3.5276  2.1527
 6128TIP3    H242580   3.907   2.361  11.033 -0.2417  0.2806  0.2488
 6129TIP3   OH242581   5.717   0.612  10.657 -1.0542 -0.6743 -0.2203
 6129TIP3    H142582   5.667   0.537  10.624 -0.8407  0.3861 -3.2310
 6129TIP3    H242583   5.661   0.687  10.638  0.2163  0.2225 -0.5215
 6130TIP3   OH242584   2.340   4.754  11.448 -0.5463  0.4285  0.2022
 6130TIP3    H142585   2.399   4.823  11.417 -0.0341  0.1754  0.5952
 6130TIP3    H242586   2.340   4.763  11.543 -0.8402  0.1737  0.2280
 6131TIP3   OH242587   5.910   4.117   9.909 -0.1294 -0.2229  0.1908
 6131TIP3    H142588   5.923   4.031   9.950 -0.1459 -1.3444 -2.0274
 6131TIP3    H242589   5.848   4.101   9.838 -0.1429  1.6485 -0.2704
 6132TIP3   OH242590   2.418   4.048   9.427  0.0503  0.2047 -0.0861
 6132TIP3    H142591   2.481   3.977   9.435 -1.1613 -0.8944  0.1219
 6132TIP3    H242592   2.414   4.066   9.333  0.5104  0.1321 -0.1198
 6133TIP3   OH242593   5.688   0.676  10.111  0.6765 -0.0358 -0.7018
 6133TIP3    H142594   5.658   0.680  10.201 -0.8155  0.1393 -1.1724
 6133TIP3    H242595   5.779   0.707  10.113 -0.1352  2.4717  0.3761
 6134TIP3   OH242596   1.029   5.808  11.161  0.1410  0.0212  0.5659
 6134TIP3    H142597   1.118   5.822  11.193  0.0358 -1.8699  1.8365
 6134TIP3    H242598   0.974   5.866  11.214  0.3587 -0.6120  1.4976
 6135TIP3   OH242599   2.732   5.278   9.749  0.7152 -0.0392 -0.1073
 6135TIP3    H142600   2.718   5.319   9.834  2.2176  2.0094 -0.7623
 6135TIP3    H242601   2.800   5.212   9.763 -0.5429 -1.2269  0.6389
 6136TIP3   OH242602   6.028   3.845  10.633 -0.2316  0.1189 -0.5092
 6136TIP3    H142603   6.081   3.840  10.712 -0.7716 -0.2730 -0.1635
 6136TIP3    H242604   6.084   3.810  10.564 -0.5402 -1.7379  0.1147
 6137TIP3   OH242605   1.426   4.139   9.506 -0.1454 -0.1948 -0.0746
 6137TIP3    H142606   1.453   4.099   9.589 -0.3665 -0.7050 -0.2448
 6137TIP3    H242607   1.349   4.191   9.529 -0.5611 -0.8011 -0.0576
 6138TIP3   OH242608   1.152   0.026   9.246 -0.4208  0.3905  0.6752
 6138TIP3    H142609   1.102  -0.036   9.299 -0.2994  0.5502  0.9776
 6138TIP3    H242610   1.139  -0.004   9.156  0.4008 -0.6448  0.8851
 6139TIP3   OH242611   3.892   5.642   9.162 -0.3783 -0.1680 -0.0457
 6139TIP3    H142612   3.913   5.549   9.168 -0.2773 -0.1783 -0.5318
 6139TIP3    H242613   3.974   5.686   9.183 -0.2899 -0.1954 -0.3274
 6140TIP3   OH242614   0.432   2.068  10.308  0.2898  0.3892  0.7805
 6140TIP3    H142615   0.449   1.974  10.314 -0.3367  0.1556 -0.6218
 6140TIP3    H242616   0.408   2.082  10.216  0.4675  1.9369  0.9455
 6141TIP3   OH242617   0.380   6.433   9.871  0.5276  0.1175  0.4807
 6141TIP3    H142618   0.466   6.432   9.828  1.2616  0.3018  1.8578
 6141TIP3    H242619   0.349   6.523   9.859  0.0920 -0.1918 -0.8105
 6142TIP3   OH242620   2.785   1.705   9.906  1.0030  0.2358 -0.0617
 6142TIP3    H142621   2.794   1.750   9.822  1.3158 -0.2759 -0.3053
 6142TIP3    H242622   2.694   1.721   9.932  0.6898 -0.1878 -0.8457
 6143TIP3   OH242623   5.450   0.174   8.703 -0.4543 -0.3544  0.1088
 6143TIP3    H142624   5.373   0.144   8.654  0.4426  0.6526 -2.0332
 6143TIP3    H242625   5.454   0.268   8.687  1.3178 -0.4067  0.0361
 6144TIP3   OH242626   4.327   2.684   9.961  0.4690  0.7606  0.8788
 6144TIP3    H142627   4.312   2.687  10.056 -0.6968  1.3574  0.6978
 6144TIP3    H242628   4.240   2.700   9.923  0.4006 -1.9429 -0.3136
 6145TIP3   OH242629   2.271   6.461   9.288  0.2442  0.2495 -0.4067
 6145TIP3    H142630   2.353   6.413   9.283 -0.6131 -1.3211 -0.0231
 6145TIP3    H242631   2.247   6.477   9.197  0.1554 -0.7690 -0.5780
 6146TIP3   OH242632   0.309   2.598  11.583 -0.0347  0.0712  0.9270
 6146TIP3    H142633   0.361   2.547  11.645  0.5604 -0.3804  0.0746
 6146TIP3    H242634   0.223   2.606  11.625 -0.2482 -1.9113  0.9321
 6147TIP3   OH242635   6.579   2.074   9.794  0.0505  0.3931  0.2681
 6147TIP3    H142636   6.577   2.017   9.717 -0.6635  1.9940 -0.9601
 6147TIP3    H242637   6.637   2.030   9.855  0.4095 -1.0807 -1.0655
 6148TIP3   OH242638   5.862   2.256   9.851  0.1521 -0.1070  0.0200
 6148TIP3    H142639   5.795   2.302   9.800 -0.0905 -0.0348  0.3966
 6148TIP3    H242640   5.889   2.183   9.796  1.8375  1.4720 -1.3635
 6149TIP3   OH242641   5.817   0.330   9.642 -0.5506  0.1892 -0.7230
 6149TIP3    H142642   5.810   0.236   9.661 -0.5284  0.2058 -0.6317
 6149TIP3    H242643   5.735   0.366   9.674 -1.0527  0.0308 -1.8035
 6150TIP3   OH242644   5.313   0.430   9.361 -0.7419 -0.2460  0.4001
 6150TIP3    H142645   5.390   0.481   9.386 -1.9282  1.1369  1.4318
 6150TIP3    H242646   5.256   0.493   9.317 -0.7024 -1.5791 -1.6668
 6151TIP3   OH242647   5.384   3.735  10.895 -0.6914 -0.1883 -0.1212
 6151TIP3    H142648   5.380   3.807  10.832  1.4068 -1.2329 -1.5772
 6151TIP3    H242649   5.414   3.660  10.844 -0.9662 -1.6342  1.7298
 6152TIP3   OH242650   4.107   1.777  11.142 -0.2268 -0.4653  0.1909
 6152TIP3    H142651   4.020   1.815  11.127 -1.3099 -2.9756 -0.2925
 6152TIP3    H242652   4.166   1.837  11.097 -1.9886 -0.1252 -1.8490
 6153TIP3   OH242653   0.794   2.188  12.762  0.1374  0.1925 -0.3587
 6153TIP3    H142654   0.805   2.157  12.672 -2.0232 -0.2421 -0.5395
 6153TIP3    H242655   0.874   2.237  12.781  1.4827 -1.3155 -1.8244
 6154TIP3   OH242656   1.247   0.555  11.879  0.1983  0.7915 -0.1545
 6154TIP3    H142657   1.160   0.532  11.911  1.4273 -0.6270  2.4403
 6154TIP3    H242658   1.244   0.534  11.785 -1.9070 -0.2666  0.0896
 6155TIP3   OH242659   2.474   1.536  10.397  0.6768 -0.0754 -0.8365
 6155TIP3    H142660   2.437   1.624  10.392 -1.2155 -0.7679  0.0611
 6155TIP3    H242661   2.522   1.535  10.480 -0.4257 -0.2730 -0.1879
 6156TIP3   OH242662   1.955   0.343   8.823  0.0936  0.2491 -0.4209
 6156TIP3    H142663   1.968   0.412   8.888  0.5613 -0.2172 -0.0092
 6156TIP3    H242664   1.866   0.312   8.838  0.8189 -1.1602  1.3027
 6157TIP3   OH242665   3.715   6.573  11.747 -0.4892  0.1027 -0.2382
 6157TIP3    H142666   3.627   6.610  11.743 -0.6552 -0.3975 -1.6256
 6157TIP3    H242667   3.760   6.608  11.670  0.3147 -0.1767  0.0906
 6158TIP3   OH242668   2.652   5.917  11.292  0.0660 -0.1746  0.0024
 6158TIP3    H142669   2.614   6.001  11.263 -1.9096 -0.7125  0.8643
 6158TIP3    H242670   2.633   5.857  11.220 -2.6604 -0.9212  1.2165
 6159TIP3   OH242671   3.961   2.545   9.103  0.0479  0.1538  0.2051
 6159TIP3    H142672   4.002   2.467   9.065  0.7912 -1.0783  3.2304
 6159TIP3    H242673   4.028   2.613   9.095  1.3443 -0.8639  1.7810
 6160TIP3   OH242674   0.645   5.136   9.734 -0.0973  0.0356 -0.1009
 6160TIP3    H142675   0.736   5.111   9.723  0.4140  1.2581  1.0345
 6160TIP3    H242676   0.628   5.124   9.828 -1.6512 -1.8282 -0.5433
 6161TIP3   OH242677   6.080   0.421  10.941 -0.0204 -0.0239 -0.1526
 6161TIP3    H142678   5.991   0.433  10.908 -0.0954 -2.6299 -1.0879
 6161TIP3    H242679   6.132   0.486  10.893 -1.2696  0.9476 -0.2310
 6162TIP3   OH242680   4.045   4.080   9.904  0.3952  0.3946  0.3747
 6162TIP3    H142681   4.111   4.149   9.906 -1.0210  1.8665 -0.7990
 6162TIP3    H242682   4.095   3.999   9.897  2.0866  1.4283 -0.0933
 6163TIP3   OH242683   3.990   1.930  11.944  0.1234  0.3512 -0.2096
 6163TIP3    H142684   4.026   1.842  11.932 -1.1585 -0.2222 -0.0121
 6163TIP3    H242685   3.977   1.938  12.038 -3.9620 -1.0762 -0.4466
 6164TIP3   OH242686   2.360   2.508  12.123 -0.2681 -0.1875 -0.0256
 6164TIP3    H142687   2.396   2.509  12.211 -1.5369 -1.1697  0.5295
 6164TIP3    H242688   2.427   2.550  12.069  0.0718  1.4145  1.5586
 6165TIP3   OH242689   5.441   5.965   9.300  0.9149  1.2490  0.6195
 6165TIP3    H142690   5.394   6.030   9.248  0.1100 -0.8673 -1.4181
 6165TIP3    H242691   5.523   5.951   9.253  1.0686  0.7418  1.0242
 6166TIP3   OH242692   2.855   0.173   9.846 -0.6236 -0.2241 -0.3513
 6166TIP3    H142693   2.920   0.117   9.889  0.1925 -0.5996 -2.0115
 6166TIP3    H242694   2.819   0.226   9.918 -0.2563 -1.7108  0.9984
 6167TIP3   OH242695   0.426   2.428   8.778  0.1456 -0.1056  0.0472
 6167TIP3    H142696   0.464   2.479   8.706 -0.5485  0.2172 -0.1071
 6167TIP3    H242697   0.397   2.346   8.736 -2.2850  0.9763 -0.5547
 6168TIP3   OH242698   5.108   1.250   9.092  0.4062 -0.1473  0.1824
 6168TIP3    H142699   5.126   1.336   9.054  0.0157 -0.2654 -0.2616
 6168TIP3    H242700   5.143   1.257   9.182  0.6543  0.3685  0.0530
 6169TIP3   OH242701   6.314   1.759  16.961 -0.1771 -0.1936  0.6546
 6169TIP3    H142702   6.307   1.673  17.002 -1.0689  0.1136  1.1921
 6169TIP3    H242703   6.358   1.814  17.026  1.3301 -0.4707 -0.0873
 6170TIP3   OH242704   1.082   2.009  11.050 -0.3044 -0.3708  0.9483
 6170TIP3    H142705   1.138   1.933  11.063  0.0122  0.0037  1.9210
 6170TIP3    H242706   1.088   2.058  11.133 -0.0725  0.9877  0.1657
 6171TIP3   OH242707   4.306   6.247  11.343  0.2194 -0.2411 -0.2506
 6171TIP3    H142708   4.369   6.318  11.356 -1.9550  1.6030  0.8888
 6171TIP3    H242709   4.293   6.210  11.431  0.9652 -1.7531 -0.7569
 6172TIP3   OH242710   5.342   4.291  11.300  0.1350  0.0169  0.8303
 6172TIP3    H142711   5.274   4.306  11.366 -0.8285  0.6662 -0.2734
 6172TIP3    H242712   5.411   4.352  11.322  0.4278 -0.7210  2.0310
 6173TIP3   OH242713   4.250   3.234  10.083  0.2216 -0.4034  0.1051
 6173TIP3    H142714   4.233   3.160  10.024 -0.9857 -0.5028  0.5349
 6173TIP3    H242715   4.241   3.197  10.171 -1.3600  0.4127  0.3360
 6174TIP3   OH242716   4.321   0.685  11.191 -0.1922 -0.3345  0.2500
 6174TIP3    H142717   4.246   0.739  11.214 -1.7729 -1.1068 -2.5513
 6174TIP3    H242718   4.353   0.722  11.108 -0.4405 -2.7068 -1.0056
 6175TIP3   OH242719   4.083   2.335   8.970  0.0339  0.1885 -1.0209
 6175TIP3    H142720   4.010   2.301   8.919  0.0390 -2.1288  0.3709
 6175TIP3    H242721   4.155   2.274   8.953  1.0627  1.3253 -0.8781
 6176TIP3   OH242722   3.123   1.022  11.121  0.1104 -0.4415  0.0519
 6176TIP3    H142723   3.111   1.045  11.029 -0.9476  1.4461  0.6106
 6176TIP3    H242724   3.034   1.001  11.152  0.0742  1.1921  1.1676
 6177TIP3   OH242725   4.426   3.607  11.092 -0.0377 -0.3652 -0.3516
 6177TIP3    H142726   4.372   3.667  11.040 -0.9084 -0.2412  0.6645
 6177TIP3    H242727   4.490   3.665  11.134 -0.3486 -0.2441 -0.0345
 6178TIP3   OH242728   0.459   5.690  11.456 -0.4003 -0.0072  0.2221
 6178TIP3    H142729   0.454   5.734  11.371 -2.3010 -0.4376  0.0700
 6178TIP3    H242730   0.374   5.707  11.497  0.1130 -0.6627  1.6020
 6179TIP3   OH242731   2.212   4.658   9.542 -0.2529 -0.4836 -0.0592
 6179TIP3    H142732   2.118   4.675   9.531 -0.2046 -1.0080 -1.6162
 6179TIP3    H242733   2.235   4.606   9.465  1.4887  0.3367 -0.1204
 6180TIP3   OH242734   1.536   3.181   9.310  0.0529  0.0574 -0.0316
 6180TIP3    H142735   1.498   3.206   9.394  0.1891 -0.4034  0.1678
 6180TIP3    H242736   1.557   3.088   9.320  0.5888  0.1408 -0.3779
 6181TIP3   OH242737   3.505   3.331  10.126  0.5189 -0.0736 -0.0241
 6181TIP3    H142738   3.510   3.423  10.099  1.4478 -0.6339 -1.9865
 6181TIP3    H242739   3.485   3.335  10.219  3.7759  2.2255  0.7748
 6182TIP3   OH242740   6.228   3.521  11.811  0.1342  0.1292  0.3692
 6182TIP3    H142741   6.155   3.518  11.748 -1.5436  0.1214  2.2289
 6182TIP3    H242742   6.246   3.430  11.832  0.0774  0.1678  0.5854
 6183TIP3   OH242743   5.281   5.841  10.199  0.1132  0.2576 -0.4659
 6183TIP3    H142744   5.318   5.837  10.111 -1.2895 -1.0499 -1.0210
 6183TIP3    H242745   5.215   5.772  10.202  0.8912 -0.5120  1.9869
 6184TIP3   OH242746   1.818   3.268   8.899 -0.0563  0.4174  0.2845
 6184TIP3    H142747   1.817   3.299   8.990 -0.7689  0.0768  0.4047
 6184TIP3    H242748   1.741   3.211   8.893  0.8985 -0.8574 -0.0927
 6185TIP3   OH242749   6.104   5.620  10.803 -0.3388 -0.5550  0.1628
 6185TIP3    H142750   6.094   5.705  10.760 -1.4778  0.3540  2.1057
 6185TIP3    H242751   6.198   5.609  10.814 -0.0953 -0.2043 -1.2770
 6186TIP3   OH242752   4.980   1.780   9.934  0.3069  0.1040 -0.2913
 6186TIP3    H142753   5.009   1.725  10.007  0.4213 -1.0022 -1.1475
 6186TIP3    H242754   4.916   1.839   9.973  1.0716  0.1763  0.8987
 6187TIP3   OH242755   5.201   3.176  11.036  0.0966 -0.2887 -0.4480
 6187TIP3    H142756   5.145   3.106  11.003  1.0744 -0.3449 -2.1088
 6187TIP3    H242757   5.140   3.242  11.068 -0.8443 -1.9354  1.3435
 6188TIP3   OH242758   3.198   1.544   9.285  0.6205 -0.3977 -0.7968
 6188TIP3    H142759   3.205   1.634   9.254 -1.9187  0.0297 -0.3539
 6188TIP3    H242760   3.256   1.494   9.228  2.3669  1.5422 -0.8257
 6189TIP3   OH242761   1.285   2.916  10.980  0.0118 -0.2592  0.0364
 6189TIP3    H142762   1.268   2.825  11.003  1.0920 -0.4030  0.3336
 6189TIP3    H242763   1.234   2.931  10.900  0.6746 -1.4680 -0.6346
 6190TIP3   OH242764   5.980   3.524   8.775  0.9056 -0.1483 -0.1292
 6190TIP3    H142765   5.899   3.521   8.827  0.3023  0.1918 -1.0250
 6190TIP3    H242766   6.029   3.597   8.811  0.8432 -0.4004  0.4711
 6191TIP3   OH242767   5.252   0.888   9.213 -0.2945 -0.2860 -0.1241
 6191TIP3    H142768   5.285   0.978   9.210  1.7292 -0.9667 -3.0246
 6191TIP3    H242769   5.204   0.878   9.131 -1.1907 -1.6538  0.5314
 6192TIP3   OH242770   3.954   3.166  11.473  0.0103 -0.6059  0.5592
 6192TIP3    H142771   4.001   3.186  11.554  0.4913 -0.7786  0.3254
 6192TIP3    H242772   3.980   3.234  11.412  2.4773 -2.3760 -0.5711
 6193TIP3   OH242773   0.081   6.515   8.772  0.3370 -0.0995  0.4138
 6193TIP3    H142774   0.165   6.489   8.809 -0.0253 -2.8126 -0.4952
 6193TIP3    H242775   0.037   6.433   8.750 -3.8971  0.8921  3.6401
 6194TIP3   OH242776   3.839   3.708   8.868 -0.1654 -0.4370 -0.0329
 6194TIP3    H142777   3.813   3.689   8.778  0.5533  1.4850 -0.6904
 6194TIP3    H242778   3.866   3.800   8.867  1.1578 -0.7394  1.8516
 6195TIP3   OH242779   2.544   3.880   8.903  0.2640 -0.6840 -0.7637
 6195TIP3    H142780   2.531   3.868   8.997 -2.3271  1.6623 -0.7094
 6195TIP3    H242781   2.634   3.910   8.895  0.0833  0.5135  1.1496
 6196TIP3   OH242782   5.258   2.843  11.072  0.6280  0.5868  0.0103
 6196TIP3    H142783   5.168   2.867  11.049  0.6750  0.4665 -0.3105
 6196TIP3    H242784   5.249   2.775  11.138  0.4846  0.6714  0.0795
 6197TIP3   OH242785   3.218   1.309   9.941 -0.5806 -0.0960 -0.3165
 6197TIP3    H142786   3.142   1.295   9.998 -1.2412 -0.6248 -1.2714
 6197TIP3    H242787   3.181   1.350   9.863  0.2496  0.3418 -0.4852
 6198TIP3   OH242788   2.244   1.958  11.374 -0.4703 -0.4169  0.1180
 6198TIP3    H142789   2.227   1.877  11.421  1.3131 -0.5370  0.6377
 6198TIP3    H242790   2.276   1.931  11.288 -0.0500 -0.2747  0.2264
 6199TIP3   OH242791   0.965   0.874  10.711  0.2439  0.4970 -0.2753
 6199TIP3    H142792   0.958   0.967  10.733 -0.1216  0.4219 -0.0774
 6199TIP3    H242793   0.886   0.854  10.661  0.3470  0.3034 -0.3653
 6200TIP3   OH242794   3.228   0.510  10.239  0.1837  0.0619  0.0202
 6200TIP3    H142795   3.189   0.567  10.305  1.3674  0.8451  0.0689
 6200TIP3    H242796   3.156   0.454  10.210 -0.8685  1.1867  0.3968
 6201TIP3   OH242797   3.077   2.841   9.314 -0.3400  0.5187 -0.4053
 6201TIP3    H142798   3.168   2.811   9.314 -0.3357  0.3927  1.3608
 6201TIP3    H242799   3.029   2.771   9.271 -0.1973 -1.7487  2.7495
 6202TIP3   OH242800   5.291   4.095   9.488  0.2813 -0.2423  0.5061
 6202TIP3    H142801   5.234   4.022   9.464 -0.7335  0.4020  0.9212
 6202TIP3    H242802   5.357   4.056   9.545 -0.8498 -0.6671  1.5644
 6203TIP3   OH242803   4.223   2.521  11.410 -0.2119 -0.0741 -0.3214
 6203TIP3    H142804   4.185   2.598  11.454 -1.0773  0.3246 -1.7099
 6203TIP3    H242805   4.297   2.497  11.465 -0.7488  0.9104  0.9014
 6204TIP3   OH242806   3.541   0.185  10.084  0.1548  0.2661  0.9387
 6204TIP3    H142807   3.513   0.100  10.118 -0.0551  0.0590  0.2607
 6204TIP3    H242808   3.602   0.219  10.150 -0.0375 -0.2464  1.3824
 6205TIP3   OH242809   2.777   2.078  10.300  0.2628  0.0896 -0.0818
 6205TIP3    H142810   2.737   2.121  10.376  0.1192  0.0078 -0.1121
 6205TIP3    H242811   2.839   2.142  10.267 -0.2463  0.4388 -0.3754
 6206TIP3   OH242812   1.042   5.436  11.284  0.0243 -0.0158  0.1072
 6206TIP3    H142813   1.115   5.448  11.224  0.1764  2.6045  0.6732
 6206TIP3    H242814   1.076   5.380  11.354  1.6959  1.5366  0.6084
 6207TIP3   OH242815   2.505   1.587   9.296 -0.8296 -0.3644 -0.1917
 6207TIP3    H142816   2.439   1.551   9.237  0.3981 -1.1415 -1.1404
 6207TIP3    H242817   2.480   1.679   9.307 -1.7783 -0.5202 -0.9192
 6208TIP3   OH242818   5.836   4.225   9.451  0.1593  0.4351 -0.2848
 6208TIP3    H142819   5.890   4.167   9.397  0.7399 -1.0757  1.7648
 6208TIP3    H242820   5.775   4.265   9.390  1.2641 -0.5763 -2.1493
 6209TIP3   OH242821   0.832   0.470   9.015  0.1218  0.4921  0.0931
 6209TIP3    H142822   0.828   0.548   9.071 -1.3618  0.9496 -0.5851
 6209TIP3    H242823   0.909   0.483   8.960  1.3718  0.2292  1.7169
 6210TIP3   OH242824   2.255   1.108   8.899 -0.7265 -0.3985  0.3731
 6210TIP3    H142825   2.311   1.180   8.869 -0.1789 -0.8662  0.2642
 6210TIP3    H242826   2.214   1.075   8.820  0.7926 -1.6959  0.0756
 6211TIP3   OH242827   1.846   3.827  10.581  0.5132  0.6190  0.3511
 6211TIP3    H142828   1.819   3.909  10.622 -2.2320  0.2000 -0.4469
 6211TIP3    H242829   1.863   3.851  10.489  2.1759  0.6979  0.6382
 6212TIP3   OH242830   3.830   2.357  12.009  0.2313 -0.8962 -0.6405
 6212TIP3    H142831   3.737   2.366  11.990  0.2026  1.9769  0.3677
 6212TIP3    H242832   3.833   2.310  12.092 -0.9288  4.2633  2.8049
 6213TIP3   OH242833   1.131   6.259  11.206  0.1044  0.2941  0.1779
 6213TIP3    H142834   1.207   6.300  11.164  0.4436 -1.9489 -1.6038
 6213TIP3    H242835   1.158   6.169  11.221 -1.9900 -0.4019  0.0255
 6214TIP3   OH242836   0.683   5.859   8.884 -0.1820  0.0634  0.2861
 6214TIP3    H142837   0.704   5.774   8.922 -1.0152  0.1901  1.0882
 6214TIP3    H242838   0.589   5.869   8.899 -0.2348  0.8137 -0.4493
 6215TIP3   OH242839   5.440   1.386   9.855 -0.2648 -0.6564 -0.4632
 6215TIP3    H142840   5.385   1.313   9.883  0.4073 -0.7975  0.5582
 6215TIP3    H242841   5.421   1.456   9.918 -0.2377 -0.2571 -0.8923
 6216TIP3   OH242842   2.537   5.835  10.401 -0.0315  0.1455 -0.2964
 6216TIP3    H142843   2.445   5.853  10.382 -0.0914 -0.2251 -0.3763
 6216TIP3    H242844   2.559   5.893  10.474 -0.6737 -0.6198  0.5301
 6217TIP3   OH242845   1.040   4.192  11.201 -0.0686 -0.4153 -0.0329
 6217TIP3    H142846   0.952   4.230  11.206  0.6443  1.2666  0.0899
 6217TIP3    H242847   1.049   4.142  11.282 -1.1013 -1.0612 -0.2917
 6218TIP3   OH242848   1.636   1.949   8.557 -0.0404  0.0708  0.5791
 6218TIP3    H142849   1.568   1.902   8.508  1.2840 -1.2020 -0.1329
 6218TIP3    H242850   1.628   2.040   8.528 -0.5920 -0.2982 -0.4905
 6219TIP3   OH242851   4.543   2.382   8.503 -0.1612  0.2554 -0.6254
 6219TIP3    H142852   4.476   2.314   8.499  0.9641 -0.8778 -0.8282
 6219TIP3    H242853   4.507   2.455   8.454 -0.6957 -0.8277 -1.8849
 6220TIP3   OH242854   2.456   2.907   8.179 -0.4632  0.2453  0.1253
 6220TIP3    H142855   2.393   2.941   8.244 -3.0833 -0.7239 -1.7465
 6220TIP3    H242856   2.542   2.926   8.217 -1.8425  2.0847  2.6272
 6221TIP3   OH242857   6.139   3.572  11.445 -0.3747 -0.3051 -0.1705
 6221TIP3    H142858   6.085   3.607  11.517 -0.5718 -0.5845 -0.1800
 6221TIP3    H242859   6.121   3.478  11.446  1.0664 -0.6119  0.6392
 6222TIP3   OH242860   4.844   5.323  11.908  0.1037 -0.0575  0.4180
 6222TIP3    H142861   4.854   5.381  11.833  0.1238 -0.8239 -0.1926
 6222TIP3    H242862   4.751   5.300  11.908 -0.0244  0.4374  1.0171
 6223TIP3   OH242863   3.955   2.250   9.492  0.4156 -0.3059  0.0905
 6223TIP3    H142864   4.013   2.301   9.548 -0.7586  0.9292  0.2183
 6223TIP3    H242865   3.984   2.269   9.403 -0.1900  0.8588  0.1202
 6224TIP3   OH242866   6.083   3.815   8.715 -0.2878 -0.3985  0.0939
 6224TIP3    H142867   6.023   3.802   8.788  0.4466  1.7769  1.1955
 6224TIP3    H242868   6.168   3.784   8.747  0.1131  0.8878  0.3645
 6225TIP3   OH242869   4.519   5.071  10.868 -0.5172  0.6681  0.0979
 6225TIP3    H142870   4.588   5.131  10.837  0.8361 -1.5981 -1.6199
 6225TIP3    H242871   4.445   5.088  10.810 -0.2368  0.8405 -0.2157
 6226TIP3   OH242872   0.641   2.315   9.757 -0.2732 -0.2240  0.1611
 6226TIP3    H142873   0.589   2.350   9.685 -2.2466 -0.4731  1.3624
 6226TIP3    H242874   0.690   2.390   9.791 -2.0311  0.7127  0.7362
 6227TIP3   OH242875   3.727   3.564  10.817 -0.1759  0.6680 -0.1375
 6227TIP3    H142876   3.810   3.543  10.860  0.2170  0.9925 -0.7202
 6227TIP3    H242877   3.707   3.653  10.846  0.6054  1.2821 -1.3691
 6228TIP3   OH242878   2.601   5.466  10.831  0.9451  0.7346  0.4100
 6228TIP3    H142879   2.577   5.507  10.748  0.2815 -0.1148  0.1627
 6228TIP3    H242880   2.697   5.465  10.831  1.0361 -1.7474 -1.6760
 6229TIP3   OH242881   2.505   3.473   8.784  0.2457  0.3408  0.4053
 6229TIP3    H142882   2.439   3.529   8.743  0.2327 -0.0972 -0.1848
 6229TIP3    H242883   2.485   3.477   8.877 -0.9206 -0.1742  0.1907
 6230TIP3   OH242884   5.857   4.837  11.434 -0.0015  0.3346  0.4615
 6230TIP3    H142885   5.914   4.842  11.357 -0.9365 -0.6194 -0.3262
 6230TIP3    H242886   5.913   4.862  11.507  0.9390  1.1455 -0.5132
 6231TIP3   OH242887   6.460   0.212  10.260 -0.2357 -0.5424  0.4950
 6231TIP3    H142888   6.545   0.240  10.225  0.0244 -1.6350  0.2260
 6231TIP3    H242889   6.397   0.273  10.221  0.2520 -0.6564 -0.5042
 6232TIP3   OH242890   4.984   2.381  11.449  0.0170  0.1204  0.0005
 6232TIP3    H142891   5.046   2.438  11.495  0.2539  0.2866 -0.5055
 6232TIP3    H242892   4.950   2.322  11.516 -0.0424  0.6975  0.4834
 6233TIP3   OH242893   6.402   1.006   9.673 -0.4038  0.1902 -0.0949
 6233TIP3    H142894   6.479   0.954   9.649 -0.7514 -1.2783  1.7376
 6233TIP3    H242895   6.387   1.063   9.597  1.3551 -0.7959 -1.2590
 6234TIP3   OH242896   2.782   3.243   8.077 -0.7592  0.6385  0.0202
 6234TIP3    H142897   2.756   3.320   8.127 -0.2767  0.9725 -0.2244
 6234TIP3    H242898   2.782   3.273   7.986  1.0232  0.8365  0.0546
 6235TIP3   OH242899   1.372   4.545  11.216 -0.2617 -0.1578  0.3293
 6235TIP3    H142900   1.285   4.513  11.192 -0.0974  0.2318 -0.8682
 6235TIP3    H242901   1.379   4.629  11.172  0.2111  0.4535  1.5379
 6236TIP3   OH242902   4.614   4.130  11.288  1.0847  0.3074 -0.5994
 6236TIP3    H142903   4.639   4.054  11.340 -1.4847  0.1393  0.5354
 6236TIP3    H242904   4.624   4.204  11.347 -0.8793  0.2301 -0.0795
 6237TIP3   OH242905   5.815   5.146   9.873  0.6794  0.3670  0.5194
 6237TIP3    H142906   5.751   5.133   9.803 -0.0468 -0.0210  1.2402
 6237TIP3    H242907   5.847   5.235   9.860  0.0636  0.5317  0.0850
 6238TIP3   OH242908   1.813   6.254   9.082  0.0169  0.2093  0.0469
 6238TIP3    H142909   1.900   6.219   9.064 -0.8325 -2.0748  0.0388
 6238TIP3    H242910   1.760   6.225   9.008 -1.2052 -0.3533  1.0935
 6239TIP3   OH242911   3.645   2.668  11.350 -0.2060 -0.0065  0.3281
 6239TIP3    H142912   3.736   2.680  11.325 -0.1214 -0.8168  0.2242
 6239TIP3    H242913   3.645   2.674  11.446  0.0038 -0.3011  0.3468
 6240TIP3   OH242914   0.179   3.803   9.676 -0.0317  0.0011  0.1945
 6240TIP3    H142915   0.237   3.750   9.730 -0.2104 -0.5144 -0.1106
 6240TIP3    H242916   0.109   3.831   9.735 -0.1611 -0.4585  0.2603
 6241TIP3   OH242917   6.640   4.020   8.961  0.3829 -0.0793  0.6142
 6241TIP3    H142918   6.624   4.045   9.052 -0.1253  1.4237  0.1447
 6241TIP3    H242919   6.580   4.074   8.911  0.9923 -0.5465 -0.6561
 6242TIP3   OH242920   3.289   1.663  10.852  1.0770  0.4089  0.3500
 6242TIP3    H142921   3.243   1.740  10.885 -1.0863 -0.5768 -0.1493
 6242TIP3    H242922   3.353   1.698  10.790 -0.5179  1.7846 -0.5991
 6243TIP3   OH242923   5.741   0.412   9.208  0.3085 -0.0097 -0.2436
 6243TIP3    H142924   5.704   0.350   9.270  1.5894 -1.7926 -1.1840
 6243TIP3    H242925   5.835   0.411   9.225  0.6204 -0.1335 -1.8171
 6244TIP3   OH242926   5.046   3.385  11.164  0.0109 -0.0987  0.3861
 6244TIP3    H142927   4.994   3.317  11.208 -0.8331  0.2786  0.0018
 6244TIP3    H242928   5.030   3.464  11.215  0.6949 -0.0990  0.6127
 6245TIP3   OH242929   1.550   1.310  10.768  0.2089 -0.5538  0.4956
 6245TIP3    H142930   1.612   1.337  10.700  1.8283 -3.3261  0.7510
 6245TIP3    H242931   1.464   1.317  10.726  0.6088  2.6753 -0.0979
 6246TIP3   OH242932   0.577   1.023   8.950 -0.2001 -0.3654  0.6233
 6246TIP3    H142933   0.636   0.976   9.009  0.1942  1.3906  1.7273
 6246TIP3    H242934   0.576   1.112   8.985  0.2447  0.8410 -2.1674
 6247TIP3   OH242935   6.329   2.641  10.717  0.4728  0.4288  0.3526
 6247TIP3    H142936   6.268   2.715  10.723 -0.4137 -0.0952 -1.4014
 6247TIP3    H242937   6.410   2.672  10.757 -0.5556  1.5865  1.5929
 6248TIP3   OH242938   6.163   3.196  10.252 -0.2118  0.6884 -0.7107
 6248TIP3    H142939   6.154   3.225  10.161 -0.1823  2.0068 -0.3145
 6248TIP3    H242940   6.242   3.142  10.252  0.1344  1.1676 -1.3645
 6249TIP3   OH242941   5.455   5.467  10.595 -0.3297  0.2087  0.3605
 6249TIP3    H142942   5.413   5.553  10.601  1.1477  1.1543 -1.5862
 6249TIP3    H242943   5.534   5.475  10.649 -0.5495 -0.1846  0.7467
 6250TIP3   OH242944   5.323   6.001   9.543  0.4400  0.2863 -0.7477
 6250TIP3    H142945   5.359   5.986   9.455  2.8662  1.9380 -0.1311
 6250TIP3    H242946   5.278   6.085   9.536  0.3675  0.2716 -0.4583
 6251TIP3   OH242947   4.993   5.952   8.781 -0.0018 -0.1357  0.5984
 6251TIP3    H142948   5.070   5.943   8.838  0.0567 -0.9248  0.4014
 6251TIP3    H242949   4.928   5.893   8.819 -0.3645  0.2024  0.5097
 6252TIP3   OH242950   3.598   3.834   8.617  0.4025  0.4632 -0.5672
 6252TIP3    H142951   3.524   3.813   8.559  1.7242  0.5885 -2.3984
 6252TIP3    H242952   3.592   3.929   8.630 -0.0913  0.3869 -0.1978
 6253TIP3   OH242953   4.947   2.246  11.722 -0.2133  0.2777  0.3131
 6253TIP3    H142954   4.868   2.292  11.749 -0.2475 -0.0253  0.7346
 6253TIP3    H242955   5.016   2.284  11.776 -0.2328 -0.1273  0.6225
 6254TIP3   OH242956   3.291   5.947   9.492 -0.4965  0.0084  0.2121
 6254TIP3    H142957   3.330   5.957   9.578 -0.4458 -1.6008  0.4132
 6254TIP3    H242958   3.348   5.997   9.434 -0.1314  0.5300  1.0075
 6255TIP3   OH242959   0.933   1.501   9.955  0.5646  0.6959 -0.1616
 6255TIP3    H142960   0.869   1.543  10.012 -0.6545  0.5958 -1.4082
 6255TIP3    H242961   0.998   1.569   9.937 -0.1904  1.3753 -0.3757
 6256TIP3   OH242962   3.676   5.116   8.694 -0.7007 -0.1705  0.1024
 6256TIP3    H142963   3.713   5.028   8.685 -1.1448 -0.3370 -0.1013
 6256TIP3    H242964   3.582   5.103   8.692 -0.8254  0.5417 -2.5300
 6257TIP3   OH242965   5.283   0.021   9.047 -0.1007  0.2108  0.4427
 6257TIP3    H142966   5.234  -0.032   8.985  0.5344 -1.4646  1.3267
 6257TIP3    H242967   5.372   0.023   9.012 -0.1432  0.8050  0.3559
 6258TIP3   OH242968   4.497   5.080   8.904 -0.4046 -0.2791 -0.5688
 6258TIP3    H142969   4.485   4.988   8.927 -2.5598  0.5623  2.2722
 6258TIP3    H242970   4.591   5.096   8.916 -0.3433 -1.6047  1.1217
 6259TIP3   OH242971   4.012   0.651   8.816 -0.1258 -0.4773 -0.1030
 6259TIP3    H142972   4.103   0.647   8.788  0.5182 -0.4729  1.7919
 6259TIP3    H242973   4.014   0.622   8.908 -1.8959  0.3436  0.2496
 6260TIP3   OH242974   6.380   0.487   9.430  0.5169 -0.2881  0.0778
 6260TIP3    H142975   6.374   0.406   9.379  2.9048 -0.0004 -0.7951
 6260TIP3    H242976   6.382   0.557   9.363 -1.4552  0.5475  0.8077
 6261TIP3   OH242977   0.882   1.691   8.806  0.8702 -0.0802 -0.6648
 6261TIP3    H142978   0.833   1.651   8.878 -1.3969  0.6253 -1.6993
 6261TIP3    H242979   0.950   1.743   8.848 -0.4404  0.3771  0.9988
 6262TIP3   OH242980   6.624   3.741   8.809 -0.4337  0.7400 -0.9900
 6262TIP3    H142981   6.630   3.802   8.883 -1.1676 -0.5534  0.2004
 6262TIP3    H242982   6.671   3.663   8.840 -0.9598  0.0922 -1.8095
 6263TIP3   OH242983   5.176   2.785  10.423 -0.0027  0.2635  0.0794
 6263TIP3    H142984   5.267   2.787  10.454  0.1060  1.8648 -0.2628
 6263TIP3    H242985   5.157   2.693  10.410  2.7664 -0.0167 -3.3374
 6264TIP3   OH242986   1.840   5.171  11.366 -0.0482 -0.4019 -0.0797
 6264TIP3    H142987   1.859   5.112  11.439 -0.1954 -1.2830 -0.7386
 6264TIP3    H242988   1.806   5.251  11.407  1.1922 -0.3572  0.8813
 6265TIP3   OH242989   6.016   4.865  11.218  0.4635  0.2909 -0.0043
 6265TIP3    H142990   6.109   4.844  11.211  0.6452  1.0288  0.0534
 6265TIP3    H242991   5.975   4.818  11.146  0.7630 -0.6592  0.4374
 6266TIP3   OH242992   5.405   3.094  10.870 -0.4586 -0.2867 -0.1520
 6266TIP3    H142993   5.336   3.120  10.931  0.2998  1.3446  0.0567
 6266TIP3    H242994   5.365   3.102  10.784  0.0546  2.9006 -0.1958
 6267TIP3   OH242995   2.404   1.395   8.498 -0.0758 -0.1556  0.4459
 6267TIP3    H142996   2.469   1.421   8.431 -1.4408  0.3756 -0.7244
 6267TIP3    H242997   2.329   1.451   8.481 -2.3042 -3.1813 -0.6877
 6268TIP3   OH242998   3.820   5.433  10.019  0.1361  0.3950 -0.1016
 6268TIP3    H142999   3.763   5.425   9.943 -0.2599  0.9896  0.1262
 6268TIP3    H243000   3.761   5.425  10.094  0.6359 -1.0931  0.1722
 6269TIP3   OH243001   5.325   2.427   8.815  0.3673  0.2221  0.1395
 6269TIP3    H143002   5.289   2.411   8.728 -0.9499 -0.5900  0.8167
 6269TIP3    H243003   5.417   2.451   8.799  0.2284 -0.2282 -1.4346
 6270TIP3   OH243004   3.068   1.396  10.770 -0.3887 -0.1751 -0.5874
 6270TIP3    H143005   3.033   1.465  10.713  0.0719  0.5098 -0.0686
 6270TIP3    H243006   3.115   1.444  10.838 -1.8078 -0.8994  0.9989
 6271TIP3   OH243007   2.994   4.400   9.714  0.9172 -0.2424  0.0308
 6271TIP3    H143008   2.923   4.355   9.668  0.2926  0.2890  0.4575
 6271TIP3    H243009   2.996   4.359   9.800 -0.0316  0.9034  0.6195
 6272TIP3   OH243010   1.364   2.143  11.158  0.4153 -0.1876 -0.3894
 6272TIP3    H143011   1.411   2.125  11.077  0.6288  1.5843 -0.7165
 6272TIP3    H243012   1.434   2.157  11.223  0.2802 -0.2692 -0.2275
 6273TIP3   OH243013   4.052   0.482   9.587  0.8131  0.3432  0.1289
 6273TIP3    H143014   3.980   0.543   9.602  0.9540  0.3489  0.7926
 6273TIP3    H243015   4.023   0.400   9.626  0.0472 -0.4498 -1.9318
 6274TIP3   OH243016   5.132   1.560  10.956 -0.7195 -0.1039 -0.3318
 6274TIP3    H143017   5.133   1.634  11.016  0.8323  1.0800 -1.7099
 6274TIP3    H243018   5.182   1.492  11.001 -0.3322  0.4487  0.0841
 6275TIP3   OH243019   2.280   5.921  10.386 -0.5425  0.1403 -0.3819
 6275TIP3    H143020   2.240   5.903  10.300 -0.7656 -1.4300  0.0209
 6275TIP3    H243021   2.230   5.996  10.419  0.8894  2.1599 -2.4491
 6276TIP3   OH243022   1.077   4.223   9.801 -0.4504  0.0017  0.1980
 6276TIP3    H143023   1.100   4.294   9.861  1.4957  1.7065 -2.3354
 6276TIP3    H243024   1.136   4.151   9.824  0.5496  0.7771  0.1360
 6277TIP3   OH243025   3.639   3.950  10.250 -0.0142  0.0791  0.0005
 6277TIP3    H143026   3.671   4.004  10.178 -2.5792 -0.3666 -1.5898
 6277TIP3    H243027   3.718   3.919  10.294  1.5817  3.5173 -0.1608
 6278TIP3   OH243028   3.904   5.077   9.965 -0.2880  0.1863 -0.0517
 6278TIP3    H143029   3.985   5.117   9.934 -0.5066  1.0176  0.4024
 6278TIP3    H243030   3.884   5.124  10.047 -2.0994  1.1632 -0.9874
 6279TIP3   OH243031   5.907   5.590  11.463 -0.3167  0.8806  0.5273
 6279TIP3    H143032   5.889   5.654  11.532  2.0627 -0.4734  2.5470
 6279TIP3    H243033   5.996   5.609  11.435 -0.1035 -0.6026  0.1032
 6280TIP3   OH243034   6.344   0.002  10.383  0.3625 -0.4743  0.2044
 6280TIP3    H143035   6.388   0.076  10.343  0.3455 -0.1385  0.7971
 6280TIP3    H243036   6.308   0.036  10.465 -2.1076 -0.3712 -0.8181
 6281TIP3   OH243037   4.446   3.412  10.505  0.8628  0.0958 -0.4375
 6281TIP3    H143038   4.444   3.456  10.591 -0.4522  0.5720 -0.6819
 6281TIP3    H243039   4.376   3.347  10.511 -2.1333  2.8376 -2.4655
 6282TIP3   OH243040   6.123   3.091   9.372  0.0795 -0.0841  0.1895
 6282TIP3    H143041   6.030   3.102   9.393 -0.0910  0.3357 -0.7594
 6282TIP3    H243042   6.130   3.114   9.280  1.3890  1.4244  0.6143
 6283TIP3   OH243043   4.828   5.495   9.297  0.1564 -0.4937 -0.2606
 6283TIP3    H143044   4.768   5.562   9.265 -1.7914 -2.5174 -1.1723
 6283TIP3    H243045   4.907   5.506   9.245  0.1734  1.4902  0.1059
 6284TIP3   OH243046   6.445   4.599  10.508 -0.2222 -0.2333 -0.5751
 6284TIP3    H143047   6.420   4.680  10.463 -0.6451  0.5898  1.0322
 6284TIP3    H243048   6.431   4.619  10.601  1.9573 -1.3451  0.0484
 6285TIP3   OH243049   1.485   0.193   9.408  0.4455  0.6500 -0.2664
 6285TIP3    H143050   1.551   0.146   9.459  1.2753  1.5313 -0.4945
 6285TIP3    H243051   1.455   0.129   9.343 -0.2329 -0.3161  0.9489
 6286TIP3   OH243052   2.406   1.196   9.695  0.0437  0.1609 -0.0429
 6286TIP3    H143053   2.336   1.134   9.713  0.2991  0.1828  1.0785
 6286TIP3    H243054   2.481   1.163   9.745 -0.3635  2.4115  2.2884
 6287TIP3   OH243055   0.335   1.530   9.620 -0.1627 -0.2542  0.2590
 6287TIP3    H143056   0.288   1.446   9.620 -1.7341  0.5715 -0.9267
 6287TIP3    H243057   0.332   1.558   9.529 -0.8642  1.7205  0.8439
 6288TIP3   OH243058   0.814   6.471   8.995  0.0894 -0.3644  0.5006
 6288TIP3    H143059   0.757   6.463   8.918  0.6673 -0.8648  0.1081
 6288TIP3    H243060   0.756   6.461   9.070 -0.9724  2.8247  0.2697
 6289TIP3   OH243061   6.436   1.694   9.800 -0.3885 -0.2330 -0.1006
 6289TIP3    H143062   6.490   1.707   9.878 -0.8153 -0.8875  0.3214
 6289TIP3    H243063   6.467   1.611   9.763 -0.8270 -0.4190 -0.0665
 6290TIP3   OH243064   6.578   4.935   8.834 -0.4538 -0.1110 -0.0723
 6290TIP3    H143065   6.537   4.861   8.878  0.1309 -0.8737 -0.7585
 6290TIP3    H243066   6.605   4.899   8.749  3.5769 -0.3450  1.1033
 6291TIP3   OH243067   2.906   4.938  10.324  0.0779 -0.9079  0.2290
 6291TIP3    H143068   2.974   4.899  10.379  0.5986 -0.5695 -0.1679
 6291TIP3    H243069   2.824   4.905  10.361  0.4828 -2.0256  0.1757
 6292TIP3   OH243070   5.149   2.011   9.858 -0.1687  0.4223  0.0330
 6292TIP3    H143071   5.080   1.951   9.886  0.9881 -0.0953  1.9365
 6292TIP3    H243072   5.180   1.975   9.775 -0.0882 -1.1595  0.7138
 6293TIP3   OH243073   0.151   0.884  11.250  0.0179  0.2849  0.2439
 6293TIP3    H143074   0.141   0.800  11.204 -2.5470 -1.4464  3.5051
 6293TIP3    H243075   0.231   0.874  11.302  0.4664  0.4482 -0.4034
 6294TIP3   OH243076   2.704   1.368  11.283 -0.1581  0.0199 -0.2361
 6294TIP3    H143077   2.783   1.422  11.276 -0.0743 -0.2985 -2.1491
 6294TIP3    H243078   2.639   1.425  11.322  0.0451  1.4265 -1.8558
 6295TIP3   OH243079   2.617   3.843   9.437 -0.1489 -0.2296 -0.1516
 6295TIP3    H143080   2.648   3.753   9.446  0.6052  0.2119  2.1333
 6295TIP3    H243081   2.693   3.898   9.457 -1.7598  0.8785  4.0184
 6296TIP3   OH243082   1.592   2.308  10.976 -0.3706  0.2234  0.5429
 6296TIP3    H143083   1.544   2.239  10.930  0.8329 -0.4043  0.1795
 6296TIP3    H243084   1.650   2.261  11.036  0.3558  0.9148  0.4016
 6297TIP3   OH243085   3.395   3.392   8.297 -0.3535 -0.2287  0.2942
 6297TIP3    H143086   3.473   3.351   8.334  0.6489  0.5560 -0.8541
 6297TIP3    H243087   3.362   3.327   8.235 -1.8034 -1.3770  2.1738
 6298TIP3   OH243088   2.914   3.068   9.814 -0.6784  0.2196 -0.3877
 6298TIP3    H143089   2.940   2.998   9.873 -0.2294  0.8808  0.2125
 6298TIP3    H243090   2.890   3.023   9.733  0.3447 -0.5669 -0.2733
 6299TIP3   OH243091   6.445   4.321   9.059  0.4326 -0.0694  0.2096
 6299TIP3    H143092   6.445   4.412   9.088  0.4422 -0.2787  0.8846
 6299TIP3    H243093   6.397   4.322   8.976  1.9157  0.8080 -0.6743
 6300TIP3   OH243094   5.168   5.195  11.849  0.4424 -0.0199 -0.0980
 6300TIP3    H143095   5.169   5.288  11.827  2.7839  0.1202  0.2571
 6300TIP3    H243096   5.261   5.169  11.845 -0.0143 -2.0379  1.0130
 6301TIP3   OH243097   0.781   3.748   9.025 -0.1551  0.0201 -0.2193
 6301TIP3    H143098   0.817   3.711   9.106  1.4772 -0.0506 -0.9353
 6301TIP3    H243099   0.795   3.680   8.959 -1.0220  0.2721 -0.6752
 6302TIP3   OH243100   3.062   2.085  12.359  1.0681  0.1607  0.0451
 6302TIP3    H143101   2.994   2.149  12.338 -0.6291 -1.2425  1.0487
 6302TIP3    H243102   3.048   2.063  12.451  2.6313 -0.5070  0.1642
 6303TIP3   OH243103   4.284   1.877   9.424  0.3158 -0.1370  0.3526
 6303TIP3    H143104   4.280   1.850   9.515 -0.4946 -2.0597 -0.1981
 6303TIP3    H243105   4.208   1.836   9.383  2.7851 -2.8779 -2.0310
 6304TIP3   OH243106   0.970   6.164   8.498  0.6065  0.4742 -0.3774
 6304TIP3    H143107   1.004   6.250   8.472  0.1424  0.7876  0.0512
 6304TIP3    H243108   0.931   6.129   8.418 -1.6320  1.8247  0.0414
 6305TIP3   OH243109   4.756   4.942   8.915 -0.1389 -0.2797  0.2063
 6305TIP3    H143110   4.737   4.848   8.923  0.8936 -0.4611  0.7530
 6305TIP3    H243111   4.840   4.953   8.959 -0.5686  1.0285  0.7426
 6306TIP3   OH243112   4.632   4.003  10.520  0.3827  0.1137  0.1587
 6306TIP3    H143113   4.715   4.027  10.561  0.3913  0.8918 -0.2826
 6306TIP3    H243114   4.570   3.997  10.592  0.6543  0.3060  0.4083
 6307TIP3   OH243115   4.258   5.106   8.631  0.1326  0.4665  0.3139
 6307TIP3    H143116   4.312   5.049   8.575  0.2206  0.2092  0.6621
 6307TIP3    H243117   4.294   5.194   8.616 -0.0260  0.4369 -0.2496
 6308TIP3   OH243118   2.432   4.520  10.858  0.2163  0.1658  0.1665
 6308TIP3    H143119   2.436   4.565  10.943  3.9534  0.7486 -0.1547
 6308TIP3    H243120   2.382   4.579  10.802  0.0659  1.1133  1.2625
 6309TIP3   OH243121   0.584   4.454  11.463 -0.5097  0.7761  0.5312
 6309TIP3    H143122   0.667   4.414  11.485 -1.3761 -0.7757  1.1237
 6309TIP3    H243123   0.604   4.512  11.389  1.0055  0.1655  0.4302
 6310TIP3   OH243124   1.173   5.825   9.024  0.2570 -0.4922 -0.0075
 6310TIP3    H143125   1.236   5.897   9.017  1.6515 -1.8269 -2.6875
 6310TIP3    H243126   1.104   5.847   8.961  0.2686 -1.0926 -0.2331
 6311TIP3   OH243127   4.927   6.507  11.962 -0.3390 -0.1537 -0.3411
 6311TIP3    H143128   5.018   6.480  11.953  0.1716  1.6552 -1.0473
 6311TIP3    H243129   4.929   6.573  12.032 -0.9362  0.5879 -1.0105
 6312TIP3   OH243130   4.249   1.703  10.234 -0.0721 -0.0463  0.1993
 6312TIP3    H143131   4.291   1.626  10.271  0.0635  0.2627  0.6925
 6312TIP3    H243132   4.155   1.685  10.238 -0.0355 -0.2247  0.2238
 6313TIP3   OH243133   3.123   0.832  11.547  0.6288  0.3363 -0.2824
 6313TIP3    H143134   3.058   0.795  11.487  0.1034 -0.6356  0.8376
 6313TIP3    H243135   3.207   0.806  11.511  0.4407  1.6205 -1.7646
 6314TIP3   OH243136   3.277   3.067  10.875 -0.5573  0.1259 -0.3693
 6314TIP3    H143137   3.294   3.019  10.956  0.0246 -1.8697 -1.6060
 6314TIP3    H243138   3.192   3.036  10.845 -1.6185  2.1618  0.2968
 6315TIP3   OH243139   0.864   0.027  10.841 -0.2367 -0.4543 -0.1452
 6315TIP3    H143140   0.916  -0.020  10.906 -0.6553 -0.6050  0.0844
 6315TIP3    H243141   0.867   0.119  10.869  0.4310 -0.3570 -0.4940
 6316TIP3   OH243142   3.601   6.577  10.783  0.6370 -0.2177 -0.6346
 6316TIP3    H143143   3.565   6.495  10.816  2.3367 -0.5104  0.6098
 6316TIP3    H243144   3.644   6.552  10.701 -0.6049 -0.1458 -1.3349
 6317TIP3   OH243145   0.187   3.093   9.576 -0.1132  0.2327  0.3030
 6317TIP3    H143146   0.277   3.122   9.586  0.2189 -1.1954  2.1408
 6317TIP3    H243147   0.194   3.012   9.525 -0.2972 -0.0382  0.7002
 6318TIP3   OH243148   1.620   2.895   9.297  0.6525 -0.1031 -0.1966
 6318TIP3    H143149   1.628   2.906   9.202 -3.5631 -0.5366 -0.7721
 6318TIP3    H243150   1.638   2.802   9.312  0.1700 -0.2978 -0.7793
 6319TIP3   OH243151   4.755   5.346  11.348  0.3011 -0.2931  0.0331
 6319TIP3    H143152   4.670   5.352  11.304 -0.2053 -0.7257  0.9253
 6319TIP3    H243153   4.807   5.290  11.291 -0.3431 -0.8457 -0.0358
 6320TIP3   OH243154   6.023   5.712  11.180 -0.1306  0.1344 -0.1897
 6320TIP3    H143155   6.071   5.673  11.253 -0.3269  0.6326  0.2057
 6320TIP3    H243156   5.950   5.651  11.165  0.1709 -0.2110 -0.2793
 6321TIP3   OH243157   2.012   2.956  12.142  0.0778  0.5778 -0.4806
 6321TIP3    H143158   2.053   2.995  12.219  0.8674  0.0397 -0.6167
 6321TIP3    H243159   1.922   2.989  12.144  0.4792  1.7338 -0.1353
 6322TIP3   OH243160   4.162   1.672   8.630  0.0055 -0.2927  0.3551
 6322TIP3    H143161   4.160   1.726   8.709  1.0434 -2.5278  2.0392
 6322TIP3    H243162   4.252   1.679   8.598 -0.5882  1.1549 -1.0931
 6323TIP3   OH243163   1.538   6.539   8.658  0.4702 -0.1664 -0.5956
 6323TIP3    H143164   1.624   6.572   8.687  1.6137 -0.9002 -2.9206
 6323TIP3    H243165   1.501   6.498   8.736  2.4785 -0.2996  0.3522
 6324TIP3   OH243166   6.169   4.893   9.441  0.0581  0.0202 -0.4378
 6324TIP3    H143167   6.129   4.859   9.521  2.6640 -0.2336  0.8379
 6324TIP3    H243168   6.177   4.987   9.457  2.2248 -0.2698  0.4311
 6325TIP3   OH243169   4.739   4.141   9.912  0.0336  0.0228  0.2928
 6325TIP3    H143170   4.760   4.139   9.819 -2.5744 -1.6275 -0.3541
 6325TIP3    H243171   4.672   4.209   9.920  1.6848  1.5967  1.3804
 6326TIP3   OH243172   1.499   4.751   9.758 -0.3694 -0.1949 -0.0766
 6326TIP3    H143173   1.445   4.758   9.836  1.2215  2.2705  0.9187
 6326TIP3    H243174   1.551   4.672   9.772  0.0734  0.3421  1.4925
 6327TIP3   OH243175   1.901   5.275  10.038  0.3978  0.1423  0.0477
 6327TIP3    H143176   1.869   5.260   9.949  0.3325  0.9584 -0.0792
 6327TIP3    H243177   1.929   5.189  10.069 -3.6801 -1.0687  0.8794
 6328TIP3   OH243178   3.672   2.967   9.460 -1.0497 -0.1250 -0.6652
 6328TIP3    H143179   3.591   2.942   9.503  0.7714 -2.3162  1.8632
 6328TIP3    H243180   3.689   3.056   9.490 -1.4295 -0.4655  0.6101
 6329TIP3   OH243181   3.316   2.046  10.604 -0.6774  0.1468 -0.3975
 6329TIP3    H143182   3.346   1.955  10.614 -0.8379  0.2006  0.7252
 6329TIP3    H243183   3.340   2.088  10.687  0.3011  1.4089 -1.2830
 6330TIP3   OH243184   3.494   1.634  11.021 -0.1334  0.3107 -0.0082
 6330TIP3    H143185   3.451   1.579  11.086 -0.4053  1.0777  0.4848
 6330TIP3    H243186   3.430   1.644  10.951 -1.0974  2.0033  1.0243
 6331TIP3   OH243187   5.021   2.612  11.072 -0.2480 -0.3541  0.0873
 6331TIP3    H143188   5.109   2.651  11.067  0.3553 -1.6606  0.0132
 6331TIP3    H243189   4.998   2.594  10.981  0.2127 -1.6723  0.2056
 6332TIP3   OH243190   2.723   6.576  12.090  0.7967  0.0120  0.3919
 6332TIP3    H143191   2.751   6.626  12.167  0.9844  1.5473 -0.6449
 6332TIP3    H243192   2.627   6.577  12.096  0.7190  1.9586 -0.4704
 6333TIP3   OH243193   0.623   6.454   9.193  0.2798 -0.1277 -0.5929
 6333TIP3    H143194   0.538   6.413   9.180  0.2175  0.4118 -2.1175
 6333TIP3    H243195   0.654   6.419   9.276 -0.1193 -2.6388 -1.3981
 6334TIP3   OH243196   3.768   5.795   9.573 -0.5694 -0.1562  0.6655
 6334TIP3    H143197   3.706   5.732   9.535 -0.7178 -0.3471  1.2155
 6334TIP3    H243198   3.812   5.746   9.643 -1.2757  0.5881  1.6500
 6335TIP3   OH243199   6.567   2.123  10.631 -0.2595 -0.0521  0.5546
 6335TIP3    H143200   6.641   2.183  10.640 -0.0320 -0.4694  1.6189
 6335TIP3    H243201   6.587   2.072  10.553  1.7666 -1.7198  2.0326
 6336TIP3   OH243202   5.034   4.417  10.755 -0.0386  0.0064  0.1288
 6336TIP3    H143203   5.046   4.322  10.761 -0.8504 -0.1601 -0.5562
 6336TIP3    H243204   5.122   4.453  10.763  0.2632 -0.7943  0.5590
 6337TIP3   OH243205   3.474   5.743   8.981  0.1028  0.0125  0.0935
 6337TIP3    H143206   3.522   5.744   9.064 -1.0009  1.8118  0.7925
 6337TIP3    H243207   3.425   5.661   8.982  0.4079 -0.1716  1.0594
 6338TIP3   OH243208   2.482   5.561  10.574 -0.2283  0.0933  0.5629
 6338TIP3    H143209   2.420   5.492  10.593 -0.0841 -0.4621 -0.8663
 6338TIP3    H243210   2.462   5.588  10.485 -0.9673  2.6418  1.4074
 6339TIP3   OH243211   3.195   2.769   8.927  0.1747  0.0529 -0.1814
 6339TIP3    H143212   3.143   2.835   8.972 -0.2290  0.7202 -1.5838
 6339TIP3    H243213   3.278   2.812   8.907  0.7969 -0.5990  0.8943
 6340TIP3   OH243214   4.705   6.587   9.456  0.0124  0.2224  0.2423
 6340TIP3    H143215   4.706   6.682   9.440 -1.1884  0.5594  1.9428
 6340TIP3    H243216   4.631   6.555   9.405  0.2957  0.2131 -0.1715
 6341TIP3   OH243217   1.311   4.136   8.761 -0.0139  0.2934  0.1232
 6341TIP3    H143218   1.402   4.106   8.767 -0.6702 -1.8443  0.4599
 6341TIP3    H243219   1.285   4.153   8.851 -0.8641 -2.3081  0.4474
 6342TIP3   OH243220   3.490   2.190   9.958  0.0199 -0.6593  0.1699
 6342TIP3    H143221   3.459   2.277   9.933 -0.3922 -0.9323 -0.3079
 6342TIP3    H243222   3.425   2.130   9.920  0.5545 -1.1967  0.0825
 6343TIP3   OH243223   5.862   3.202   9.276  0.0098  0.9593 -0.3382
 6343TIP3    H143224   5.844   3.263   9.348  2.1263  0.9928  0.2197
 6343TIP3    H243225   5.935   3.243   9.228  0.7190 -0.5792 -0.6180
 6344TIP3   OH243226   4.106   2.331  10.844  0.4413  0.1991 -0.8372
 6344TIP3    H143227   4.181   2.378  10.809  1.4133 -0.0922  0.7479
 6344TIP3    H243228   4.075   2.277  10.771  1.7697  0.3256 -1.5272
 6345TIP3   OH243229   6.355   4.746   8.513  0.1682  0.1200 -0.3918
 6345TIP3    H143230   6.313   4.692   8.580  1.2451 -0.1072  0.1288
 6345TIP3    H243231   6.387   4.684   8.448  1.4281  0.0921  0.2182
 6346TIP3   OH243232   4.541   1.996   8.587 -0.1810  0.4047  0.1623
 6346TIP3    H143233   4.511   2.028   8.672 -0.3063  1.6610 -0.3360
 6346TIP3    H243234   4.636   2.004   8.589  0.1608 -2.6712  1.3783
 6347TIP3   OH243235   2.408   5.149  10.098  0.1871 -0.2200  0.2443
 6347TIP3    H143236   2.364   5.069  10.070  1.6811 -0.6406 -1.0308
 6347TIP3    H243237   2.460   5.176  10.022  1.4276  0.7155  1.3730
 6348TIP3   OH243238   5.872   6.066   8.929 -0.3586  0.1843  0.3587
 6348TIP3    H143239   5.949   6.111   8.894 -1.4456  2.8320  1.1550
 6348TIP3    H243240   5.895   6.044   9.019 -0.6389  1.3828  0.7426
 6349TIP3   OH243241   2.909   0.323  10.568  0.2376  0.7856 -0.0569
 6349TIP3    H143242   2.958   0.336  10.487  0.4811 -0.1824 -0.0785
 6349TIP3    H243243   2.913   0.228  10.583 -1.7153  0.6581 -0.1238
 6350TIP3   OH243244   3.098   3.094  11.425 -0.6223 -0.4322 -0.1605
 6350TIP3    H143245   3.142   3.100  11.510  0.4568 -0.0592 -0.7178
 6350TIP3    H243246   3.165   3.122  11.362 -1.6639  0.1027 -1.0610
 6351TIP3   OH243247   1.567   5.520   9.944 -0.4289 -0.0162  0.1469
 6351TIP3    H143248   1.562   5.496   9.852 -1.0487 -1.2696  0.4760
 6351TIP3    H243249   1.651   5.564   9.953  0.4596 -1.4720 -0.6835
 6352TIP3   OH243250   2.025   0.534  11.978 -0.2749  0.4058 -0.1663
 6352TIP3    H143251   1.976   0.545  11.897 -1.8501 -0.2831  0.6480
 6352TIP3    H243252   2.061   0.445  11.974  1.0871  0.9518 -0.8179
 6353TIP3   OH243253   0.138   1.939   9.605 -0.3991 -0.1744 -0.7000
 6353TIP3    H143254   0.149   1.963   9.513  1.6124 -0.5505 -0.6113
 6353TIP3    H243255   0.219   1.969   9.646 -2.0250  1.7394  1.3633
 6354TIP3   OH243256   4.460   5.103   9.833  0.1103  0.1354  0.8363
 6354TIP3    H143257   4.551   5.124   9.854  0.7824  0.7333 -2.2472
 6354TIP3    H243258   4.410   5.147   9.901  2.0564 -1.8275  3.8288
 6355TIP3   OH243259   4.371   0.929  10.496 -0.4748  0.3075  0.1434
 6355TIP3    H143260   4.465   0.909  10.503 -0.3001 -0.5405 -2.9955
 6355TIP3    H243261   4.328   0.844  10.489 -1.3458  0.7190  0.3435
 6356TIP3   OH243262   2.770   1.419   9.934 -0.5736 -0.6093  0.0600
 6356TIP3    H143263   2.688   1.413   9.982 -0.2829  0.9919  0.8030
 6356TIP3    H243264   2.800   1.509   9.947  1.6265 -1.3098  0.3703
 6357TIP3   OH243265   0.384   1.937  12.102  0.0145 -0.3217 -0.1573
 6357TIP3    H143266   0.311   1.903  12.050 -0.2880 -1.0249  0.7179
 6357TIP3    H243267   0.358   2.027  12.124 -0.1216 -0.2243 -0.6979
 6358TIP3   OH243268   1.525   5.018  11.337  0.3809 -1.0765  0.0921
 6358TIP3    H143269   1.532   5.007  11.242  2.2999 -1.3112  0.2218
 6358TIP3    H243270   1.497   5.109  11.348  2.0643 -0.4177 -0.6893
 6359TIP3   OH243271   4.656   3.837   9.975 -0.1585  0.0226 -0.0265
 6359TIP3    H143272   4.617   3.800  10.055 -1.5074 -1.9677 -1.5033
 6359TIP3    H243273   4.640   3.931   9.983 -1.8354 -0.3055  1.2764
 6360TIP3   OH243274   3.361   6.600  11.622 -0.6866  0.0553  0.3902
 6360TIP3    H143275   3.418   6.649  11.682 -1.1254  0.8105  0.2138
 6360TIP3    H243276   3.369   6.509  11.650  0.1659  0.2231  0.7264
 6361TIP3   OH243277   1.773   3.259   9.186 -0.8424 -0.2432  0.4454
 6361TIP3    H143278   1.679   3.259   9.207 -1.1318  1.7491 -0.5747
 6361TIP3    H243279   1.813   3.308   9.257 -0.9206  0.7921 -0.1903
 6362TIP3   OH243280   4.358   4.420   9.000 -0.2302 -0.4264  0.3074
 6362TIP3    H143281   4.321   4.472   8.929  1.9222  1.1079  0.2102
 6362TIP3    H243282   4.357   4.330   8.967 -1.3326 -0.0477 -0.7327
 6363TIP3   OH243283   5.927   2.768   9.378  0.3843  0.2350 -0.0671
 6363TIP3    H143284   5.851   2.778   9.320  0.2019 -2.6005 -0.4377
 6363TIP3    H243285   5.894   2.790   9.465  0.2238  2.8545 -0.6850
 6364TIP3   OH243286   6.027   2.595   9.009  0.1878 -0.7387  0.0588
 6364TIP3    H143287   6.027   2.630   8.920 -0.3358 -0.3949  0.1964
 6364TIP3    H243288   6.031   2.672   9.066  0.8064 -0.9641  0.3394
 6365TIP3   OH243289   6.045   1.865  12.080 -0.0622  0.1575  0.3329
 6365TIP3    H143290   5.954   1.885  12.102  0.3274 -0.3563  2.6001
 6365TIP3    H243291   6.074   1.941  12.029 -1.8593  0.1253 -0.8392
 6366TIP3   OH243292   4.057   0.388  10.748 -1.0869 -0.3110  0.3251
 6366TIP3    H143293   4.002   0.443  10.802 -0.9522  1.0766 -0.8966
 6366TIP3    H243294   4.012   0.383  10.664  1.1522  1.8960 -1.1444
 6367TIP3   OH243295   4.243   5.118  10.201 -0.1743  0.0330 -0.1072
 6367TIP3    H143296   4.176   5.050  10.193  0.4784 -0.5346 -1.1854
 6367TIP3    H243297   4.325   5.069  10.213  0.2923  0.6195 -0.7707
 6368TIP3   OH243298   2.343   4.739  11.769  0.3709  0.6088 -0.4473
 6368TIP3    H143299   2.423   4.729  11.821  0.5760  0.5936 -0.7622
 6368TIP3    H243300   2.300   4.817  11.805  0.3014  0.3639  0.0165
 6369TIP3   OH243301   1.344   4.703   9.999  0.3417 -0.0528 -0.0452
 6369TIP3    H143302   1.427   4.656  10.005 -0.0772 -0.7811  0.1340
 6369TIP3    H243303   1.304   4.693  10.086 -0.8754 -1.5084 -0.7271
 6370TIP3   OH243304   0.971   6.525   9.372  0.5622  0.3508 -0.2401
 6370TIP3    H143305   0.924   6.444   9.355  0.5622  0.1884  0.4887
 6370TIP3    H243306   0.953   6.544   9.464  1.0896  0.8325 -0.2299
 6371TIP3   OH243307   3.400   0.936  11.100 -0.4710 -0.2964 -0.0322
 6371TIP3    H143308   3.438   1.014  11.140 -0.9261 -1.1092  2.1303
 6371TIP3    H243309   3.312   0.930  11.137 -1.6184 -0.1984 -2.5183
 6372TIP3   OH243310   5.026   2.984  10.936 -0.0363  0.0974 -0.0776
 6372TIP3    H143311   4.979   3.065  10.917  3.4078  2.0766 -0.9360
 6372TIP3    H243312   5.032   2.939  10.851  2.1158  1.3599 -0.6484
 6373TIP3   OH243313   1.858   4.036   8.935 -0.2872 -0.3307 -0.0746
 6373TIP3    H143314   1.790   4.080   8.986  1.1272 -0.9390  2.4669
 6373TIP3    H243315   1.854   4.080   8.849 -2.2380  1.2880  0.7430
 6374TIP3   OH243316   4.787   2.987  10.289 -0.1351 -0.6926 -0.2567
 6374TIP3    H143317   4.806   2.893  10.280 -0.2033 -0.6669 -0.6907
 6374TIP3    H243318   4.697   2.990  10.322 -0.2334 -0.7742 -0.5178
 6375TIP3   OH243319   3.368   4.864   9.148  0.0573  0.3987  0.6088
 6375TIP3    H143320   3.355   4.879   9.055 -0.7955 -0.3671  0.5879
 6375TIP3    H243321   3.286   4.894   9.189 -0.6607 -1.6697  0.8082
 6376TIP3   OH243322   3.516   5.867  11.303 -0.0476  0.0869 -0.0611
 6376TIP3    H143323   3.449   5.800  11.320 -1.0301  0.8724 -0.7039
 6376TIP3    H243324   3.555   5.884  11.389 -1.5408  0.4843  0.5825
 6377TIP3   OH243325   5.960   5.151  10.464  0.2840  0.4378 -0.0493
 6377TIP3    H143326   5.950   5.213  10.393 -1.0214 -0.3199 -0.5683
 6377TIP3    H243327   6.055   5.144  10.477  0.5268  0.9358 -1.3861
 6378TIP3   OH243328   2.333   0.635   8.648  0.1994  0.0025 -0.5074
 6378TIP3    H143329   2.344   0.677   8.562  0.6583  1.6634  0.3222
 6378TIP3    H243330   2.246   0.663   8.677  0.6686  0.7610  0.2234
 6379TIP3   OH243331   4.833   3.919  10.300  0.2703  0.1409 -0.2417
 6379TIP3    H143332   4.749   3.877  10.281  0.6611 -0.1778 -1.3454
 6379TIP3    H243333   4.884   3.852  10.346  0.6908 -0.4373 -1.5060
 6380TIP3   OH243334   2.917   1.224  10.944  0.5633  0.4657  0.5399
 6380TIP3    H143335   2.904   1.310  10.905  2.0952  0.3908 -0.2039
 6380TIP3    H243336   2.946   1.169  10.871  2.2379  0.0054  1.5057
 6381TIP3   OH243337   4.547   6.322  10.778  0.1494  0.3871  0.4091
 6381TIP3    H143338   4.462   6.364  10.791  0.2849  1.5286 -1.9719
 6381TIP3    H243339   4.611   6.388  10.802  0.4643 -0.5698  2.4918
 6382TIP3   OH243340   0.758   3.152  10.759  0.7781  0.3900 -0.3574
 6382TIP3    H143341   0.736   3.205  10.682 -0.9278  0.2892  0.0192
 6382TIP3    H243342   0.729   3.064  10.736  0.8214  0.2361  0.1736
 6383TIP3   OH243343   3.658   3.645  10.160 -0.6853  0.1141 -0.1851
 6383TIP3    H143344   3.573   3.661  10.202  0.2471  1.9645  1.1413
 6383TIP3    H243345   3.715   3.619  10.232  0.3511  0.8750 -0.6984
 6384TIP3   OH243346   2.583   2.700   8.603  0.5403 -0.1744  0.3858
 6384TIP3    H143347   2.502   2.736   8.567  0.9059  0.0988 -0.1760
 6384TIP3    H243348   2.602   2.625   8.547  0.1462 -0.8525  1.1332
 6385TIP3   OH243349   0.706   4.185   9.982 -0.1241  0.1271 -0.7054
 6385TIP3    H143350   0.782   4.149  10.029 -0.3981 -0.1340 -0.4566
 6385TIP3    H243351   0.653   4.108   9.962 -0.4972  0.3514 -0.5685
 6386TIP3   OH243352   5.332   4.390   9.498 -0.2644  0.2054  0.0168
 6386TIP3    H143353   5.240   4.415   9.486 -0.6385 -1.6422 -1.6555
 6386TIP3    H243354   5.328   4.298   9.526  1.0543  0.1065 -0.0525
 6387TIP3   OH243355   5.535   1.562  11.334 -0.2545  0.3536 -0.1481
 6387TIP3    H143356   5.593   1.554  11.259 -2.2733  2.1775 -2.0502
 6387TIP3    H243357   5.467   1.623  11.306 -1.9411 -0.0243  2.6703
 6388TIP3   OH243358   2.895   0.166  11.967  0.3044 -0.1965 -0.7388
 6388TIP3    H143359   2.963   0.219  12.009 -0.3374  0.6334 -0.7236
 6388TIP3    H243360   2.855   0.118  12.039  1.4440 -1.3798 -0.8578
 6389TIP3   OH243361   4.288   4.001  11.549 -0.2795 -0.0215  0.0719
 6389TIP3    H143362   4.371   3.991  11.595 -0.0570  0.7119 -0.1635
 6389TIP3    H243363   4.246   3.915  11.556 -0.0418 -0.0581  1.2264
 6390TIP3   OH243364   1.625   1.545   9.427 -0.7978 -0.1507  0.0688
 6390TIP3    H143365   1.629   1.598   9.347  2.4200 -0.4852 -0.1210
 6390TIP3    H243366   1.654   1.604   9.496 -0.2115 -0.8051  0.3863
 6391TIP3   OH243367   5.689   2.016  10.749  0.0384  0.0704 -1.0544
 6391TIP3    H143368   5.675   2.020  10.844  2.3950 -0.0900 -0.6420
 6391TIP3    H243369   5.687   2.107  10.721  0.0314  0.1668 -0.7461
 6392TIP3   OH243370   4.970   2.705  12.158 -0.0601 -0.4543 -0.4209
 6392TIP3    H143371   4.993   2.788  12.116 -1.3069  0.2353  0.1934
 6392TIP3    H243372   4.917   2.730  12.233  2.8199 -1.5808  2.1884
 6393TIP3   OH243373   0.885   6.288   9.269  0.2046 -0.3950  0.3542
 6393TIP3    H143374   0.900   6.219   9.204 -0.7281 -0.9832  0.7428
 6393TIP3    H243375   0.822   6.250   9.330 -0.3574  0.8299  0.5603
 6394TIP3   OH243376   3.321   5.496   8.724 -0.4008 -0.1174 -0.1328
 6394TIP3    H143377   3.411   5.463   8.722  0.4262  1.6514  2.3584
 6394TIP3    H243378   3.305   5.526   8.635  0.5508 -2.5910 -1.2473
 6395TIP3   OH243379   0.450   0.041  11.938  0.6684 -0.4999 -0.2747
 6395TIP3    H143380   0.467   0.105  12.008 -2.0402  0.6914 -0.5943
 6395TIP3    H243381   0.459   0.091  11.857 -1.5307 -0.4383 -0.5264
 6396TIP3   OH243382   5.633   4.854  17.035 -0.2859  0.4442  0.4562
 6396TIP3    H143383   5.702   4.919  17.026 -0.4297  0.4511 -0.8808
 6396TIP3    H243384   5.665   4.778  16.985 -0.3345 -0.3352  1.5751
 6397TIP3   OH243385   3.170   3.365   8.747 -0.6954 -0.0346  0.1557
 6397TIP3    H143386   3.185   3.271   8.738  1.6526  0.1208  1.6521
 6397TIP3    H243387   3.189   3.401   8.661  0.9925 -0.6761  0.2220
 6398TIP3   OH243388   4.147   3.954   8.905 -0.7655  0.1348  0.2632
 6398TIP3    H143389   4.112   3.868   8.930 -0.4772  0.2470  1.1090
 6398TIP3    H243390   4.218   3.934   8.845 -0.0052 -0.2997  1.2681
 6399TIP3   OH243391   0.359   0.725  10.697  0.1453  0.2707  0.7104
 6399TIP3    H143392   0.346   0.682  10.782  0.8300 -0.9474  0.2373
 6399TIP3    H243393   0.359   0.652  10.634  1.9206  0.9004 -0.0740
 6400TIP3   OH243394   2.654   3.815  10.655 -0.2623  0.3633  0.3267
 6400TIP3    H143395   2.562   3.828  10.631 -0.4129 -0.3504  0.4764
 6400TIP3    H243396   2.659   3.722  10.678  0.7835  0.0766 -0.9433
 6401TIP3   OH243397   0.499   3.100   9.234  0.1778 -0.5609 -0.5149
 6401TIP3    H143398   0.468   3.042   9.303 -0.1604 -2.1292 -1.9178
 6401TIP3    H243399   0.430   3.099   9.168  1.4193 -0.8806 -1.8706
 6402TIP3   OH243400   4.536   5.043   8.606 -0.5510 -0.0074 -0.8643
 6402TIP3    H143401   4.614   5.098   8.606 -0.3092 -0.2608  1.3335
 6402TIP3    H243402   4.498   5.055   8.694 -2.0296 -1.1994 -1.2972
 6403TIP3   OH243403   3.238   0.387  11.224 -0.4331  0.8297 -0.3291
 6403TIP3    H143404   3.306   0.443  11.260 -0.3680 -0.3284  1.4378
 6403TIP3    H243405   3.281   0.304  11.207 -1.0356  0.6012 -0.8002
 6404TIP3   OH243406   0.924   3.013   9.702  0.0268 -0.1112 -0.0706
 6404TIP3    H143407   0.852   3.076   9.697  0.7820  0.6526 -3.3558
 6404TIP3    H243408   0.992   3.049   9.646  1.6391 -2.4720  0.2244
 6405TIP3   OH243409   3.124   1.674   9.508  0.0630 -0.3601  0.3615
 6405TIP3    H143410   3.205   1.722   9.489  0.3167 -0.5476  0.9329
 6405TIP3    H243411   3.121   1.605   9.441  1.2150 -1.3331  1.2501
 6406TIP3   OH243412   1.973   1.136  10.588  0.0782  0.2852 -0.2479
 6406TIP3    H143413   1.890   1.155  10.545 -0.6515  0.1293  1.0351
 6406TIP3    H243414   1.961   1.166  10.678  1.2150 -0.2579  0.1093
 6407TIP3   OH243415   5.195   4.710  10.608 -0.7178  0.1664  0.4814
 6407TIP3    H143416   5.216   4.636  10.551  1.9828  1.9481 -1.1010
 6407TIP3    H243417   5.218   4.681  10.696  0.2387 -0.9063 -0.1006
 6408TIP3   OH243418   6.370   4.495   8.393 -0.4603 -0.1094 -0.3065
 6408TIP3    H143419   6.438   4.493   8.326  0.6208  0.0906  0.7461
 6408TIP3    H243420   6.335   4.406   8.395  0.8876 -0.6403  0.2318
 6409TIP3   OH243421   5.871   1.164  10.380 -0.3403 -0.5738 -0.0191
 6409TIP3    H143422   5.787   1.177  10.425 -1.2197 -0.6428 -1.5683
 6409TIP3    H243423   5.899   1.252  10.355  0.7177 -0.4090  1.5498
 6410TIP3   OH243424   1.947   2.806   8.521 -0.2575 -0.0973  0.1630
 6410TIP3    H143425   1.975   2.725   8.477 -0.0335  1.2911 -2.4679
 6410TIP3    H243426   1.940   2.782   8.613 -0.8859 -3.2975 -0.5798
 6411TIP3   OH243427   0.658   5.210   9.055  0.3524 -0.4296 -0.5333
 6411TIP3    H143428   0.596   5.267   9.101  1.0839 -1.0587  1.3214
 6411TIP3    H243429   0.614   5.190   8.972  0.0255  2.6910 -1.2424
 6412TIP3   OH243430   1.690   5.772   9.340  0.6963  0.1678  0.5534
 6412TIP3    H143431   1.680   5.863   9.315 -0.3451  0.1694  0.9554
 6412TIP3    H243432   1.722   5.729   9.261  1.5975  0.9436  0.4791
 6413TIP3   OH243433   4.155   2.041  11.026  0.2546  0.1446 -0.0565
 6413TIP3    H143434   4.062   2.050  11.007  0.0901 -1.8191 -0.4391
 6413TIP3    H243435   4.199   2.089  10.956 -0.4577  0.6051 -0.2014
 6414TIP3   OH243436   4.749   5.905  10.476 -0.0391 -0.3023  1.1465
 6414TIP3    H143437   4.748   5.977  10.539  1.2636  0.4283  0.3660
 6414TIP3    H243438   4.707   5.941  10.398  2.8284  0.5243 -0.1314
 6415TIP3   OH243439   4.327   0.058  12.013  0.0013  0.1956 -0.3538
 6415TIP3    H143440   4.320   0.124  11.944  0.9030  0.2757 -0.3796
 6415TIP3    H243441   4.348  -0.023  11.967 -0.1922  0.0759 -0.2356
 6416TIP3   OH243442   1.442   4.030  11.064  0.0193 -0.1409 -0.3038
 6416TIP3    H143443   1.427   4.102  11.125 -0.9989 -0.6724  0.0844
 6416TIP3    H243444   1.414   3.952  11.111  0.9076 -0.7844 -0.8032
 6417TIP3   OH243445   4.388   4.119   9.224  0.5599 -0.3202  0.5875
 6417TIP3    H143446   4.382   4.195   9.283  2.5133 -0.4135  0.9769
 6417TIP3    H243447   4.312   4.127   9.167  0.6344  1.8784  0.6981
 6418TIP3   OH243448   0.537   3.090  11.930  0.0770  0.3059  0.3396
 6418TIP3    H143449   0.444   3.113  11.936 -0.2992 -0.7744 -0.8695
 6418TIP3    H243450   0.551   3.027  12.000 -0.2442  0.0728  0.1984
 6419TIP3   OH243451   6.070   2.525   9.397  0.1922 -0.4943 -0.9297
 6419TIP3    H143452   6.030   2.474   9.467 -2.0880  0.3901 -1.4782
 6419TIP3    H243453   6.014   2.603   9.390 -0.3541 -1.0257 -4.4088
 6420TIP3   OH243454   6.580   0.290   9.797  0.2519  0.1848 -0.2020
 6420TIP3    H143455   6.659   0.250   9.762  0.6765 -0.2157  1.1328
 6420TIP3    H243456   6.544   0.224   9.857 -0.8252  0.5519 -0.4212
 6421TIP3   OH243457   5.053   0.559  10.679 -0.3525  0.2779  0.5979
 6421TIP3    H143458   5.133   0.547  10.628 -0.3308 -0.0117  0.6972
 6421TIP3    H243459   4.993   0.605  10.620  0.2796  1.5402  0.9109
 6422TIP3   OH243460   4.664   3.399   8.467 -0.1924 -0.1462 -0.3508
 6422TIP3    H143461   4.680   3.477   8.520  1.9877 -0.8452  0.1184
 6422TIP3    H243462   4.575   3.411   8.434  0.1463  2.6709 -0.5367
 6423TIP3   OH243463   0.760   2.339   8.350  0.5697 -0.3243  0.2837
 6423TIP3    H143464   0.695   2.274   8.377  1.9708 -2.4039 -1.0729
 6423TIP3    H243465   0.714   2.394   8.287 -0.6753  0.1291  1.5308
 6424TIP3   OH243466   5.651   4.261   8.762 -0.6507  0.0160  0.0218
 6424TIP3    H143467   5.651   4.351   8.729 -1.9625 -0.3504 -1.0653
 6424TIP3    H243468   5.562   4.248   8.795 -0.7178 -1.1388 -0.5775
 6425TIP3   OH243469   1.342   1.450   9.479  0.7048 -0.0618 -0.1981
 6425TIP3    H143470   1.312   1.430   9.391  1.0770 -0.2799 -0.2806
 6425TIP3    H243471   1.413   1.513   9.467  0.4045  0.3188 -0.0184
 6426TIP3   OH243472   4.102   1.349  11.003  0.1795 -0.1848  0.7441
 6426TIP3    H143473   4.021   1.300  11.018 -0.6067  0.0461 -2.1244
 6426TIP3    H243474   4.099   1.420  11.067 -1.1779 -0.9772  1.6242
 6427TIP3   OH243475   3.597   1.092   8.983 -0.5502  0.5161 -0.0545
 6427TIP3    H143476   3.612   1.036   8.907 -1.1439 -0.2151  0.3553
 6427TIP3    H243477   3.544   1.165   8.950 -1.8718 -0.4334 -0.1148
 6428TIP3   OH243478   2.289   5.722   9.161  0.2940 -0.4291  0.4825
 6428TIP3    H143479   2.314   5.750   9.073 -3.0179  0.3651 -0.3248
 6428TIP3    H243480   2.371   5.691   9.200  2.5427  2.2891 -1.6397
 6429TIP3   OH243481   2.512   1.184  11.185 -0.3669  0.0574  0.2639
 6429TIP3    H143482   2.456   1.161  11.259  0.3222 -0.4296  0.6405
 6429TIP3    H243483   2.583   1.234  11.224  0.1235 -0.3995 -0.0386
 6430TIP3   OH243484   3.050   0.602  10.456  0.5871 -0.3399  0.0467
 6430TIP3    H143485   2.961   0.637  10.446 -1.2454 -4.4691 -0.2109
 6430TIP3    H243486   3.086   0.649  10.531 -2.4889  0.3238  1.2492
 6431TIP3   OH243487   3.636   5.766   9.194  0.0426  0.0247 -0.3581
 6431TIP3    H143488   3.645   5.852   9.236 -0.3282  0.3689 -0.9609
 6431TIP3    H243489   3.725   5.739   9.175  0.1244  0.7028 -0.9855
 6432TIP3   OH243490   5.979   0.900  10.359 -0.1238 -0.0578 -0.1966
 6432TIP3    H143491   6.001   0.894  10.266  0.5910  1.1355 -0.1221
 6432TIP3    H243492   5.950   0.990  10.371  1.2151  0.2323  1.0392
 6433TIP3   OH243493   0.596   4.787  10.868 -0.0056 -0.1054 -0.3463
 6433TIP3    H143494   0.528   4.825  10.813 -1.0273 -1.3933 -0.0207
 6433TIP3    H243495   0.577   4.818  10.956 -2.1950 -2.9597  0.3293
 6434TIP3   OH243496   3.515   1.481   8.725 -0.2740 -0.2335 -0.0882
 6434TIP3    H143497   3.433   1.438   8.748 -0.1082 -1.0473 -0.9618
 6434TIP3    H243498   3.492   1.573   8.713 -0.7603 -0.1781  1.1378
 6435TIP3   OH243499   2.540   2.963  10.087 -0.4770  0.5568  0.5437
 6435TIP3    H143500   2.545   2.950   9.992 -1.6718  0.1289  0.5317
 6435TIP3    H243501   2.532   2.874  10.123  1.2038  0.6082  1.1598
 6436TIP3   OH243502   6.268   0.893   9.917 -0.3435  0.2220  0.2983
 6436TIP3    H143503   6.310   0.912   9.833  0.4716 -0.7490  0.4762
 6436TIP3    H243504   6.219   0.973   9.937 -1.1004  0.2406 -1.4073
 6437TIP3   OH243505   6.177   6.198   9.578  0.0982 -0.1200 -0.2057
 6437TIP3    H143506   6.183   6.248   9.660 -2.0151  0.3766 -0.3037
 6437TIP3    H243507   6.113   6.129   9.596  1.0640 -1.2269 -0.8758
 6438TIP3   OH243508   0.248   1.961  10.826  0.5061  0.5455 -0.5861
 6438TIP3    H143509   0.199   2.020  10.884  2.0656  1.5076 -0.1862
 6438TIP3    H243510   0.285   2.018  10.760  1.2631 -0.1273 -0.7516
 6439TIP3   OH243511   2.211   4.738  10.895 -0.3500 -0.5785 -0.2189
 6439TIP3    H143512   2.279   4.783  10.846 -1.1661 -1.1479 -1.9581
 6439TIP3    H243513   2.150   4.808  10.921  0.9787 -0.0172  1.6393
 6440TIP3   OH243514   4.738   5.042   9.811 -0.3899  0.7576  0.2397
 6440TIP3    H143515   4.749   5.135   9.832 -0.4642  0.2740  2.6581
 6440TIP3    H243516   4.813   4.999   9.851 -0.3599 -0.2692 -0.8516
 6441TIP3   OH243517   3.677   4.815  10.818  0.0653 -0.0695 -0.1167
 6441TIP3    H143518   3.657   4.726  10.847  1.0222  0.0113  0.8231
 6441TIP3    H243519   3.734   4.804  10.742  2.8858 -0.3102  1.9021
 6442TIP3   OH243520   3.812   2.500   8.862  0.0905  0.0452  0.3887
 6442TIP3    H143521   3.727   2.532   8.832  0.3101 -0.4013 -0.7549
 6442TIP3    H243522   3.848   2.572   8.914 -0.6256  0.5464  0.2043
 6443TIP3   OH243523   3.568   4.146  11.090 -0.2782 -0.4658  0.3294
 6443TIP3    H143524   3.483   4.101  11.094 -0.1289 -0.9077 -0.8908
 6443TIP3    H243525   3.611   4.122  11.171  0.0158 -3.0633 -0.4938
 6444TIP3   OH243526   5.225   1.197   9.368  0.4671  0.2935 -0.0349
 6444TIP3    H143527   5.165   1.134   9.410  0.8005  1.0161  1.6048
 6444TIP3    H243528   5.285   1.222   9.438  3.3366 -1.0802 -1.8239
 6445TIP3   OH243529   3.679   5.274   9.400 -0.4347 -0.1816  0.2814
 6445TIP3    H143530   3.704   5.241   9.314  2.9636  1.6535  0.4209
 6445TIP3    H243531   3.598   5.323   9.384  0.2399  0.3340 -1.9526
 6446TIP3   OH243532   2.980   6.077  11.186 -0.6341 -0.2078  0.3533
 6446TIP3    H143533   3.007   6.169  11.188  0.0914 -0.4089  0.1226
 6446TIP3    H243534   2.907   6.076  11.124  0.7573 -0.1188 -1.3695
 6447TIP3   OH243535   0.024   2.136  10.929 -0.4351  0.2589 -0.3333
 6447TIP3    H143536  -0.052   2.083  10.905 -0.2546 -0.6214  0.9063
 6447TIP3    H243537   0.035   2.197  10.856 -2.0060  0.0614 -0.7751
 6448TIP3   OH243538   6.641   0.678  10.975  0.0813  0.4314 -0.4113
 6448TIP3    H143539   6.705   0.652  11.041 -1.0393  1.7863  1.3306
 6448TIP3    H243540   6.681   0.754  10.932  0.3044  0.3121 -0.4144
 6449TIP3   OH243541   6.371   5.611   9.061 -0.2561  0.2215  0.0694
 6449TIP3    H143542   6.384   5.525   9.022 -0.5539  0.2637 -0.1257
 6449TIP3    H243543   6.433   5.614   9.134 -0.9092 -0.5195  0.6679
 6450TIP3   OH243544   5.161   6.423   8.921 -0.0042  0.2761  0.3324
 6450TIP3    H143545   5.145   6.364   8.847  1.2767  0.5190 -0.1556
 6450TIP3    H243546   5.088   6.406   8.980 -1.4293  0.5539 -1.2717
 6451TIP3   OH243547   4.531   1.935  10.576  0.0071  0.4433  0.2928
 6451TIP3    H143548   4.593   1.886  10.631  0.5135  1.4380  0.6326
 6451TIP3    H243549   4.494   2.001  10.634 -0.8882  0.2886 -0.0860
 6452TIP3   OH243550   2.699   3.495   8.172  0.1038 -0.3660 -0.1807
 6452TIP3    H143551   2.615   3.539   8.165  0.2697 -0.0575 -0.2470
 6452TIP3    H243552   2.763   3.559   8.140  0.4743 -0.2298  0.7892
 6453TIP3   OH243553   1.801   5.451  11.036 -0.7230 -0.0866  0.2332
 6453TIP3    H143554   1.884   5.479  11.075 -0.0111  0.3216 -1.4802
 6453TIP3    H243555   1.807   5.356  11.034  0.6038 -0.0161 -1.6444
 6454TIP3   OH243556   2.497   4.507   9.124  0.3477  1.0758  0.0758
 6454TIP3    H143557   2.508   4.602   9.121  1.0415  0.9849 -1.8918
 6454TIP3    H243558   2.449   4.491   9.205  3.5624  2.7233  2.5250
 6455TIP3   OH243559   3.659   1.595  10.132 -0.2040  0.4094 -0.4802
 6455TIP3    H143560   3.588   1.591  10.068  1.0818 -0.2839 -1.9367
 6455TIP3    H243561   3.734   1.557  10.086  0.6155 -0.7037  1.6709
 6456TIP3   OH243562   6.317   3.579   8.587 -0.1914  0.0082  0.1688
 6456TIP3    H143563   6.324   3.484   8.595  0.6619  0.1894  1.9426
 6456TIP3    H243564   6.235   3.593   8.539  0.5041 -1.6375 -1.6547
 6457TIP3   OH243565   3.533   1.027  12.182 -0.0804  0.0599 -0.2681
 6457TIP3    H143566   3.488   0.996  12.104  1.4180  0.0494 -1.1575
 6457TIP3    H243567   3.541   1.121  12.170 -0.5471  0.1719  0.2598
 6458TIP3   OH243568   2.684   3.347   9.567  0.8658 -0.1805  0.1032
 6458TIP3    H143569   2.639   3.268   9.535 -0.2121 -0.0564  1.2545
 6458TIP3    H243570   2.660   3.353   9.659  3.5267 -0.2732  0.8993
 6459TIP3   OH243571   0.393   6.240   9.634 -0.1039  0.0382  0.2306
 6459TIP3    H143572   0.368   6.332   9.643  0.0367  0.0082  0.9918
 6459TIP3    H243573   0.483   6.236   9.667  0.3876 -0.1331 -1.0653
 6460TIP3   OH243574   2.362   3.121  11.433 -0.0927 -0.1699  0.0366
 6460TIP3    H143575   2.351   3.147  11.524 -2.2538 -1.0667  0.1037
 6460TIP3    H243576   2.331   3.196  11.383  1.1195  0.3329  0.0209
 6461TIP3   OH243577   4.468   0.204  10.972  0.0542 -0.1115  0.1127
 6461TIP3    H143578   4.397   0.175  10.915 -1.5016  2.8387  0.3936
 6461TIP3    H243579   4.546   0.161  10.937 -1.4440 -1.3991 -1.8243
 6462TIP3   OH243580   2.013   4.452  11.326 -0.1526 -0.6149  0.3783
 6462TIP3    H143581   1.946   4.395  11.289 -0.6019 -0.2940  0.6825
 6462TIP3    H243582   2.017   4.527  11.267  0.9548 -1.2797 -0.4254
 6463TIP3   OH243583   2.889   6.560   8.797 -0.4698 -0.1925 -0.3415
 6463TIP3    H143584   2.967   6.615   8.809  0.1054 -0.5521 -2.0996
 6463TIP3    H243585   2.823   6.620   8.763 -0.0702 -0.4282 -1.5556
 6464TIP3   OH243586   2.737   6.598   9.805  0.2410 -0.3403 -0.0139
 6464TIP3    H143587   2.761   6.583   9.714 -0.5312  1.4009 -0.5691
 6464TIP3    H243588   2.768   6.687   9.824 -2.8059  0.8047  0.1814
 6465TIP3   OH243589   3.934   3.931  10.310 -0.2061  0.3237  0.3293
 6465TIP3    H143590   3.958   4.022  10.290 -1.9185  0.8669  0.5700
 6465TIP3    H243591   3.952   3.884  10.228  0.3522  0.9335  0.0826
 6466TIP3   OH243592   0.228   4.159   9.807  0.4635 -0.1011  0.4294
 6466TIP3    H143593   0.141   4.130   9.835  0.4396 -1.0867 -0.6259
 6466TIP3    H243594   0.211   4.238   9.755  0.2400 -0.0818  0.5316
 6467TIP3   OH243595   5.363   1.804  10.845  0.7370  0.4697 -0.1798
 6467TIP3    H143596   5.392   1.764  10.927  3.2058  2.4270  0.0410
 6467TIP3    H243597   5.440   1.800  10.788 -0.2109  1.2190 -1.5796
 6468TIP3   OH243598   4.973   0.120   9.546  0.2041 -0.4435 -0.3820
 6468TIP3    H143599   4.899   0.153   9.496  0.4786 -0.2365 -0.6541
 6468TIP3    H243600   5.049   0.168   9.512  0.1981  0.8397  1.2752
 6469TIP3   OH243601   5.447   1.844  11.537  0.4268  0.1645 -0.1602
 6469TIP3    H143602   5.513   1.777  11.557 -0.2029 -0.3319  0.3156
 6469TIP3    H243603   5.431   1.834  11.444  1.1661  0.4245 -0.3240
 6470TIP3   OH243604   1.391   4.327  10.510  0.6734 -0.6945  0.0168
 6470TIP3    H143605   1.481   4.306  10.536  0.6050  0.9976  1.7842
 6470TIP3    H243606   1.352   4.243  10.489  2.1316 -1.6534  0.9934
 6471TIP3   OH243607   0.401   2.544   8.403 -0.3631 -0.1406  0.0183
 6471TIP3    H143608   0.320   2.519   8.447 -0.2249 -0.6951 -0.0446
 6471TIP3    H243609   0.456   2.580   8.473  0.0970 -1.5882  0.4425
 6472TIP3   OH243610   3.996   1.105   9.543  0.3257  0.5013 -0.4169
 6472TIP3    H143611   3.936   1.040   9.506  0.9059  0.9713 -2.2512
 6472TIP3    H243612   4.071   1.105   9.484  0.3715  2.8161 -0.4390
 6473TIP3   OH243613   0.927   4.596   9.003  0.4387  0.5672 -0.3016
 6473TIP3    H143614   0.982   4.662   9.046 -0.2701  0.4801  0.7893
 6473TIP3    H243615   0.896   4.541   9.075  0.8597 -0.8515 -1.1789
 6474TIP3   OH243616   1.978   4.354   9.810 -0.1950 -0.1249  0.7545
 6474TIP3    H143617   2.060   4.304   9.806 -0.2672 -0.2614  0.9726
 6474TIP3    H243618   1.951   4.362   9.719 -0.2205 -0.5488  0.7207
 6475TIP3   OH243619   3.504   6.027  12.222 -0.4271 -0.2182 -0.4323
 6475TIP3    H143620   3.418   6.067  12.227 -0.8585 -1.1906  0.1991
 6475TIP3    H243621   3.487   5.935  12.202  0.2479 -1.1046  2.5324
 6476TIP3   OH243622   1.518   2.009   9.227  0.5979 -0.0680  0.4736
 6476TIP3    H143623   1.546   2.100   9.217  1.3599  0.0134  2.7161
 6476TIP3    H243624   1.430   2.014   9.263 -0.3559 -0.2842 -1.7115
 6477TIP3   OH243625   3.050   3.658  10.432 -0.6284  0.5986  0.1112
 6477TIP3    H143626   3.030   3.572  10.395  1.2135  0.8856 -1.7507
 6477TIP3    H243627   3.109   3.640  10.504 -3.0020  0.1407  2.0740
 6478TIP3   OH243628   2.686   2.395  11.991 -0.2266  0.5812 -0.2300
 6478TIP3    H143629   2.613   2.349  11.951 -0.8507  0.9820  0.4282
 6478TIP3    H243630   2.659   2.487  11.992  0.0698  0.6695  0.4699
 6479TIP3   OH243631   3.399   0.078  10.818 -0.4179  0.1753  0.1608
 6479TIP3    H143632   3.412   0.123  10.734 -0.1219 -1.7325 -0.8974
 6479TIP3    H243633   3.464   0.007  10.816 -1.3764 -0.7611  1.3616
 6480TIP3   OH243634   2.656   5.644  11.895 -0.3186 -0.1030  0.0855
 6480TIP3    H143635   2.594   5.574  11.917 -0.1929  0.1845  1.4287
 6480TIP3    H243636   2.649   5.705  11.968  1.1250  0.2325 -0.0327
 6481TIP3   OH243637   3.785   0.093  10.279  0.4003 -0.3699 -0.7161
 6481TIP3    H143638   3.745   0.180  10.286 -0.6162 -0.6730 -2.2964
 6481TIP3    H243639   3.772   0.054  10.365 -1.0707  0.2453 -0.6351
 6482TIP3   OH243640   5.140   2.629  11.952  0.1729 -0.1699  0.0454
 6482TIP3    H143641   5.075   2.640  12.021 -1.9373 -1.0025 -1.7131
 6482TIP3    H243642   5.206   2.570  11.990 -0.5719 -0.0689  1.5528
 6483TIP3   OH243643   5.200   4.825  10.006 -0.1679  0.4374  0.1101
 6483TIP3    H143644   5.144   4.844  10.082 -1.0805  3.8240 -1.2298
 6483TIP3    H243645   5.288   4.822  10.043 -0.7519 -0.0171  1.5723
 6484TIP3   OH243646   0.629   3.385   9.704 -0.5099  0.1306  0.6405
 6484TIP3    H143647   0.718   3.386   9.667 -0.9758  0.4063 -0.4949
 6484TIP3    H243648   0.631   3.453   9.772 -0.2520  1.1441 -0.3559
 6485TIP3   OH243649   2.453   1.016   9.131  0.3509 -0.1237  0.0534
 6485TIP3    H143650   2.397   1.038   9.056  0.1254  0.9107  0.5015
 6485TIP3    H243651   2.542   1.031   9.100  0.2350  0.7779  0.1261
 6486TIP3   OH243652   3.749   4.336   8.255 -0.1675  0.5888 -0.3908
 6486TIP3    H143653   3.729   4.247   8.285  1.6151  0.5547  0.9033
 6486TIP3    H243654   3.666   4.370   8.222 -1.4224 -0.7316  1.2320
 6487TIP3   OH243655   5.531   0.495  11.792 -0.2533 -0.2575  0.5694
 6487TIP3    H143656   5.438   0.486  11.813 -0.6711  0.4030 -0.8621
 6487TIP3    H243657   5.569   0.541  11.867 -0.8395 -1.4926  1.6619
 6488TIP3   OH243658   4.810   1.991   8.606 -0.9513  0.2492  0.5891
 6488TIP3    H143659   4.855   2.044   8.541 -1.5629  0.1860  0.1131
 6488TIP3    H243660   4.878   1.932   8.639 -0.6626  0.1979 -0.0773
 6489TIP3   OH243661   1.619   4.166  10.565  0.2422  0.1872 -0.0185
 6489TIP3    H143662   1.710   4.141  10.545  0.3729  0.9282 -0.3739
 6489TIP3    H243663   1.601   4.123  10.649  0.5145 -0.9457 -0.5141
 6490TIP3   OH243664   0.581   0.056   9.106 -0.0344  0.9720  0.1344
 6490TIP3    H143665   0.617  -0.027   9.138 -0.8586 -0.7610 -3.0172
 6490TIP3    H243666   0.644   0.122   9.134  0.8735 -0.7063  2.4008
 6491TIP3   OH243667   4.354   2.635  12.075  0.5504 -0.4501  0.0651
 6491TIP3    H143668   4.295   2.638  12.150  0.6108  1.5415  0.0797
 6491TIP3    H243669   4.345   2.721  12.033  1.4536 -1.0604 -1.4865
 6492TIP3   OH243670   5.292   1.694   9.409 -0.2923 -0.1049  0.4735
 6492TIP3    H143671   5.253   1.644   9.480  0.1327 -0.1965  0.6428
 6492TIP3    H243672   5.232   1.767   9.396 -1.0696 -0.8109  0.0241
 6493TIP3   OH243673   2.420   1.564  10.916 -0.0223 -0.1377  0.2262
 6493TIP3    H143674   2.397   1.587  11.007 -0.6750 -0.8279  0.2464
 6493TIP3    H243675   2.359   1.494  10.893  0.7636 -0.6219 -0.4279
 6494TIP3   OH243676   2.975   4.289   9.976 -0.2314  0.2249 -0.0986
 6494TIP3    H143677   3.006   4.243  10.054  0.9241  2.0941  0.6225
 6494TIP3    H243678   2.880   4.275   9.976 -0.2573  0.2220  1.6830
 6495TIP3   OH243679   5.983   3.424   9.179  0.1128 -0.0154 -0.5053
 6495TIP3    H143680   6.078   3.425   9.190  0.3976 -0.7904 -2.5042
 6495TIP3    H243681   5.953   3.506   9.219  1.3209 -0.7297  2.0786
 6496TIP3   OH243682   3.751   5.955  10.936  0.0614 -0.4016 -0.4198
 6496TIP3    H143683   3.706   5.959  10.851 -0.9060  1.8693  0.1498
 6496TIP3    H243684   3.695   5.899  10.990 -0.6317  0.1291 -0.5662
 6497TIP3   OH243685   3.760   3.558   9.216  0.5716  0.3227  0.2143
 6497TIP3    H143686   3.711   3.630   9.176 -0.2568 -0.7502 -0.7431
 6497TIP3    H243687   3.700   3.520   9.279  0.1690 -0.9120 -0.8659
 6498TIP3   OH243688   0.929   5.925  10.270 -0.4155 -0.2993 -0.0291
 6498TIP3    H143689   0.837   5.950  10.261  0.0233  1.7169  0.5293
 6498TIP3    H243690   0.933   5.836  10.235 -2.7749 -0.8793  0.9411
 6499TIP3   OH243691   3.278   2.946  10.387  0.1889  0.2410  0.7129
 6499TIP3    H143692   3.235   3.030  10.406 -0.2684  0.2392 -0.2457
 6499TIP3    H243693   3.368   2.959  10.414 -0.1892  0.5631  1.8941
 6500TIP3   OH243694   1.584   6.193   9.640 -0.0233 -0.1922 -0.2681
 6500TIP3    H143695   1.598   6.272   9.693  2.5508 -0.3424 -0.5747
 6500TIP3    H243696   1.607   6.221   9.551 -0.8835 -0.8473 -0.7079
 6501TIP3   OH243697   1.443   3.310  10.482  0.1124 -0.6874  0.1909
 6501TIP3    H143698   1.428   3.332  10.390 -1.0166  0.0404  0.5290
 6501TIP3    H243699   1.454   3.395  10.525 -1.8719 -0.8456  1.1243
 6502TIP3   OH243700   1.334   4.083  11.315 -0.3204  0.5210 -0.3272
 6502TIP3    H143701   1.354   4.169  11.352  0.7546  0.2133 -0.1491
 6502TIP3    H243702   1.249   4.060  11.351  0.9726 -0.0970  2.6088
 6503TIP3   OH243703   5.593   3.738   8.936 -0.1733  0.1410 -0.9048
 6503TIP3    H143704   5.663   3.715   8.875  0.2306 -2.1004  0.3128
 6503TIP3    H243705   5.636   3.751   9.020 -0.9274  1.5164 -0.6918
 6504TIP3   OH243706   0.491   0.416   9.180 -0.8061  0.2435 -0.3421
 6504TIP3    H143707   0.566   0.356   9.185 -0.6928  0.0055 -3.3548
 6504TIP3    H243708   0.521   0.494   9.226  0.2006 -0.8515  0.9545
 6505TIP3   OH243709   6.060   0.364  10.546 -0.2083 -0.4094 -0.0814
 6505TIP3    H143710   6.152   0.341  10.560 -0.1934 -1.6606 -1.8309
 6505TIP3    H243711   6.049   0.357  10.451 -2.1416 -0.4070  0.1159
 6506TIP3   OH243712   2.612   4.869  11.325 -0.0142  0.1188 -0.1628
 6506TIP3    H143713   2.616   4.930  11.398  0.2382 -0.1322  0.0372
 6506TIP3    H243714   2.704   4.857  11.299 -0.0140 -0.6137  0.1686
 6507TIP3   OH243715   3.836   6.150  12.177  0.4674 -0.5029  0.3724
 6507TIP3    H143716   3.780   6.191  12.243 -0.3392 -2.0023  0.6737
 6507TIP3    H243717   3.921   6.194  12.186 -0.6710  2.0026 -0.2486
 6508TIP3   OH243718   0.810   0.361  10.316  0.1726  0.1017  0.2963
 6508TIP3    H143719   0.859   0.343  10.236  0.1263  2.4539 -0.3358
 6508TIP3    H243720   0.878   0.376  10.382  0.2470  0.0108  0.2404
 6509TIP3   OH243721   4.863   5.075  10.073 -0.2463  0.0406 -0.4867
 6509TIP3    H143722   4.812   5.140  10.120 -0.1920  0.4733 -1.0111
 6509TIP3    H243723   4.936   5.125  10.035  1.0507 -0.7041  0.9482
 6510TIP3   OH243724   0.168   3.495  11.458 -0.8770 -0.6909 -0.3428
 6510TIP3    H143725   0.213   3.426  11.507 -1.0443 -0.2583  0.4521
 6510TIP3    H243726   0.177   3.573  11.514 -0.2391  0.0552 -1.4655
 6511TIP3   OH243727   5.412   5.395  11.543  0.1336 -0.5008  0.2802
 6511TIP3    H143728   5.328   5.440  11.550  0.2477 -0.4140  1.1874
 6511TIP3    H243729   5.475   5.456  11.579  0.9119  0.2364 -2.1639
 6512TIP3   OH243730   3.312   6.336  11.675  0.6445 -0.2677 -0.1856
 6512TIP3    H143731   3.379   6.274  11.646  0.1397 -0.7402 -0.3645
 6512TIP3    H243732   3.233   6.309  11.628 -0.5648 -1.8637  2.5333
 6513TIP3   OH243733   1.510   4.864   9.210  0.2450  0.0915  0.2804
 6513TIP3    H143734   1.475   4.951   9.230  0.8044  0.0423  1.6254
 6513TIP3    H243735   1.597   4.864   9.250  0.9775 -0.4816 -1.2400
 6514TIP3   OH243736   5.583   1.998   9.774 -0.1969 -0.0123 -0.3097
 6514TIP3    H143737   5.663   1.950   9.794  0.4821  1.1314 -0.2352
 6514TIP3    H243738   5.521   1.930   9.746  0.9432 -0.8594 -0.8663
 6515TIP3   OH243739   4.078   2.748  11.486  1.3417 -0.5502  0.1329
 6515TIP3    H143740   4.111   2.794  11.564  1.0696 -0.1682  0.0274
 6515TIP3    H243741   4.138   2.773  11.416  2.2951 -1.8311  0.4491
 6516TIP3   OH243742   1.190   3.207  10.569 -0.1393  0.5226  0.3144
 6516TIP3    H143743   1.276   3.218  10.528 -0.1294 -0.7753 -0.0595
 6516TIP3    H243744   1.128   3.242  10.505 -0.0429 -0.5375 -0.3812
 6517TIP3   OH243745   6.160   4.230  11.099 -0.0259  0.1611  0.2257
 6517TIP3    H143746   6.256   4.225  11.101  0.0296  0.9656  0.1955
 6517TIP3    H243747   6.142   4.324  11.093 -0.8206  0.0203  0.3433
 6518TIP3   OH243748   2.481   0.444   9.217  0.4126  0.7057  0.3523
 6518TIP3    H143749   2.524   0.420   9.136 -2.2557 -3.6199 -0.1164
 6518TIP3    H243750   2.398   0.483   9.189 -0.1275  0.0269  0.9657
 6519TIP3   OH243751   1.504   2.503   9.807  0.8274 -0.0574 -0.0058
 6519TIP3    H143752   1.529   2.413   9.829 -3.2856 -1.4639 -0.2011
 6519TIP3    H243753   1.539   2.517   9.719  0.4294 -2.0123 -0.5133
 6520TIP3   OH243754   6.387   1.165  11.473  0.1153  0.9532 -0.3270
 6520TIP3    H143755   6.435   1.145  11.554 -1.3656  0.5811  0.4857
 6520TIP3    H243756   6.344   1.083  11.449 -0.5735  1.4181 -0.7119
 6521TIP3   OH243757   2.989   3.663   8.401 -0.0278 -0.3274  0.4605
 6521TIP3    H143758   2.926   3.724   8.362  1.8828  2.5485  1.5546
 6521TIP3    H243759   3.023   3.613   8.327 -1.0419  0.5285 -0.6247
 6522TIP3   OH243760   2.302   0.529   9.694  0.1468  0.3502 -0.0992
 6522TIP3    H143761   2.376   0.577   9.656 -1.7809  1.4145 -2.8439
 6522TIP3    H243762   2.241   0.597   9.721 -0.6636 -0.5238  0.3312
 6523TIP3   OH243763   4.525   1.098   9.187 -0.1722  0.3670  0.2722
 6523TIP3    H143764   4.584   1.046   9.241  2.3348  0.4193 -2.1836
 6523TIP3    H243765   4.524   1.185   9.228  0.5148  0.0342  1.0164
 6524TIP3   OH243766   6.537   0.926   9.213  0.3095  0.5405  0.5682
 6524TIP3    H143767   6.487   0.941   9.133 -0.0398 -3.2654 -0.1542
 6524TIP3    H243768   6.627   0.950   9.190 -0.4015  3.4276  0.4900
 6525TIP3   OH243769   5.448   5.175   9.230 -0.3079  0.2263 -1.0404
 6525TIP3    H143770   5.487   5.089   9.217  0.7039  0.8744 -2.7166
 6525TIP3    H243771   5.375   5.178   9.169 -0.5946  0.4202 -0.6926
 6526TIP3   OH243772   6.353   1.741  11.161  0.0733 -0.0334 -0.6354
 6526TIP3    H143773   6.279   1.742  11.221  1.4216  1.4252  1.1134
 6526TIP3    H243774   6.341   1.818  11.106  0.5704  0.5496  0.0542
 6527TIP3   OH243775   3.871   5.715  11.101 -0.4506 -0.2415  0.2918
 6527TIP3    H143776   3.899   5.631  11.138  0.9559 -0.9229 -2.1300
 6527TIP3    H243777   3.775   5.714  11.111 -0.4145 -1.8082  0.9244
 6528TIP3   OH243778   3.361   5.856  11.650 -0.1904 -0.0068 -0.2185
 6528TIP3    H143779   3.355   5.797  11.725 -1.3014 -0.9340 -1.0135
 6528TIP3    H243780   3.281   5.841  11.600 -0.1254  1.6014 -0.8755
 6529TIP3   OH243781   4.469   1.813   9.219 -0.3641 -0.1952  0.2869
 6529TIP3    H143782   4.399   1.833   9.281 -0.4888 -0.1482  0.1318
 6529TIP3    H243783   4.447   1.726   9.184 -1.1055  0.3997 -0.7920
 6530TIP3   OH243784   3.631   1.268   9.454 -0.4700  0.1388  0.3282
 6530TIP3    H143785   3.673   1.184   9.435 -1.2927 -0.3124  0.4887
 6530TIP3    H243786   3.636   1.317   9.371 -0.8460 -0.4403 -0.0427
 6531TIP3   OH243787   0.360   3.853  10.146 -0.6862 -0.4077  0.0803
 6531TIP3    H143788   0.291   3.883  10.205  0.4164 -0.8075  1.6113
 6531TIP3    H243789   0.363   3.758  10.159  0.9600 -0.2686  0.9703
 6532TIP3   OH243790   4.808   0.133  10.106 -0.1850  0.0478  0.2647
 6532TIP3    H143791   4.801   0.039  10.121 -1.4798 -0.0292 -0.6886
 6532TIP3    H243792   4.888   0.143  10.055 -0.7401 -0.6989 -0.7819
 6533TIP3   OH243793   1.795   5.506   9.613 -0.1777  0.4425  0.7654
 6533TIP3    H143794   1.824   5.594   9.638 -0.6895  1.2864 -1.3161
 6533TIP3    H243795   1.792   5.509   9.517  2.1675 -2.6585  0.4719
 6534TIP3   OH243796   5.780   4.350  10.617  0.5033  0.2596  0.3443
 6534TIP3    H143797   5.687   4.328  10.613  0.4757  0.1046  1.5613
 6534TIP3    H243798   5.825   4.265  10.624  0.6520  0.3812  0.9486
 6535TIP3   OH243799   2.007   3.684   9.198  0.1802  0.1262 -0.3988
 6535TIP3    H143800   1.912   3.690   9.191 -0.1987 -0.2893  2.9753
 6535TIP3    H243801   2.023   3.616   9.263  2.8744 -0.6620 -1.6977
 6536TIP3   OH243802   0.856   4.433   9.259 -0.2460  0.2754 -0.3429
 6536TIP3    H143803   0.779   4.482   9.291 -0.6118 -0.3027 -0.3261
 6536TIP3    H243804   0.845   4.345   9.294  1.1277  0.5169  0.7680
 6537TIP3   OH243805   1.157   5.045   9.178 -0.1150 -0.5669  0.0520
 6537TIP3    H143806   1.077   5.010   9.139 -0.1010 -0.5303 -0.0093
 6537TIP3    H243807   1.127   5.112   9.239 -0.0193  1.3548 -1.8942
 6538TIP3   OH243808   3.401   3.621  10.210 -0.1740 -0.8633 -0.2122
 6538TIP3    H143809   3.393   3.544  10.266 -1.6150 -0.8692 -0.4034
 6538TIP3    H243810   3.377   3.695  10.266  1.2302 -0.5220 -0.0220
 6539TIP3   OH243811   2.548   2.683  10.161  0.1188  1.1220 -0.3989
 6539TIP3    H143812   2.576   2.604  10.115 -2.1446  0.1957 -0.3326
 6539TIP3    H243813   2.614   2.696  10.229  0.9901 -0.2100 -0.9480
 6540TIP3   OH243814   0.684   1.393   8.831 -0.3513  0.0480 -0.8552
 6540TIP3    H143815   0.620   1.461   8.853 -0.2230  0.6297 -2.2014
 6540TIP3    H243816   0.720   1.366   8.915 -1.5277  0.5266 -0.1684
 6541TIP3   OH243817   1.243   4.244   8.523 -0.1662  0.2117 -0.1348
 6541TIP3    H143818   1.330   4.261   8.488 -0.3394 -1.5011 -1.6145
 6541TIP3    H243819   1.258   4.191   8.601  0.1604 -0.9162 -0.9211
 6542TIP3   OH243820   6.292   2.509   9.248 -0.0192  0.0399  0.3615
 6542TIP3    H143821   6.283   2.438   9.185 -2.0985  1.7325 -1.4157
 6542TIP3    H243822   6.206   2.516   9.289  0.5687  0.6083  1.5475
 6543TIP3   OH243823   4.025   3.798   9.400 -0.3280  0.5977 -0.0097
 6543TIP3    H143824   4.085   3.863   9.437 -0.7011  0.7198  0.3786
 6543TIP3    H243825   4.075   3.760   9.327 -0.0297  1.1773 -0.1210
 6544TIP3   OH243826   1.505   2.843   8.814 -0.2828 -0.7018  0.4270
 6544TIP3    H143827   1.419   2.830   8.854 -0.8050 -3.3569 -1.2706
 6544TIP3    H243828   1.490   2.833   8.720  1.3891  2.2629 -0.2886
 6545TIP3   OH243829   6.211   1.368   8.902 -0.1620 -0.2966 -0.5466
 6545TIP3    H143830   6.157   1.391   8.826  1.9682  0.4574 -1.9253
 6545TIP3    H243831   6.217   1.273   8.900 -1.5022 -0.4014 -0.2885
 6546TIP3   OH243832   5.941   2.776  10.916  0.7168 -0.7163  0.1613
 6546TIP3    H143833   5.938   2.837  10.842  0.2431 -1.1549 -0.1905
 6546TIP3    H243834   5.998   2.705  10.886 -0.1462 -1.3048 -0.1125
 6547TIP3   OH243835   2.606   1.281  10.863 -0.1999 -0.4415  0.2801
 6547TIP3    H143836   2.513   1.266  10.846 -0.4256 -0.8393  1.7732
 6547TIP3    H243837   2.649   1.200  10.836 -0.4356 -0.7066  0.6983
 6548TIP3   OH243838   3.810   4.092   8.555 -0.3045  0.6677 -0.6100
 6548TIP3    H143839   3.756   4.072   8.478  1.1377  0.7617 -1.6827
 6548TIP3    H243840   3.748   4.128   8.619 -2.1089 -2.3364 -0.4933
 6549TIP3   OH243841   0.387   4.000   9.324  0.0390  0.5420  0.0484
 6549TIP3    H143842   0.355   4.063   9.259  1.2159  0.9171 -0.1841
 6549TIP3    H243843   0.448   3.944   9.276 -0.3822 -0.2787  0.4472
 6550TIP3   OH243844   0.855   3.064  10.249 -0.2451  0.1196 -0.2742
 6550TIP3    H143845   0.912   3.073  10.172 -0.0179 -1.8522 -0.3996
 6550TIP3    H243846   0.914   3.039  10.320 -0.7871 -0.8635 -0.1486
 6551TIP3   OH243847   5.456   1.369  10.163  0.4072  0.6022  0.0517
 6551TIP3    H143848   5.402   1.356  10.241 -0.2001  0.0502 -0.4434
 6551TIP3    H243849   5.458   1.464  10.151  0.7942  0.7102  0.9302
 6552TIP3   OH243850   0.057   2.424   8.769  0.2501  0.1773 -0.0713
 6552TIP3    H143851   0.050   2.332   8.795 -1.0655  0.2344 -0.1425
 6552TIP3    H243852  -0.003   2.470   8.828  2.5674  1.3494  1.4848
 6553TIP3   OH243853   4.426   1.772  11.276 -0.2723  0.1770  0.1966
 6553TIP3    H143854   4.421   1.732  11.189 -0.0762  2.3741 -0.9014
 6553TIP3    H243855   4.514   1.749  11.308 -0.6644 -1.3897  0.2597
 6554TIP3   OH243856   3.940   5.423  11.595 -0.2907 -0.2392  0.2678
 6554TIP3    H143857   3.880   5.352  11.616 -1.1847  0.5590  0.5073
 6554TIP3    H243858   3.907   5.458  11.512 -0.4179  0.4707  0.6073
 6555TIP3   OH243859   0.089   2.135  10.180  0.0895 -0.0299  0.0566
 6555TIP3    H143860  -0.002   2.115  10.160  0.3308 -3.5525  1.8088
 6555TIP3    H243861   0.085   2.184  10.262 -0.2167 -0.4910  0.3184
 6556TIP3   OH243862   6.364   5.984   9.949 -0.0778  0.4087  0.1108
 6556TIP3    H143863   6.292   6.032   9.991  0.8736  1.6792  0.3311
 6556TIP3    H243864   6.439   5.998  10.005  1.2358  2.1352 -1.8987
 6557TIP3   OH243865   1.137   0.638   9.571 -0.2590 -0.2331 -0.1129
 6557TIP3    H143866   1.099   0.659   9.656 -0.4754  2.0409 -0.7106
 6557TIP3    H243867   1.063   0.606   9.519 -0.8346  1.4323 -0.3852
 6558TIP3   OH243868   3.886   2.198  11.774  0.5231 -0.0457  0.5986
 6558TIP3    H143869   3.960   2.233  11.725  0.6824 -0.2153  0.7137
 6558TIP3    H243870   3.872   2.261  11.845 -0.1332  0.5414 -0.0490
 6559TIP3   OH243871   3.145   4.423   8.509  0.1215  0.0170  0.0340
 6559TIP3    H143872   3.069   4.475   8.483  0.1175 -0.8667 -1.8986
 6559TIP3    H243873   3.219   4.485   8.504 -0.6731  1.8558  5.1857
 6560TIP3   OH243874   6.512   6.062   9.734 -0.1212 -0.1486  0.2502
 6560TIP3    H143875   6.591   6.012   9.756  0.1925  0.7322  1.2468
 6560TIP3    H243876   6.460   6.061   9.815 -0.9242 -0.3193 -0.2505
 6561TIP3   OH243877   2.716   1.916  11.504  0.1018 -0.1175 -0.2175
 6561TIP3    H143878   2.742   1.919  11.596  1.1384 -2.4470 -0.3684
 6561TIP3    H243879   2.769   1.984  11.462  0.8815 -0.1929  0.6115
 6562TIP3   OH243880   0.708   3.307  10.223  0.2923  0.1712  0.0688
 6562TIP3    H143881   0.721   3.278  10.133  0.8066 -0.8683  0.4613
 6562TIP3    H243882   0.736   3.233  10.277  0.8297  1.0886  1.1014
 6563TIP3   OH243883   0.004   4.762  10.846 -0.1080  0.1799 -0.8022
 6563TIP3    H143884   0.050   4.827  10.899  2.0697 -1.1047 -1.0104
 6563TIP3    H243885  -0.032   4.701  10.910 -1.2076  0.9469 -0.6599
 6564TIP3   OH243886   6.613   0.431  10.740 -0.1038 -0.0270  0.0293
 6564TIP3    H143887   6.568   0.477  10.670 -0.7027 -1.2217 -0.3913
 6564TIP3    H243888   6.698   0.408  10.702  0.5840  1.4874  0.5466
 6565TIP3   OH243889   4.017   6.525  11.891 -0.6247 -0.4157 -0.2899
 6565TIP3    H143890   4.012   6.594  11.826 -0.2096  0.9297  1.0375
 6565TIP3    H243891   4.110   6.506  11.899 -0.8419 -2.4150 -1.8867
 6566TIP3   OH243892   3.927   0.250   9.674  0.0701  0.1217  0.1222
 6566TIP3    H143893   3.892   0.245   9.763 -1.6867 -1.1048 -0.6003
 6566TIP3    H243894   3.929   0.159   9.643 -1.8737  0.6977 -1.9935
 6567TIP3   OH243895   3.485   1.772  11.316 -0.8798  0.1824  0.4802
 6567TIP3    H143896   3.459   1.680  11.312  0.2209 -0.1598  0.8645
 6567TIP3    H243897   3.530   1.780  11.400 -0.7588  1.0233  0.3402
 6568TIP3   OH243898   2.139   5.245   9.144 -0.4171 -0.1705  0.0907
 6568TIP3    H143899   2.095   5.318   9.101 -0.8014 -0.0946  0.6109
 6568TIP3    H243900   2.215   5.285   9.188 -0.5780 -0.0972  0.3024
 6569TIP3   OH243901   4.059   2.046  10.719  0.0153  0.1646 -0.1202
 6569TIP3    H143902   3.970   2.081  10.721  0.1983  0.7370 -1.4959
 6569TIP3    H243903   4.049   1.957  10.686  0.0573  0.6139 -1.3757
 6570TIP3   OH243904   5.092   4.140  10.763  0.1928 -0.3500  0.1140
 6570TIP3    H143905   5.035   4.068  10.736 -1.0318  0.9505 -0.9385
 6570TIP3    H243906   5.166   4.097  10.807 -0.8677 -2.1811  0.2196
 6571TIP3   OH243907   1.479   5.427   9.177  0.1968 -0.1302 -0.4265
 6571TIP3    H143908   1.484   5.332   9.181  0.5303 -0.1424 -1.0736
 6571TIP3    H243909   1.388   5.446   9.156  0.3475 -0.3465 -1.3098
 6572TIP3   OH243910   5.022   3.490  10.284 -0.6416 -0.1222  0.3458
 6572TIP3    H143911   5.101   3.437  10.296 -0.7145 -0.1727  0.6067
 6572TIP3    H243912   4.950   3.430  10.306 -0.6950  0.2858  1.3043
 6573TIP3   OH243913   3.633   1.289  10.236  0.1528  0.1737 -0.5972
 6573TIP3    H143914   3.618   1.244  10.153  0.5749  1.6653 -1.5145
 6573TIP3    H243915   3.619   1.381  10.217  0.6972  0.5979  0.8815
 6574TIP3   OH243916   4.991   2.491   8.367  0.3904  0.1329 -0.1418
 6574TIP3    H143917   4.922   2.436   8.330 -0.1769  1.6189 -1.4010
 6574TIP3    H243918   5.071   2.441   8.355 -0.1019 -0.4135 -1.2838
 6575TIP3   OH243919   3.982   2.894  10.030  0.4096  0.0801 -0.3842
 6575TIP3    H143920   4.066   2.939  10.030  0.3123  0.2751  0.7438
 6575TIP3    H243921   3.917   2.964  10.034  0.2677 -0.0847  2.6017
 6576TIP3   OH243922   2.597   1.022  10.706 -0.1516  0.1109  0.2093
 6576TIP3    H143923   2.508   1.055  10.696 -0.6164 -0.1100  2.8018
 6576TIP3    H243924   2.593   0.932  10.673 -0.0413  1.0411 -2.5596
 6577TIP3   OH243925   1.156   1.200  11.316  0.4214  0.0093  0.0551
 6577TIP3    H143926   1.158   1.129  11.252 -1.4226 -0.3164  0.3086
 6577TIP3    H243927   1.081   1.253  11.290  1.7053  1.8341 -0.0606
 6578TIP3   OH243928   3.980   5.184  10.518  0.1016 -0.4241  0.0542
 6578TIP3    H143929   4.067   5.219  10.501  0.5731 -0.2724  2.3707
 6578TIP3    H243930   3.936   5.252  10.569 -0.3195 -1.6061  1.3634
 6579TIP3   OH243931   3.912   6.497   9.318  0.2011  0.6576 -0.3723
 6579TIP3    H143932   3.962   6.569   9.281 -0.1361  0.4495 -1.2591
 6579TIP3    H243933   3.969   6.460   9.385  0.0174  2.3356  0.7908
 6580TIP3   OH243934   1.208   3.013  10.205 -0.5362  0.3582  0.2240
 6580TIP3    H143935   1.160   3.016  10.287 -1.9894  1.2039 -0.6119
 6580TIP3    H243936   1.226   2.920  10.191 -0.1233  0.2244  1.5633
 6581TIP3   OH243937   3.298   3.215  11.297  0.0312 -0.1939 -0.0490
 6581TIP3    H143938   3.323   3.307  11.288 -0.0781 -0.2697 -1.2289
 6581TIP3    H243939   3.329   3.174  11.217  1.2143 -1.4627  1.0164
 6582TIP3   OH243940   1.926   6.571   9.789 -0.2576  0.7142  0.1582
 6582TIP3    H143941   1.866   6.646   9.783 -0.3651  0.5789 -0.5708
 6582TIP3    H243942   2.002   6.598   9.739 -0.6130  0.0469 -0.7730
 6583TIP3   OH243943   0.064   3.154   8.471 -0.3305 -0.2673 -0.3307
 6583TIP3    H143944   0.110   3.095   8.411 -1.4097 -0.6472 -0.8010
 6583TIP3    H243945   0.132   3.183   8.532  0.9739  0.7450 -2.1770
 6584TIP3   OH243946   4.335   1.388  10.804 -0.6271 -0.0588 -0.3765
 6584TIP3    H143947   4.400   1.459  10.796  0.9293 -1.4862 -0.9348
 6584TIP3    H243948   4.263   1.428  10.852  0.1014  1.9743 -0.8397
 6585TIP3   OH243949   6.661   1.121   8.695  0.3942 -0.1709  0.0980
 6585TIP3    H143950   6.588   1.150   8.640  0.8177 -0.2861 -0.5335
 6585TIP3    H243951   6.646   1.164   8.779 -1.2507 -1.3870  0.4878
 6586TIP3   OH243952   0.471   1.115  11.579  0.3256  0.4897  0.0842
 6586TIP3    H143953   0.398   1.073  11.624 -1.0370  2.7490  0.1328
 6586TIP3    H243954   0.549   1.072  11.614 -0.9081 -1.8480  0.2008
 6587TIP3   OH243955   2.752   6.645  10.396 -0.3742 -0.2426  1.3126
 6587TIP3    H143956   2.760   6.649  10.491 -1.1618 -1.7713  1.4699
 6587TIP3    H243957   2.719   6.557  10.378 -2.0929  0.6405 -0.2324
 6588TIP3   OH243958   1.845   5.054  10.605  0.3683  0.4028 -0.9556
 6588TIP3    H143959   1.842   5.135  10.554 -0.6194  0.6272 -0.5596
 6588TIP3    H243960   1.826   4.985  10.542 -1.1283  0.7036 -0.8801
 6589TIP3   OH243961   1.766   4.812  11.165 -0.2992  0.3092 -0.6253
 6589TIP3    H143962   1.735   4.722  11.163 -1.4255  0.6963 -2.0724
 6589TIP3    H243963   1.861   4.804  11.161 -0.2843 -0.8269  0.9136
 6590TIP3   OH243964   1.866   2.013  10.431  0.7031 -0.3506 -0.3746
 6590TIP3    H143965   1.782   2.013  10.385  0.6127  1.2100 -0.2680
 6590TIP3    H243966   1.917   2.081  10.388  1.5486 -0.5999  0.2109
 6591TIP3   OH243967   1.092   6.453  10.642  0.0247  0.4569  0.3186
 6591TIP3    H143968   1.110   6.373  10.692 -0.3211  0.2761  0.1581
 6591TIP3    H243969   0.998   6.451  10.627  0.0143  0.8928  0.3038
 6592TIP3   OH243970   1.279   6.625   9.914 -0.2913  0.3043  0.1974
 6592TIP3    H143971   1.360   6.654   9.871 -1.3610  1.9454 -0.8082
 6592TIP3    H243972   1.305   6.612  10.005  1.2117  0.3524 -0.1820
 6593TIP3   OH243973   0.997   0.998   9.183 -0.0389  0.0985 -0.2465
 6593TIP3    H143974   1.048   0.976   9.261 -0.4047  0.2667  0.0423
 6593TIP3    H243975   0.972   1.090   9.195 -1.6401 -0.3744  0.3321
 6594TIP3   OH243976   4.519   6.475   9.306  0.0092 -0.4398 -0.5723
 6594TIP3    H143977   4.548   6.384   9.295  1.8117 -0.0447  0.4648
 6594TIP3    H243978   4.447   6.485   9.244  0.2055 -2.3811 -1.1832
 6595TIP3   OH243979   0.065   1.120   8.972 -0.3032  0.0898 -0.5075
 6595TIP3    H143980   0.089   1.072   9.052  2.3612  2.4917  0.3464
 6595TIP3    H243981  -0.009   1.175   8.998 -2.2696 -2.1585 -1.0280
 6596TIP3   OH243982   1.617   6.267  11.603  0.5704  0.3032 -0.0364
 6596TIP3    H143983   1.615   6.175  11.630  1.9616  0.9248  2.4502
 6596TIP3    H243984   1.531   6.301  11.628  0.4653 -0.0427  0.0852
 6597TIP3   OH243985   5.751   2.747  10.181 -0.2030 -0.4131  0.4277
 6597TIP3    H143986   5.717   2.666  10.144 -0.1751  0.1614 -0.8814
 6597TIP3    H243987   5.844   2.747  10.159 -0.4924  0.6789 -0.9452
 6598TIP3   OH243988   3.131   2.027  10.205  0.0040  0.0527 -0.4666
 6598TIP3    H143989   3.136   2.115  10.243 -1.6819  0.9368 -2.1131
 6598TIP3    H243990   3.157   1.968  10.276 -0.4145  1.7709  1.1793
 6599TIP3   OH243991   3.027   4.883   8.483  0.2224  0.0014 -0.0654
 6599TIP3    H143992   3.114   4.915   8.458 -0.4854  1.0287 -1.3256
 6599TIP3    H243993   2.994   4.949   8.544  0.2026 -0.2335  0.1793
 6600TIP3   OH243994   2.996   6.380  10.877 -0.0154  0.0211  0.2317
 6600TIP3    H143995   3.058   6.448  10.850  0.8243 -0.2585  1.3833
 6600TIP3    H243996   3.031   6.299  10.838  0.1416 -0.0797  0.5810
 6601TIP3   OH243997   3.888   2.882   8.440 -0.7279 -0.5518  0.1408
 6601TIP3    H143998   3.798   2.902   8.415 -1.2817 -2.4691  0.4001
 6601TIP3    H243999   3.933   2.966   8.437 -2.5299  0.4690  0.0654
 6602TIP3   OH244000   1.592   5.959  10.708  0.3625 -0.5203  0.0672
 6602TIP3    H144001   1.554   6.043  10.684  2.8369  0.4867 -0.5854
 6602TIP3    H244002   1.582   5.905  10.630  2.9872  0.7946 -1.3173
 6603TIP3   OH244003   3.178   4.160   8.514 -0.1717  0.0711 -0.9877
 6603TIP3    H144004   3.161   4.118   8.598 -2.2971  0.9106 -0.9336
 6603TIP3    H244005   3.168   4.253   8.531  0.7660  0.3656 -1.9047
 6604TIP3   OH244006   0.806   2.676  11.122 -0.5190  0.0737 -1.0807
 6604TIP3    H144007   0.794   2.589  11.083 -1.1682  0.8249 -2.6219
 6604TIP3    H244008   0.790   2.662  11.215 -0.4099 -1.4940 -1.2552
 6605TIP3   OH244009   4.924   3.766   8.953 -0.3684 -0.2325  0.4883
 6605TIP3    H144010   4.983   3.832   8.990  0.3533  1.1911 -2.8251
 6605TIP3    H244011   4.982   3.700   8.915 -0.9280 -0.2523 -0.3704
 6606TIP3   OH244012   5.917   1.121  10.938  0.0751  0.3371 -0.6800
 6606TIP3    H144013   5.977   1.108  10.864  1.5582  0.5117  0.4606
 6606TIP3    H244014   5.950   1.199  10.982  0.6709 -1.0509  1.5071
 6607TIP3   OH244015   4.532   6.425  10.064 -0.7235 -0.2173  0.2525
 6607TIP3    H144016   4.570   6.338  10.076 -3.1978 -1.4007  0.1882
 6607TIP3    H244017   4.546   6.444   9.971 -1.0866 -1.0693  0.0040
 6608TIP3   OH244018   0.345   3.555  11.198 -0.0177 -0.6113 -0.0255
 6608TIP3    H144019   0.313   3.597  11.278 -1.3190 -2.4350  0.4844
 6608TIP3    H244020   0.421   3.504  11.227  0.4510 -0.0646 -0.2776
 6609TIP3   OH244021   0.029   1.605   9.560 -0.1974 -0.0845 -0.1873
 6609TIP3    H144022   0.114   1.645   9.546  0.0614 -1.3816 -2.8295
 6609TIP3    H244023   0.042   1.545   9.633  0.3677  1.6907  1.2602
 6610TIP3   OH244024   3.505   5.899  19.650  0.1994 -0.0538 -0.4348
 6610TIP3    H144025   3.532   5.809  19.671  0.3542 -0.4446 -2.1809
 6610TIP3    H244026   3.552   5.919  19.569 -0.1761  1.4624 -0.2993
 6611TIP3   OH244027   1.951   3.910  10.316 -0.2224 -0.1050  0.1160
 6611TIP3    H144028   1.893   3.979  10.282  0.6635  0.3494 -0.5018
 6611TIP3    H244029   2.005   3.886  10.241  0.3982 -0.5150  0.6924
 6612TIP3   OH244030   1.469   0.422  10.341 -0.0806 -0.1136 -0.1431
 6612TIP3    H144031   1.423   0.371  10.409  1.5847 -0.5430  0.7252
 6612TIP3    H244032   1.425   0.397  10.260 -0.3650 -1.7451  0.4531
 6613TIP3   OH244033   5.500   1.055   9.214  0.5779  0.3758 -0.0276
 6613TIP3    H144034   5.521   1.136   9.169 -1.7852 -0.0192 -2.1018
 6613TIP3    H244035   5.479   0.993   9.143  0.7180 -1.5602  1.5281
 6614TIP3   OH244036   3.668   2.031  12.520 -0.1107  0.3875  0.0492
 6614TIP3    H144037   3.762   2.027  12.507  0.1162 -0.7277  1.7397
 6614TIP3    H244038   3.651   2.122  12.545  0.8409  0.1908  1.6012
 6615TIP3   OH244039   6.511   2.461   9.424  0.0286 -0.3975 -0.0662
 6615TIP3    H144040   6.465   2.488   9.344  0.8158  1.5671  0.0726
 6615TIP3    H244041   6.461   2.501   9.495  1.5327  1.2965  0.1149
 6616TIP3   OH244042   2.310   2.032  10.586  0.3147 -0.1446  0.0401
 6616TIP3    H144043   2.403   2.055  10.583  0.9664 -2.5186  0.0097
 6616TIP3    H244044   2.275   2.061  10.501  0.7858  1.5215  0.3830
 6617TIP3   OH244045   6.499   4.664  11.297  0.0519 -0.1471  0.3252
 6617TIP3    H144046   6.472   4.745  11.342  0.4304 -0.2244  0.7028
 6617TIP3    H244047   6.501   4.598  11.367 -2.6676 -1.0919 -0.3838
 6618TIP3   OH244048   4.859   2.773  10.011 -0.0477  0.4110  0.3451
 6618TIP3    H144049   4.925   2.812   9.953  0.2701 -1.9863 -1.0408
 6618TIP3    H244050   4.895   2.782  10.099  2.5186 -1.3628 -0.4038
 6619TIP3   OH244051   3.864   1.926   9.340 -0.3871  0.2871  0.4300
 6619TIP3    H144052   3.781   1.882   9.322  0.3880 -0.4747 -1.5202
 6619TIP3    H244053   3.864   1.937   9.435 -1.4903 -2.2447  0.8210
 6620TIP3   OH244054   2.176   2.925  11.922 -0.3280 -0.1994 -0.1976
 6620TIP3    H144055   2.231   2.863  11.969 -1.9728 -1.0146  0.7481
 6620TIP3    H244056   2.102   2.941  11.980 -1.6622 -0.0275 -1.8441
 6621TIP3   OH244057   0.098   5.467   9.777  0.3864  0.0362  0.4875
 6621TIP3    H144058   0.170   5.418   9.815 -1.0275 -3.5380 -1.0164
 6621TIP3    H244059   0.092   5.435   9.687 -1.3550  2.2892 -0.2992
 6622TIP3   OH244060   3.749   1.690   8.996  0.0934  0.0417  0.6925
 6622TIP3    H144061   3.724   1.737   9.076 -0.1540  0.7085  0.2376
 6622TIP3    H244062   3.679   1.711   8.933  0.6808  0.1613  0.0629
 6623TIP3   OH244063   5.059   5.185   9.931 -0.5234 -0.3893  0.3938
 6623TIP3    H144064   5.153   5.174   9.920 -0.7629 -1.2508 -1.1267
 6623TIP3    H244065   5.047   5.278   9.950  0.5762 -0.0779 -0.3603
 6624TIP3   OH244066   0.045   4.604   9.053 -0.5274 -0.3012  0.0324
 6624TIP3    H144067   0.047   4.697   9.076  0.2437 -0.1774 -0.5063
 6624TIP3    H244068   0.034   4.603   8.958 -0.1799 -0.7544 -0.0037
 6625TIP3   OH244069   4.602   4.268  10.350 -0.2027 -0.0569 -0.2510
 6625TIP3    H144070   4.671   4.230  10.294 -2.0725 -3.4443 -0.5084
 6625TIP3    H244071   4.635   4.257  10.439  0.1369 -0.4595 -0.4228
 6626TIP3   OH244072   5.055   0.274   8.799 -0.2387 -0.4947  0.5104
 6626TIP3    H144073   5.120   0.341   8.819 -1.6020  1.1919 -0.4509
 6626TIP3    H244074   5.100   0.191   8.818  2.0996  0.5815  0.1154
 6627TIP3   OH244075   5.712   3.757  10.246  0.1548  0.3577 -0.2520
 6627TIP3    H144076   5.687   3.729  10.334 -2.2247 -2.1531 -1.5883
 6627TIP3    H244077   5.760   3.683  10.210 -1.6544 -0.0096 -2.1010
 6628TIP3   OH244078   0.163   6.196  10.074 -0.4010  0.3609 -0.5326
 6628TIP3    H144079   0.146   6.288  10.092  1.2455  0.6952 -0.5510
 6628TIP3    H244080   0.202   6.195   9.987  1.1933 -0.1383  0.1591
 6629TIP3   OH244081   3.923   0.375  10.508 -0.1201 -0.2145 -0.3937
 6629TIP3    H144082   3.982   0.424  10.450 -0.9084  0.6698 -0.4763
 6629TIP3    H244083   3.846   0.432  10.517 -1.3647 -1.7313 -1.0400
 6630TIP3   OH244084   1.723   6.257   9.375 -0.5038 -0.4110 -0.1086
 6630TIP3    H144085   1.748   6.284   9.287  0.4305 -1.3756 -0.1547
 6630TIP3    H244086   1.758   6.326   9.432  2.4756 -1.7362 -0.1551
 6631TIP3   OH244087   1.329   3.669   9.211 -0.4526 -0.0353  0.4142
 6631TIP3    H144088   1.376   3.739   9.257 -1.3486  0.4300  0.6497
 6631TIP3    H244089   1.239   3.700   9.208 -0.3174  0.2820 -2.2829
 6632TIP3   OH244090   3.576   2.480  10.776  0.1063  0.0224 -0.0632
 6632TIP3    H144091   3.495   2.521  10.745 -1.0581 -1.3596  0.9822
 6632TIP3    H244092   3.606   2.427  10.702 -0.0566  0.3717 -0.3839
 6633TIP3   OH244093   1.812   5.202   9.282  0.6199 -0.2246  0.0501
 6633TIP3    H144094   1.891   5.191   9.335  0.2378 -2.9715  0.2068
 6633TIP3    H244095   1.834   5.165   9.197  0.1815  1.0703 -0.6461
 6634TIP3   OH244096   0.951   1.096  10.838  0.1800 -0.4308 -0.2128
 6634TIP3    H144097   0.892   1.171  10.841  0.5953 -0.1093  2.2330
 6634TIP3    H244098   1.036   1.133  10.815  0.0381 -0.4070 -0.6911
 6635TIP3   OH244099   5.871   2.084  10.141 -0.0329 -0.5174 -0.4864
 6635TIP3    H144100   5.882   2.132  10.224 -2.2447  1.2229 -1.0802
 6635TIP3    H244101   5.958   2.084  10.101  0.6694  0.3348  0.9663
 6636TIP3   OH244102   2.906   0.769   9.301  0.3872  0.1786  0.6262
 6636TIP3    H144103   2.813   0.752   9.292 -0.0278  1.2875  2.2156
 6636TIP3    H244104   2.943   0.687   9.333  0.1895 -0.6181 -1.1114
 6637TIP3   OH244105   5.657   5.792  11.286  0.5051  0.4417  0.4212
 6637TIP3    H144106   5.658   5.699  11.305  2.0851  0.6608  1.6689
 6637TIP3    H244107   5.709   5.801  11.205  0.6814  0.2770  0.5159
 6638TIP3   OH244108   3.333   0.174  11.078  0.4571  0.0122  0.0868
 6638TIP3    H144109   3.342   0.181  10.983  0.8814 -0.4258  0.0873
 6638TIP3    H244110   3.416   0.136  11.107 -0.1282 -1.0107  0.4978
 6639TIP3   OH244111   2.259   4.851  11.189  0.2757  0.1642 -0.2788
 6639TIP3    H144112   2.284   4.940  11.214 -2.3451  0.6763  0.8686
 6639TIP3    H244113   2.273   4.799  11.268  1.2137 -0.3345 -0.7596
 6640TIP3   OH244114   1.763   6.240  11.936  0.0347 -0.4326 -0.1323
 6640TIP3    H144115   1.844   6.202  11.900  0.9036  0.0549  1.2370
 6640TIP3    H244116   1.699   6.169  11.931  1.1217 -1.5063  0.6901
 6641TIP3   OH244117   0.898   0.588  11.125 -0.2291  0.7104  0.2558
 6641TIP3    H144118   0.980   0.635  11.111 -0.1903  0.7194  0.5104
 6641TIP3    H244119   0.924   0.498  11.145 -0.3372  0.2372 -1.5060
 6642TIP3   OH244120   5.551   6.184   9.804  0.1822  0.3938 -0.4565
 6642TIP3    H144121   5.462   6.151   9.794  0.1244  0.7717 -1.3293
 6642TIP3    H244122   5.590   6.130   9.873 -0.1624 -0.9715 -1.2838
 6643TIP3   OH244123   2.379   2.379  11.728 -0.3933 -0.0217  0.2974
 6643TIP3    H144124   2.417   2.350  11.645 -0.1560  1.1291 -0.0013
 6643TIP3    H244125   2.429   2.332  11.795  0.9650  0.7752 -0.1236
 6644TIP3   OH244126   6.420   0.523   8.659  0.1769 -0.0178 -0.1675
 6644TIP3    H144127   6.339   0.473   8.655 -0.3696  0.9407 -3.1644
 6644TIP3    H244128   6.479   0.480   8.598  1.0698  0.7307  0.1321
 6645TIP3   OH244129   1.173   3.655   9.935 -0.0816 -0.2986 -0.1730
 6645TIP3    H144130   1.142   3.742   9.959 -3.7925 -1.2147 -1.0606
 6645TIP3    H244131   1.266   3.656   9.958  0.0118  3.7795  0.0414
 6646TIP3   OH244132   2.866   0.507  11.687 -0.1239  0.2267 -0.4832
 6646TIP3    H144133   2.925   0.462  11.626  0.0632 -0.9071  0.5037
 6646TIP3    H244134   2.920   0.577  11.725  0.5702 -0.7024  0.2937
 6647TIP3   OH244135   4.777   4.447  10.139  0.4208 -0.0372  0.2990
 6647TIP3    H144136   4.776   4.351  10.146 -1.2454  0.0563  2.0113
 6647TIP3    H244137   4.806   4.477  10.224  0.9665  1.0028 -0.2377
 6648TIP3   OH244138   0.366   1.681   8.736 -0.2940  0.8855 -0.1628
 6648TIP3    H144139   0.324   1.595   8.750 -1.4653  1.4048 -0.3585
 6648TIP3    H244140   0.417   1.695   8.816 -0.4368  0.1968  0.0609
 6649TIP3   OH244141   2.989   5.762  10.361 -0.1562  0.9472  0.0106
 6649TIP3    H144142   2.913   5.722  10.402  0.2852  0.2665  0.1854
 6649TIP3    H244143   2.957   5.795  10.277 -0.9695  1.9838  0.7008
 6650TIP3   OH244144   1.766   2.947  12.337  0.1786  0.7777 -0.2076
 6650TIP3    H144145   1.785   3.037  12.309  1.1328  1.3574  2.0616
 6650TIP3    H244146   1.685   2.955  12.388  0.5247  0.4673  0.4070
 6651TIP3   OH244147   6.089   3.750   8.214 -0.7998 -0.8924  0.6463
 6651TIP3    H144148   6.184   3.758   8.212 -0.7314 -1.2463 -2.2403
 6651TIP3    H244149   6.062   3.799   8.292  1.5840  0.9133  0.4442
 6652TIP3   OH244150   3.050   1.902  10.532 -0.1367 -0.2023 -0.5839
 6652TIP3    H144151   3.122   1.846  10.560  0.2936  1.4927  2.0652
 6652TIP3    H244152   3.017   1.861  10.452  1.6849 -2.8069 -0.1208
 6653TIP3   OH244153   5.917   5.060  11.699 -0.1522  0.7064  0.3044
 6653TIP3    H144154   5.949   5.116  11.770  0.2918  1.6650 -0.6124
 6653TIP3    H244155   5.832   5.098  11.675 -1.0403 -0.5455  1.3129
 6654TIP3   OH244156   4.985   3.164   9.578  0.4564  0.0326 -0.5198
 6654TIP3    H144157   4.942   3.114   9.648 -1.3579  0.2460 -1.4158
 6654TIP3    H244158   5.055   3.108   9.548 -1.4564 -2.0089 -1.4244
 6655TIP3   OH244159   3.638   1.795  12.364  0.1328  0.5548 -0.0759
 6655TIP3    H144160   3.652   1.833  12.451  0.2943  1.1132 -0.3397
 6655TIP3    H244161   3.553   1.829  12.336  0.0352  0.2961 -0.0939
 6656TIP3   OH244162   0.655   1.040  11.184  0.1578 -0.3028  0.0541
 6656TIP3    H144163   0.584   1.081  11.232 -1.2101 -1.1347 -1.1797
 6656TIP3    H244164   0.648   0.947  11.205 -1.7620 -1.0298 -3.1611
 6657TIP3   OH244165   6.252   5.977  11.163 -0.3755  0.5871 -0.3793
 6657TIP3    H144166   6.275   5.887  11.141  0.4654  0.5588  0.5784
 6657TIP3    H244167   6.216   5.972  11.251  0.4888  1.2908  0.0306
 6658TIP3   OH244168   4.095   4.224  11.051 -0.2761 -0.4955  0.4401
 6658TIP3    H144169   4.173   4.214  10.997 -0.9560 -0.7455 -0.5260
 6658TIP3    H244170   4.092   4.318  11.072  0.8634 -0.6571  1.4155
 6659TIP3   OH244171   3.686   6.100   9.967  0.2246  0.1218  0.1940
 6659TIP3    H144172   3.729   6.077   9.885 -0.8231  0.8807 -0.5899
 6659TIP3    H244173   3.620   6.165   9.943 -0.3070  0.1435  1.5941
 6660TIP3   OH244174   1.263   5.043  11.003  0.2056  0.5085 -0.3776
 6660TIP3    H144175   1.345   5.045  11.052  0.4020  0.7470 -0.7137
 6660TIP3    H244176   1.196   5.060  11.069  0.3182 -0.7682  0.1108
 6661TIP3   OH244177   5.088   1.676  10.170  0.2135  0.1084  0.0841
 6661TIP3    H144178   5.025   1.616  10.210  0.9036 -0.9349 -0.3387
 6661TIP3    H244179   5.146   1.700  10.243  0.6766 -0.7369  0.0026
 6662TIP3   OH244180   5.426   3.801  10.141  0.0858  0.2433  0.1026
 6662TIP3    H144181   5.394   3.858  10.211 -0.7563 -0.9678  0.7327
 6662TIP3    H244182   5.520   3.817  10.137 -0.1088  1.5360  0.3790
 6663TIP3   OH244183   1.495   3.458  11.168 -0.0092  0.1228 -0.1797
 6663TIP3    H144184   1.545   3.393  11.119 -0.7001 -1.5927  1.2797
 6663TIP3    H244185   1.404   3.444  11.140 -0.1984  0.2483  0.3658
 6664TIP3   OH244186   1.357   4.817  11.168 -0.5634  0.1278  0.3379
 6664TIP3    H144187   1.441   4.864  11.166 -0.6116  0.2290  0.8060
 6664TIP3    H244188   1.320   4.837  11.253  0.2052 -2.1363  1.2651
 6665TIP3   OH244189   5.919   6.634  10.549  0.1081  0.1475 -0.1205
 6665TIP3    H144190   5.854   6.627  10.620  0.1057  3.9121  0.4584
 6665TIP3    H244191   5.870   6.670  10.476  1.2738  2.1159  0.0058
 6666TIP3   OH244192   1.193   0.617   8.319  0.0767  0.0792 -0.3906
 6666TIP3    H144193   1.226   0.619   8.229 -1.5262  0.1409 -0.9975
 6666TIP3    H244194   1.221   0.700   8.357  0.1289  0.3760 -1.0666
 6667TIP3   OH244195   6.376   3.700  11.405  0.0486 -0.0434 -0.1606
 6667TIP3    H144196   6.305   3.636  11.416  0.2165 -0.2452 -0.2452
 6667TIP3    H244197   6.388   3.705  11.310  1.4842 -1.4882 -0.0909
 6668TIP3   OH244198   2.612   6.621  11.004  0.1933  0.2467 -0.2328
 6668TIP3    H144199   2.554   6.600  10.931  0.1592  1.0590 -0.4435
 6668TIP3    H244200   2.591   6.711  11.027 -0.1362 -0.1507  1.1106
 6669TIP3   OH244201   4.107   6.083  10.336 -0.3948 -1.1705  0.1045
 6669TIP3    H144202   4.087   5.989  10.338 -2.5713 -0.7774  0.0335
 6669TIP3    H244203   4.073   6.113  10.252 -0.8895 -0.1099  0.6615
 6670TIP3   OH244204   0.622   5.870   9.888 -0.1727  0.6347 -0.1572
 6670TIP3    H144205   0.666   5.785   9.883  0.2971  0.6076  2.6235
 6670TIP3    H244206   0.690   5.934   9.869 -0.0974  0.4442 -0.5299
 6671TIP3   OH244207   1.184   3.085   8.771  0.1901 -0.0726  0.5762
 6671TIP3    H144208   1.235   3.157   8.734 -0.8956  0.0850 -0.7264
 6671TIP3    H244209   1.124   3.127   8.833  0.2883  0.0100  0.6156
 6672TIP3   OH244210   4.766   5.304   9.514  0.0883 -0.9705  1.0596
 6672TIP3    H144211   4.754   5.372   9.447  0.9571 -1.8205 -0.0122
 6672TIP3    H244212   4.689   5.249   9.507 -0.6585 -0.0838  1.9867
 6673TIP3   OH244213   5.625   5.462   9.908 -0.6447  0.8387 -0.5253
 6673TIP3    H144214   5.592   5.374   9.927 -1.0826  1.2839  0.9399
 6673TIP3    H244215   5.719   5.449   9.894 -0.6310  0.1820  0.0835
 6674TIP3   OH244216   5.067   0.865  10.866 -0.4281 -0.4411  0.1789
 6674TIP3    H144217   5.084   0.861  10.771  1.5482 -2.8561  0.5216
 6674TIP3    H244218   5.029   0.951  10.880 -1.1574 -0.1420 -2.8641
 6675TIP3   OH244219   2.062   1.912  10.208  0.6695 -0.5301  0.1293
 6675TIP3    H144220   2.102   1.870  10.132 -1.4204 -0.0222 -1.3423
 6675TIP3    H244221   2.026   1.994  10.174  0.6694  0.2717  1.9400
 6676TIP3   OH244222   5.030   5.966  10.546 -0.0658 -0.5383  0.0002
 6676TIP3    H144223   5.029   6.046  10.494  2.1624 -0.6463 -0.2999
 6676TIP3    H244224   4.954   5.917  10.516  0.0872  0.2483 -1.8163
 6677TIP3   OH244225   0.540   2.634   8.629 -0.2645 -0.0506  0.5369
 6677TIP3    H144226   0.566   2.713   8.583 -0.5313 -1.0197 -1.3745
 6677TIP3    H244227   0.621   2.584   8.639 -0.6215 -1.2491 -1.8073
 6678TIP3   OH244228   0.910   1.600  10.358 -0.5530 -0.6569  0.0073
 6678TIP3    H144229   0.841   1.602  10.291 -1.1570 -0.0700  0.6280
 6678TIP3    H244230   0.890   1.522  10.410 -2.6561  1.1384  2.0957
 6679TIP3   OH244231   4.799   3.718  10.700 -0.1303 -0.4589 -0.1975
 6679TIP3    H144232   4.742   3.642  10.713 -0.8365  0.0508 -0.2570
 6679TIP3    H244233   4.739   3.793  10.702  0.5208  0.0717 -0.4473
 6680TIP3   OH244234   3.250   4.017   9.313  0.2770  0.2405 -0.3676
 6680TIP3    H144235   3.189   4.071   9.363  2.0056  0.5258  1.5711
 6680TIP3    H244236   3.322   4.076   9.290  0.9947 -0.6256 -0.4379
 6681TIP3   OH244237   2.337   4.894  10.679  1.0147  0.3475  0.2029
 6681TIP3    H144238   2.370   4.976  10.714 -0.0485  0.7821  0.2340
 6681TIP3    H244239   2.242   4.907  10.671  1.0545 -0.1401 -1.7049
 6682TIP3   OH244240   0.415   3.939   9.570  0.1349 -0.1194 -0.4342
 6682TIP3    H144241   0.325   3.915   9.594  0.1125  0.8403  0.5054
 6682TIP3    H244242   0.408   3.970   9.479 -0.2426 -1.3138 -0.8292
 6683TIP3   OH244243   1.088   2.191   9.070  0.4075 -0.5114 -0.3151
 6683TIP3    H144244   1.054   2.272   9.107  0.4241 -0.4371 -0.4606
 6683TIP3    H244245   1.081   2.203   8.975  0.5398 -0.6242 -0.3394
 6684TIP3   OH244246   2.706   4.251   8.504  0.0898  0.2387  0.0849
 6684TIP3    H144247   2.646   4.235   8.432  1.8541  1.6176 -1.8360
 6684TIP3    H244248   2.731   4.343   8.494 -0.0666  0.6771  2.8773
 6685TIP3   OH244249   2.227   3.025   9.970  0.1476 -0.4368  0.0113
 6685TIP3    H144250   2.317   3.008   9.995  0.2835 -0.0976 -0.2364
 6685TIP3    H244251   2.219   2.989   9.881  0.0678 -0.3791 -0.0054
 6686TIP3   OH244252   3.581   6.266   9.745 -0.5498  0.0080  0.1164
 6686TIP3    H144253   3.641   6.290   9.674 -0.6414 -1.5558 -0.5501
 6686TIP3    H244254   3.573   6.345   9.799 -0.4581  1.2462 -1.6033
 6687TIP3   OH244255   2.474   3.504   9.400 -0.1877  0.1128  0.5117
 6687TIP3    H144256   2.553   3.557   9.403 -0.2902  0.2619  0.5836
 6687TIP3    H244257   2.422   3.533   9.475 -1.2021  1.4074 -0.6475
 6688TIP3   OH244258   2.561   2.182   9.216 -0.1872 -0.5380  0.0820
 6688TIP3    H144259   2.564   2.215   9.126 -1.3465  0.5917  0.4369
 6688TIP3    H244260   2.478   2.134   9.221 -0.0569 -0.7214  0.5093
 6689TIP3   OH244261   2.221   1.597   8.418  0.3517 -0.1784  0.2908
 6689TIP3    H144262   2.127   1.582   8.408  0.1096  0.9959  0.6412
 6689TIP3    H244263   2.227   1.686   8.454  1.5016 -0.9757  2.2112
 6690TIP3   OH244264   3.711   2.930   9.196 -0.1065  0.6652  0.4480
 6690TIP3    H144265   3.619   2.951   9.179 -0.1203 -0.4049 -1.0529
 6690TIP3    H244266   3.715   2.915   9.290 -1.8314 -0.7662  0.3577
 6691TIP3   OH244267   0.858   3.290   8.382  0.2151  0.4472 -0.2830
 6691TIP3    H144268   0.797   3.261   8.450  0.5035  1.0076  0.2221
 6691TIP3    H244269   0.860   3.385   8.390  2.9632  0.3777  1.3627
 6692TIP3   OH244270   1.653   4.640   8.433 -0.7536  0.1222  0.2401
 6692TIP3    H144271   1.673   4.719   8.384 -0.6304  0.8238  1.3850
 6692TIP3    H244272   1.567   4.656   8.472 -0.6722 -0.2429  0.5849
 6693TIP3   OH244273   4.420   0.440  11.704  0.2127 -0.4605 -0.5598
 6693TIP3    H144274   4.507   0.410  11.677  0.9937  0.2727  0.9727
 6693TIP3    H244275   4.370   0.360  11.717  0.4722 -0.8799 -1.9566
 6694TIP3   OH244276   4.141   4.885  10.551  0.1485  0.2044  0.4907
 6694TIP3    H144277   4.223   4.859  10.511 -0.8328 -1.5902 -0.5210
 6694TIP3    H244278   4.103   4.950  10.492  0.3421  0.2147  0.3796
 6695TIP3   OH244279   5.516   2.827  10.823  0.4693 -0.3291  0.6002
 6695TIP3    H144280   5.490   2.744  10.861  2.0366 -0.8795  0.5376
 6695TIP3    H244281   5.471   2.893  10.876 -0.9695 -1.1922  0.5040
 6696TIP3   OH244282   2.275   1.106   8.497  0.4452 -0.0981  0.3442
 6696TIP3    H144283   2.273   1.200   8.484  1.8016 -0.0585  0.1974
 6696TIP3    H244284   2.204   1.088   8.559 -0.3451  0.8927 -0.2529
 6697TIP3   OH244285   1.082   2.939  10.427  0.4818  0.5472 -0.2168
 6697TIP3    H144286   1.070   2.947  10.522  2.4020  1.1584  0.0116
 6697TIP3    H244287   1.143   2.865  10.418  0.5873  0.7237 -0.9432
 6698TIP3   OH244288   1.894   5.059  11.609  0.1937  0.0975 -0.3461
 6698TIP3    H144289   1.827   5.088  11.671  0.6502 -0.9133  0.6567
 6698TIP3    H244290   1.944   4.993  11.657  0.6237 -0.6501 -1.7644
 6699TIP3   OH244291   0.152   0.617  11.724  0.0731  0.4998 -0.4304
 6699TIP3    H144292   0.236   0.606  11.768  0.6258 -0.0345 -1.5720
 6699TIP3    H244293   0.172   0.667  11.645 -0.0866 -2.1288 -2.2851
 6700TIP3   OH244294   2.203   3.997  10.450  0.0137  0.2227 -0.0508
 6700TIP3    H144295   2.110   3.978  10.442 -0.5737  2.5480  0.4379
 6700TIP3    H244296   2.227   4.036  10.366  0.0103  1.5059  0.5190
 6701TIP3   OH244297   6.047   3.613   9.987  0.5421  0.1432  0.4831
 6701TIP3    H144298   6.013   3.623   9.898  0.9643 -2.7408 -0.0838
 6701TIP3    H244299   6.136   3.579   9.976  0.2425 -1.2723  1.9645
 6702TIP3   OH244300   3.167   2.252  10.434 -0.3427  0.0155 -0.2507
 6702TIP3    H144301   3.203   2.167  10.460 -1.3635 -0.6054 -0.8214
 6702TIP3    H244302   3.243   2.302  10.405 -0.0055 -1.6085 -2.4155
 6703TIP3   OH244303   0.276   1.322  10.091  0.2209 -0.8984 -0.2290
 6703TIP3    H144304   0.317   1.400  10.055 -1.2417 -1.2116 -2.8184
 6703TIP3    H244305   0.320   1.307  10.174  0.9990  2.2679  0.0210
 6704TIP3   OH244306   4.149   2.286  11.674 -1.3001  0.2531  0.3710
 6704TIP3    H144307   4.233   2.243  11.691 -0.6646  2.1468  2.6658
 6704TIP3    H244308   4.151   2.306  11.580  0.2927 -0.7480  0.1508
 6705TIP3   OH244309   2.960   4.739  11.796  0.1345  0.1161 -0.4169
 6705TIP3    H144310   2.889   4.721  11.858  1.3198 -0.6767  0.7796
 6705TIP3    H244311   2.918   4.739  11.710 -1.2977 -0.3499  0.2553
 6706TIP3   OH244312   1.873   6.117  10.125 -0.5101 -0.0825 -0.1267
 6706TIP3    H144313   1.863   6.135  10.031  0.6840  0.8519 -0.0990
 6706TIP3    H244314   1.883   6.022  10.130  2.0901  0.0593 -1.2579
 6707TIP3   OH244315   0.912   0.484   8.300 -0.1619 -0.2981  0.6988
 6707TIP3    H144316   1.004   0.498   8.321 -0.1017  0.5902 -0.1042
 6707TIP3    H244317   0.907   0.394   8.267  0.4634 -0.2478  0.4716
 6708TIP3   OH244318   4.340   6.395   9.528 -0.5456  0.7349 -0.6131
 6708TIP3    H144319   4.412   6.437   9.482 -0.2505  0.0592 -0.7770
 6708TIP3    H244320   4.356   6.301   9.518 -0.5844  0.5693  0.6957
 6709TIP3   OH244321   1.454   3.846  11.324  0.1087  0.2911  0.1088
 6709TIP3    H144322   1.407   3.797  11.257  0.3507  1.6655 -1.1224
 6709TIP3    H244323   1.425   3.937  11.313 -0.4164  0.4527  2.3917
 6710TIP3   OH244324   3.535   2.514  11.825  0.4997 -0.6900  0.2722
 6710TIP3    H144325   3.515   2.587  11.884  0.4411 -0.2247 -0.3116
 6710TIP3    H244326   3.494   2.438  11.866  0.2807 -0.3320  0.7217
 6711TIP3   OH244327   1.691   1.880   8.841 -0.3935 -0.4146  0.4604
 6711TIP3    H144328   1.660   1.960   8.797  0.4520 -0.2853  0.0901
 6711TIP3    H244329   1.686   1.812   8.774 -1.5278 -0.7898  0.8962
 6712TIP3   OH244330   6.237   0.493   8.396 -0.4420 -0.3352 -0.0185
 6712TIP3    H144331   6.264   0.432   8.465  1.3332  0.1996 -0.1728
 6712TIP3    H244332   6.320   0.526   8.360 -1.2149  3.2734  1.0433
 6713TIP3   OH244333   4.270   2.458  11.066  0.5400 -0.1786 -0.0559
 6713TIP3    H144334   4.229   2.539  11.036 -1.0805 -1.2604 -0.9022
 6713TIP3    H244335   4.339   2.441  11.002 -2.0762 -1.8045 -2.6869
 6714TIP3   OH244336   6.148   3.510   8.340 -0.7236 -0.0464  0.1214
 6714TIP3    H144337   6.125   3.561   8.262  1.3952  0.9936  0.1189
 6714TIP3    H244338   6.230   3.467   8.317 -0.7514 -0.7825  1.3391
 6715TIP3   OH244339   1.100   4.082  11.457  0.3552  0.8867  0.6651
 6715TIP3    H144340   1.083   4.151  11.521  1.8252  0.8826  1.0854
 6715TIP3    H244341   1.043   4.010  11.484 -0.5284  1.5957  0.7515
 6716TIP3   OH244342   2.660   2.312  11.278 -0.3446 -0.3528 -0.2095
 6716TIP3    H144343   2.616   2.377  11.333  1.5600  0.6308  0.2374
 6716TIP3    H244344   2.679   2.359  11.197 -2.6382 -1.6322 -1.5727
 6717TIP3   OH244345   1.826   2.495  11.484 -0.0164 -0.6358 -0.0718
 6717TIP3    H144346   1.757   2.551  11.450 -0.4091 -0.6360  0.7127
 6717TIP3    H244347   1.883   2.553  11.534  0.7239 -0.5828 -0.9525
 6718TIP3   OH244348   4.431   3.664   8.812 -0.0125 -0.0914 -0.3876
 6718TIP3    H144349   4.504   3.625   8.860 -0.4915  0.5409  0.9064
 6718TIP3    H244350   4.353   3.627   8.853 -0.4356  0.4220 -0.7104
 6719TIP3   OH244351   4.221   4.023  10.751  0.1225 -0.1708  0.1342
 6719TIP3    H144352   4.140   4.049  10.708 -0.2417  0.2970  1.0778
 6719TIP3    H244353   4.230   3.930  10.732 -1.5582 -0.6539  1.4388
 6720TIP3   OH244354   5.553   4.141  10.409 -0.3123 -0.1377 -0.3008
 6720TIP3    H144355   5.506   4.105  10.334  1.4539 -0.9325 -1.0932
 6720TIP3    H244356   5.580   4.064  10.460 -0.3412  0.3189  0.4142
 6721TIP3   OH244357   4.615   0.337  10.074  0.3618  0.0218  0.2070
 6721TIP3    H144358   4.690   0.279  10.059 -0.0731 -0.2658 -1.0000
 6721TIP3    H244359   4.557   0.288  10.132 -0.2257 -1.0046 -1.1744
 6722TIP3   OH244360   1.544   2.237   9.823  0.0455 -0.2490 -0.0777
 6722TIP3    H144361   1.623   2.184   9.837  0.2730  0.7467  3.1840
 6722TIP3    H244362   1.473   2.184   9.860  0.0726  1.0559  1.9716
 6723TIP3   OH244363   6.120   4.510  11.023 -0.4293  0.2406 -0.3033
 6723TIP3    H144364   6.189   4.566  11.055  1.6317 -2.1721 -0.2295
 6723TIP3    H244365   6.078   4.561  10.953  3.3801  0.7967 -2.4575
 6724TIP3   OH244366   5.099   5.582  10.425 -0.2921 -0.5486  0.8498
 6724TIP3    H144367   5.140   5.655  10.472 -1.8971 -0.4877  2.2754
 6724TIP3    H244368   5.125   5.505  10.475  1.6500 -1.0572 -0.8297
 6725TIP3   OH244369   2.867   5.615  12.038  0.1682 -0.4598 -0.5862
 6725TIP3    H144370   2.849   5.705  12.066 -0.9963 -0.8876  0.1500
 6725TIP3    H244371   2.812   5.602  11.961 -1.6065 -1.2718  0.7359
 6726TIP3   OH244372   5.464   2.564  10.914  0.0125 -0.1257  0.5484
 6726TIP3    H144373   5.379   2.521  10.906 -0.2505  0.6260 -1.1426
 6726TIP3    H244374   5.515   2.506  10.970 -1.3305 -1.0344  0.8662
 6727TIP3   OH244375   2.512   2.798  11.213  0.2080  0.1049  0.2846
 6727TIP3    H144376   2.453   2.778  11.286  0.9371 -0.6233  0.6958
 6727TIP3    H244377   2.580   2.731  11.219  0.9789  0.8179 -0.2881
 6728TIP3   OH244378   0.038   0.462   8.433  0.2630  0.1855 -0.1870
 6728TIP3    H144379   0.074   0.493   8.516 -2.1390  0.2501  0.9153
 6728TIP3    H244380   0.114   0.434   8.382  1.7857 -0.2182  2.1868
 6729TIP3   OH244381   1.781   0.898  10.044  0.2002 -0.0520  0.4809
 6729TIP3    H144382   1.876   0.910  10.051  0.0313  1.6369  0.2013
 6729TIP3    H244383   1.757   0.947   9.965 -0.8563 -0.8549  0.2819
 6730TIP3   OH244384   3.825   0.215   8.542 -0.0647  0.0579  0.0573
 6730TIP3    H144385   3.853   0.223   8.451 -0.8014  0.1010 -0.1731
 6730TIP3    H244386   3.904   0.233   8.593  0.1757  0.8106 -0.5594
 6731TIP3   OH244387   1.684   3.944   8.595 -0.5504 -0.3990 -0.1536
 6731TIP3    H144388   1.654   3.941   8.686  0.8345  0.3838  0.3620
 6731TIP3    H244389   1.623   3.888   8.547 -1.3448 -0.7642  1.2420
 6732TIP3   OH244390   5.869   0.179   8.766  0.4117  0.4830  0.6769
 6732TIP3    H144391   5.829   0.187   8.852 -2.4095  3.7534 -0.6940
 6732TIP3    H244392   5.812   0.119   8.718 -0.1346  1.4345  0.1030
 6733TIP3   OH244393   5.608   6.525   9.607 -0.0584  0.3318 -0.4142
 6733TIP3    H144394   5.531   6.485   9.567  0.7552 -0.6021 -1.0968
 6733TIP3    H244395   5.599   6.508   9.701 -0.3684 -0.3394 -0.5631
 6734TIP3   OH244396   1.883   1.715  10.694 -0.4540 -0.3398 -0.0503
 6734TIP3    H144397   1.975   1.690  10.686 -0.0852  0.2199  1.8946
 6734TIP3    H244398   1.841   1.678  10.617  1.2620 -1.2519 -0.5924
 6735TIP3   OH244399   1.290   6.181   9.646 -0.2916 -0.0714 -0.2363
 6735TIP3    H144400   1.241   6.192   9.564  1.2096 -2.4187 -1.5580
 6735TIP3    H244401   1.379   6.161   9.618  0.3759 -0.4827  1.9943
 6736TIP3   OH244402   0.954   0.647  10.127 -0.1153  0.1671  0.0682
 6736TIP3    H144403   0.864   0.677  10.110  0.1589  0.4151 -0.9690
 6736TIP3    H244404   0.960   0.645  10.223 -1.1424  0.4088  0.1502
 6737TIP3   OH244405   4.607   5.363   8.796  0.2191 -0.3602 -0.1115
 6737TIP3    H144406   4.648   5.313   8.725 -0.2555 -1.0838  0.1162
 6737TIP3    H244407   4.582   5.446   8.755  0.2237 -0.6513 -0.7219
 6738TIP3   OH244408   0.847   2.419  11.006  0.5272 -0.4599 -0.5265
 6738TIP3    H144409   0.885   2.354  11.064  1.9769  0.7634 -0.0189
 6738TIP3    H244410   0.922   2.454  10.958 -0.3363  0.1967 -1.4361
 6739TIP3   OH244411   1.197   2.161   8.783 -0.4904  0.1812 -0.1941
 6739TIP3    H144412   1.292   2.152   8.792 -0.7525 -3.7147  0.4772
 6739TIP3    H244413   1.183   2.173   8.689  0.6465 -0.6388 -0.4968
 6740TIP3   OH244414   2.947   0.493  10.084  0.0870 -0.0095  0.7289
 6740TIP3    H144415   3.012   0.424  10.099  1.1432  0.9039  0.4745
 6740TIP3    H244416   2.904   0.469  10.002  1.2296  0.1986  0.0439
 6741TIP3   OH244417   3.194   5.145  11.140 -0.4525  1.2781  0.3727
 6741TIP3    H144418   3.123   5.100  11.186  0.2521  1.0507  1.2701
 6741TIP3    H244419   3.177   5.128  11.048 -0.4724 -0.4741  0.6542
 6742TIP3   OH244420   6.526   4.599  11.018 -0.1230 -0.1954 -0.4748
 6742TIP3    H144421   6.534   4.615  11.112 -1.2541  2.0558 -0.6983
 6742TIP3    H244422   6.552   4.508  11.007 -1.2640 -0.9453  2.2007
 6743TIP3   OH244423   1.982   4.884   9.426  0.0881  0.5462 -0.3082
 6743TIP3    H144424   2.009   4.924   9.343  1.4004  1.2620  0.4276
 6743TIP3    H244425   2.050   4.911   9.489  0.1550 -1.5171  0.5940
 6744TIP3   OH244426   1.329   0.673   8.916  0.2197 -0.3068 -0.2737
 6744TIP3    H144427   1.314   0.712   8.830  3.1055 -0.6902 -1.0666
 6744TIP3    H244428   1.300   0.740   8.978 -0.2043  0.7255 -1.5455
 6745TIP3   OH244429   5.676   5.435  11.846 -0.4524 -0.5573  0.0115
 6745TIP3    H144430   5.655   5.357  11.898  0.8064 -0.5704  0.5200
 6745TIP3    H244431   5.729   5.402  11.774 -2.1227 -0.5240 -1.2987
 6746TIP3   OH244432   5.785   5.483   9.324 -0.2372 -0.4133 -0.1552
 6746TIP3    H144433   5.727   5.521   9.390  1.6638  0.7688  0.9032
 6746TIP3    H244434   5.809   5.397   9.360  0.7261  0.1907  0.7187
 6747TIP3   OH244435   0.360   3.724  10.970 -0.4314 -0.5590 -0.2452
 6747TIP3    H144436   0.363   3.657  11.037  0.5776 -1.2150 -0.9227
 6747TIP3    H244437   0.319   3.681  10.894 -2.7507  0.5328  0.2993
 6748TIP3   OH244438   1.995   1.773  11.196 -0.1807 -0.3159  0.1244
 6748TIP3    H144439   1.941   1.726  11.132 -1.6080  0.5196  0.6535
 6748TIP3    H244440   2.052   1.706  11.234  0.5611 -0.8531 -1.8658
 6749TIP3   OH244441   4.666   1.178   9.535  0.2176  0.3149  0.0534
 6749TIP3    H144442   4.587   1.140   9.573  0.4007 -1.2950 -1.0448
 6749TIP3    H244443   4.650   1.176   9.440  1.7692 -0.5774 -0.2211
 6750TIP3   OH244444   0.443   0.313  10.771  0.3774  0.1734 -0.1681
 6750TIP3    H144445   0.446   0.368  10.849  0.9703  0.1595 -0.1772
 6750TIP3    H244446   0.535   0.297  10.750  0.2535  0.9570 -1.4118
 6751TIP3   OH244447   3.615   6.387   8.785  0.1337 -0.2583 -0.4757
 6751TIP3    H144448   3.675   6.326   8.743  1.6295  1.7246 -1.3517
 6751TIP3    H244449   3.603   6.351   8.873  4.1571  0.2000  0.4540
 6752TIP3   OH244450   6.409   3.712  10.177 -0.2101 -0.4103 -0.3554
 6752TIP3    H144451   6.347   3.689  10.107 -0.8061  0.1264 -0.0133
 6752TIP3    H244452   6.395   3.644  10.243 -1.9821  0.8616  0.6618
 6753TIP3   OH244453   4.947   2.637  11.335  0.7457 -0.2108  0.3583
 6753TIP3    H144454   4.936   2.545  11.359 -0.6072  0.3529  2.0837
 6753TIP3    H244455   4.956   2.635  11.240 -1.9804 -1.9629  0.0113
 6754TIP3   OH244456   1.927   6.340   8.580 -0.2773  0.1470  0.6702
 6754TIP3    H144457   1.924   6.260   8.633  1.5508 -0.6498 -0.3311
 6754TIP3    H244458   1.872   6.321   8.505  1.4084 -0.8676 -0.3773
 6755TIP3   OH244459   5.594   6.562   9.901 -0.0038 -0.4455 -0.1475
 6755TIP3    H144460   5.573   6.521   9.986 -0.1786  2.1822  1.1670
 6755TIP3    H244461   5.541   6.641   9.899  0.7284  0.0462 -2.3162
 6756TIP3   OH244462   2.339   3.589   9.608  0.1407 -0.5355  0.1559
 6756TIP3    H144463   2.383   3.661   9.654  1.4842 -0.3331 -1.3624
 6756TIP3    H244464   2.248   3.617   9.601  0.5147  0.7136  0.1606
 6757TIP3   OH244465   1.115   4.450  11.138 -0.0954 -0.2020 -0.4162
 6757TIP3    H144466   1.092   4.474  11.048  1.3180 -3.4704 -1.8153
 6757TIP3    H244467   1.074   4.365  11.151 -0.3440  0.2463  2.1188
 6758TIP3   OH244468   3.381   1.417  10.795  0.3198 -0.1006 -0.4460
 6758TIP3    H144469   3.324   1.386  10.725 -0.9462  1.2356 -0.0518
 6758TIP3    H244470   3.345   1.502  10.819  1.1384 -0.2291  1.3632
 6759TIP3   OH244471   2.865   5.661   9.856 -0.2872  0.0522  0.1130
 6759TIP3    H144472   2.838   5.751   9.842  0.3566  0.3431  0.6878
 6759TIP3    H244473   2.920   5.664   9.934 -0.4336 -0.8718  0.2705
 6760TIP3   OH244474   6.068   2.521  10.843  0.2967  0.6250 -0.5113
 6760TIP3    H144475   6.125   2.470  10.787  0.3282 -0.9328  0.8668
 6760TIP3    H244476   6.088   2.492  10.932 -1.7499  0.9274  0.1086
 6761TIP3   OH244477   3.071   2.288  11.098  0.1088  0.2761 -0.0418
 6761TIP3    H144478   3.116   2.228  11.157  2.3617  1.2919 -0.5961
 6761TIP3    H244479   3.097   2.259  11.011 -1.3198  0.1777 -0.4473
 6762TIP3   OH244480   0.983   0.743   8.694  0.0705  0.4081 -0.6558
 6762TIP3    H144481   0.948   0.827   8.724  0.1666 -0.0029  0.6358
 6762TIP3    H244482   0.907   0.696   8.660 -0.0338  0.8865 -1.1041
 6763TIP3   OH244483   2.398   1.588  12.120 -0.4094 -0.3856 -0.0699
 6763TIP3    H144484   2.396   1.538  12.201 -0.7005 -1.8487 -0.9383
 6763TIP3    H244485   2.465   1.655  12.134  1.9213 -2.6325  0.2731
 6764TIP3   OH244486   3.902   4.059   9.678 -0.3148  0.4513  0.0166
 6764TIP3    H144487   3.930   3.968   9.665  0.4338  0.8117 -1.0532
 6764TIP3    H244488   3.960   4.093   9.745  0.3841  0.5558 -0.6306
 6765TIP3   OH244489   0.829   2.655   8.925  0.2406 -0.1759  0.4087
 6765TIP3    H144490   0.855   2.743   8.898  0.9973 -0.4623  0.2005
 6765TIP3    H244491   0.736   2.650   8.903  0.9375 -0.6741 -3.0449
 6766TIP3   OH244492   2.493   0.171   9.341  0.3352 -0.3523 -0.3041
 6766TIP3    H144493   2.521   0.261   9.354 -1.3336  0.0742  0.5660
 6766TIP3    H244494   2.549   0.139   9.270  1.5818  1.0529 -0.0062
 6767TIP3   OH244495   5.433   5.676   9.335 -0.0801  0.3877  0.3598
 6767TIP3    H144496   5.487   5.641   9.406  1.3623  1.0461 -0.3732
 6767TIP3    H244497   5.461   5.767   9.326  1.1097 -0.1517 -2.2312
 6768TIP3   OH244498   0.191   2.086   9.331  0.2828 -0.4940 -0.2474
 6768TIP3    H144499   0.204   2.110   9.239  4.2787  1.2974  0.5945
 6768TIP3    H244500   0.117   2.140   9.359  0.2929  0.4830 -1.9312
 6769TIP3   OH244501   1.965   6.670  10.984 -0.2018 -0.0545 -0.3606
 6769TIP3    H144502   1.982   6.584  11.023 -1.0501 -0.0543  0.0110
 6769TIP3    H244503   2.005   6.732  11.045  0.6419 -0.1796 -0.7586
 6770TIP3   OH244504   5.155   1.697  10.438 -0.3780  0.4092  0.9381
 6770TIP3    H144505   5.196   1.663  10.518  0.6023 -1.1410 -0.1721
 6770TIP3    H244506   5.140   1.790  10.457  2.2498  0.7083  1.9813
 6771TIP3   OH244507   2.944   6.366  11.169  0.4346  0.3244  0.1167
 6771TIP3    H144508   2.980   6.450  11.199  0.4883  0.5479 -0.5617
 6771TIP3    H244509   2.968   6.362  11.076  0.1818 -0.3102  0.0787
 6772TIP3   OH244510   2.861   1.578  11.265  0.2657  0.0339  0.7426
 6772TIP3    H144511   2.898   1.580  11.177  0.6255 -0.8921  0.8662
 6772TIP3    H244512   2.789   1.642  11.262 -0.0137 -0.3192 -0.3486
 6773TIP3   OH244513   5.644   4.954   9.119 -0.3615  0.2129  0.5818
 6773TIP3    H144514   5.613   4.904   9.195  1.7562 -3.8003 -0.9105
 6773TIP3    H244515   5.709   5.014   9.155  0.2135 -1.2224  2.0515
 6774TIP3   OH244516   1.627   3.172   8.213  0.0327  0.0942  0.2325
 6774TIP3    H144517   1.601   3.210   8.129  1.5362 -0.9578 -0.7719
 6774TIP3    H244518   1.708   3.218   8.236  0.4460 -0.6638  0.3304
 6775TIP3   OH244519   2.454   3.400  10.365  0.2358 -0.5932  0.5165
 6775TIP3    H144520   2.392   3.383  10.436 -0.5192 -1.0205 -0.2243
 6775TIP3    H244521   2.539   3.373  10.400 -0.5545 -3.8902  0.2080
 6776TIP3   OH244522   2.462   0.106   9.733 -0.5531  0.2913  0.2251
 6776TIP3    H144523   2.372   0.135   9.717 -0.6937 -0.9052 -1.4467
 6776TIP3    H244524   2.513   0.145   9.662  0.1986  0.6566  0.9451
 6777TIP3   OH244525   4.050   6.665  11.501 -0.4522 -0.0843 -0.6208
 6777TIP3    H144526   4.053   6.699  11.591  0.5652 -0.5497 -0.4617
 6777TIP3    H244527   4.140   6.674  11.470 -1.1295  1.8455 -2.2829
 6778TIP3   OH244528   5.943   1.457   9.666  0.0579 -0.6167 -0.0845
 6778TIP3    H144529   5.852   1.465   9.693 -0.7932 -0.1177 -2.7771
 6778TIP3    H244530   5.961   1.363   9.671 -0.7868 -0.7875 -0.0322
 6779TIP3   OH244531   6.272   3.403   9.221 -0.2975 -0.4037  0.1115
 6779TIP3    H144532   6.300   3.333   9.162  0.3579 -0.1150  0.0709
 6779TIP3    H244533   6.340   3.405   9.289 -1.4467 -1.2680  1.3249
 6780TIP3   OH244534   3.471   5.807   9.908  0.0407  0.1023  0.4425
 6780TIP3    H144535   3.558   5.771   9.926  0.4142  0.9853  0.4677
 6780TIP3    H244536   3.432   5.745   9.846  1.5493  0.8308 -1.3402
 6781TIP3   OH244537   6.255   5.719   8.703  0.5965 -0.0242  0.0990
 6781TIP3    H144538   6.312   5.644   8.686  0.6817 -0.0333  0.4085
 6781TIP3    H244539   6.174   5.680   8.735  0.5142  0.0003 -0.0812
 6782TIP3   OH244540   6.420   2.467   9.974 -0.7454  0.3778  0.7517
 6782TIP3    H144541   6.352   2.475  10.041 -2.6427 -2.0748 -0.7390
 6782TIP3    H244542   6.375   2.438   9.896  1.9721 -0.9884 -0.4521
 6783TIP3   OH244543   1.144   6.109  10.152  0.0963 -0.1618 -0.2395
 6783TIP3    H144544   1.101   6.036  10.197 -2.0352  0.9273 -0.3649
 6783TIP3    H244545   1.102   6.187  10.188  1.1366  0.9238 -1.3020
 6784TIP3   OH244546   2.600   0.338   8.973 -0.5261 -0.5421  0.3173
 6784TIP3    H144547   2.517   0.371   8.939 -1.2835 -2.9484 -0.3474
 6784TIP3    H244548   2.666   0.376   8.914 -1.2110  0.6349  0.2669
 6785TIP3   OH244549   0.428   4.356   9.407 -0.8770  0.0733 -0.7048
 6785TIP3    H144550   0.336   4.381   9.414 -0.9704 -0.5530  0.5087
 6785TIP3    H244551   0.454   4.331   9.496  0.1858 -0.7199 -1.2045
 6786TIP3   OH244552   0.303   0.484   8.897 -0.5948 -0.0049  0.4410
 6786TIP3    H144553   0.359   0.407   8.887  0.1564  0.6608 -0.6666
 6786TIP3    H244554   0.324   0.517   8.984 -0.3431 -0.5957  0.6132
 6787TIP3   OH244555   4.005   3.805  10.075  0.3436  0.6594 -0.0237
 6787TIP3    H144556   4.099   3.790  10.060  0.3879  0.0897  0.7736
 6787TIP3    H244557   3.961   3.743  10.017  0.5101 -1.3606  1.8937
 6788TIP3   OH244558   0.119   2.059  12.173  0.1467  0.4715  0.3064
 6788TIP3    H144559   0.129   2.003  12.251  0.5956  0.8360  0.5151
 6788TIP3    H244560   0.135   2.000  12.099  0.7992  0.3518  0.5304
 6789TIP3   OH244561   2.727   3.927   9.104  0.5348 -0.4204  0.5006
 6789TIP3    H144562   2.730   4.021   9.122  0.8837 -0.3851  0.2766
 6789TIP3    H244563   2.800   3.891   9.155 -0.9651 -0.9058  2.4273
 6790TIP3   OH244564   1.559   2.354  11.887  0.1594  0.2252 -0.2381
 6790TIP3    H144565   1.470   2.331  11.861  0.1713 -1.1790  0.8862
 6790TIP3    H244566   1.601   2.271  11.905  0.9807  0.9760  1.5221
 6791TIP3   OH244567   1.848   0.143   9.955  0.6555  0.3271  0.0464
 6791TIP3    H144568   1.812   0.151  10.043 -0.3340  2.3606 -0.4857
 6791TIP3    H244569   1.832   0.228   9.914  1.7881 -0.2999 -1.8527
 6792TIP3   OH244570   1.537   4.368   8.647  0.1773 -0.0889  0.2047
 6792TIP3    H144571   1.619   4.391   8.691 -0.5047 -2.0756  2.7653
 6792TIP3    H244572   1.475   4.434   8.676  0.3839  0.2119 -0.0356
 6793TIP3   OH244573   3.012   2.017  12.074 -0.3551  0.2531 -0.3817
 6793TIP3    H144574   3.045   2.045  12.160  0.4466 -1.1687 -0.1854
 6793TIP3    H244575   2.925   1.982  12.093 -1.3848  2.5161 -0.6375
 6794TIP3   OH244576   3.783   3.196   8.748 -0.2209  0.0276  0.3456
 6794TIP3    H144577   3.789   3.181   8.843 -3.6483 -1.3627  0.5076
 6794TIP3    H244578   3.716   3.264   8.740 -0.5687 -0.4533 -1.0537
 6795TIP3   OH244579   2.609   4.104  10.136 -0.2826 -0.9998  0.1608
 6795TIP3    H144580   2.669   4.138  10.204 -0.1744  0.6468 -0.6966
 6795TIP3    H244581   2.638   4.014  10.121  2.1279 -0.2252 -0.3143
 6796TIP3   OH244582   4.806   0.650  11.306 -0.1460  0.3348 -0.4698
 6796TIP3    H144583   4.779   0.703  11.231 -1.4107 -0.4371 -0.5872
 6796TIP3    H244584   4.775   0.699  11.382 -0.2802  0.3371 -0.5254
 6797TIP3   OH244585   6.214   0.131  10.872 -0.3385 -0.1217 -0.0665
 6797TIP3    H144586   6.285   0.194  10.886  0.8554 -1.2763 -0.6996
 6797TIP3    H244587   6.134   0.184  10.876  0.4670  1.0774  1.5777
 6798TIP3   OH244588   2.572   2.169   9.795 -0.4223  0.4077  0.9909
 6798TIP3    H144589   2.509   2.112   9.838 -0.8030  0.1402  0.1117
 6798TIP3    H244590   2.657   2.127   9.808 -0.3066  1.0949  2.7308
 6799TIP3   OH244591   3.251   3.593  10.638  0.1974  0.3473 -0.1632
 6799TIP3    H144592   3.296   3.526  10.688 -2.0395 -2.3340 -1.4909
 6799TIP3    H244593   3.215   3.652  10.704  0.2110 -1.1153  1.2013
 6800TIP3   OH244594   4.497   2.931   9.840 -0.9905 -0.4375  0.5227
 6800TIP3    H144595   4.548   2.968   9.912  0.2858  0.4852 -0.8019
 6800TIP3    H244596   4.468   2.846   9.873  1.7552 -1.1969  1.2458
 6801TIP3   OH244597   2.207   0.266   9.343 -1.0205 -0.0722 -0.1490
 6801TIP3    H144598   2.194   0.266   9.248 -1.3423  0.9047 -0.1107
 6801TIP3    H244599   2.293   0.227   9.355 -0.5123  0.7726 -0.9076
 6802TIP3   OH244600   4.471   6.614   8.964  0.6076 -0.1059 -0.1641
 6802TIP3    H144601   4.404   6.668   9.006  0.7316 -1.5894  2.0739
 6802TIP3    H244602   4.432   6.590   8.880 -0.7438  0.8633  0.1507
 6803TIP3   OH244603   3.443   2.403   9.044 -0.0790 -0.0558 -0.1051
 6803TIP3    H144604   3.414   2.321   9.085  0.5675 -0.8837 -1.2366
 6803TIP3    H244605   3.538   2.395   9.039  0.0271  0.9650  0.1532
 6804TIP3   OH244606   4.699   4.435   9.743  0.3009  0.0184  0.0894
 6804TIP3    H144607   4.632   4.392   9.796  1.6672  0.0130  1.9008
 6804TIP3    H244608   4.743   4.363   9.698  1.6596 -0.4409  2.0244
 6805TIP3   OH244609   2.684   3.575  10.258 -0.6648 -0.4071 -0.0911
 6805TIP3    H144610   2.779   3.579  10.244 -0.8044 -0.1044 -1.0224
 6805TIP3    H244611   2.670   3.492  10.304  0.4223  1.1207  3.3921
 6806TIP3   OH244612   5.272   0.508  11.932 -0.2519  0.0954 -0.0447
 6806TIP3    H144613   5.230   0.511  12.018  0.4827 -0.1812  0.3264
 6806TIP3    H244614   5.245   0.589  11.889  1.8586  1.7708  1.6166
 6807TIP3   OH244615   0.324   4.994  10.361  0.5972 -0.5682  0.3551
 6807TIP3    H144616   0.290   4.917  10.407 -0.9917  0.2706  0.6596
 6807TIP3    H244617   0.287   4.988  10.273 -0.4450  0.3798  0.7002
 6808TIP3   OH244618   0.669   6.203   9.696 -0.3520  0.6195 -0.4758
 6808TIP3    H144619   0.691   6.295   9.712  3.0351  0.0155 -0.7669
 6808TIP3    H244620   0.724   6.155   9.758  0.0801 -1.2354 -2.1844
 6809TIP3   OH244621   2.784   0.708   8.852 -0.1655  0.2020  0.1758
 6809TIP3    H144622   2.693   0.735   8.843  0.6896  2.8949 -1.7673
 6809TIP3    H244623   2.787   0.620   8.814 -2.0278 -0.2403  0.9501
 6810TIP3   OH244624   3.062   5.035  11.480  0.2054 -0.1220  0.0381
 6810TIP3    H144625   3.125   4.999  11.417  0.5109 -0.6489  0.6289
 6810TIP3    H244626   2.990   5.067  11.426  2.4187  3.7455 -1.0057
 6811TIP3   OH244627   5.585   2.325   9.153 -0.4098 -0.2712 -0.3936
 6811TIP3    H144628   5.630   2.402   9.117  1.0547 -1.4754 -1.2449
 6811TIP3    H244629   5.497   2.357   9.173 -0.1993  1.3547 -1.7794
 6812TIP3   OH244630   4.824   4.817  10.402  0.1396  0.1206  0.0770
 6812TIP3    H144631   4.739   4.802  10.443  0.9691 -2.4418  1.0686
 6812TIP3    H244632   4.807   4.810  10.308 -0.6807 -0.8834  0.2903
 6813TIP3   OH244633   1.212   3.539  10.575  0.2364 -0.7526 -0.0056
 6813TIP3    H144634   1.286   3.544  10.636  0.7447 -0.9182 -0.5863
 6813TIP3    H244635   1.156   3.613  10.597  0.6620 -0.5315  0.3415
 6814TIP3   OH244636   2.078   0.740  10.593  0.3973 -0.1235  0.3069
 6814TIP3    H144637   2.048   0.808  10.532  0.2590 -0.4845 -0.0368
 6814TIP3    H244638   2.048   0.658  10.553 -1.0715 -0.2909  1.6243
 6815TIP3   OH244639   5.215   0.865  10.627  0.0770  0.3223  0.5243
 6815TIP3    H144640   5.240   0.926  10.558 -0.7490  0.8239  0.6478
 6815TIP3    H244641   5.211   0.780  10.583  0.4411  0.4874  0.1617
 6816TIP3   OH244642   5.223   2.005   8.779  0.1921  0.3537  0.9259
 6816TIP3    H144643   5.310   2.032   8.810  0.5638  0.9256 -0.5327
 6816TIP3    H244644   5.162   2.046   8.840  0.8537  2.2610  0.3701
 6817TIP3   OH244645   0.275   1.815  10.117  0.3522 -0.0510  1.0133
 6817TIP3    H144646   0.184   1.799  10.093 -0.1993  0.5964  2.5604
 6817TIP3    H244647   0.288   1.909  10.103  1.6707 -0.5475 -1.8907
 6818TIP3   OH244648   0.457   5.359   9.172 -0.0670  0.2615 -0.2339
 6818TIP3    H144649   0.393   5.415   9.128 -0.2209  0.2019 -0.0808
 6818TIP3    H244650   0.431   5.359   9.264 -0.4814 -0.6371 -0.3474
 6819TIP3   OH244651   3.421   2.428  10.363  0.4330 -0.1333  0.3197
 6819TIP3    H144652   3.378   2.506  10.326 -0.4089 -0.4819  0.5354
 6819TIP3    H244653   3.493   2.410  10.303 -1.4275 -1.2299 -1.7267
 6820TIP3   OH244654   5.088   4.346   9.358 -0.2878 -0.0963  0.5045
 6820TIP3    H144655   5.012   4.302   9.321 -0.1211  0.8879 -1.0992
 6820TIP3    H244656   5.062   4.367   9.448 -1.3380 -1.0642  0.4527
 6821TIP3   OH244657   4.211   4.862  11.785 -0.2690  0.5280  0.4475
 6821TIP3    H144658   4.260   4.944  11.797 -1.6779  1.1303  2.5752
 6821TIP3    H244659   4.251   4.801  11.848  0.9831 -0.6001 -1.3405
 6822TIP3   OH244660   0.525   0.802   8.301 -0.1231  0.1016  0.1513
 6822TIP3    H144661   0.596   0.739   8.303  0.0387  0.3080  1.3844
 6822TIP3    H244662   0.552   0.866   8.235  0.0388 -0.7111 -0.5899
 6823TIP3   OH244663   3.576   0.652   9.856  0.0847 -0.4008 -0.4430
 6823TIP3    H144664   3.649   0.602   9.821  0.4905  0.9214 -1.5769
 6823TIP3    H244665   3.532   0.592   9.916  1.6556 -1.4579 -0.3058
 6824TIP3   OH244666   1.762   5.292  17.601  0.2977  0.5810  0.3080
 6824TIP3    H144667   1.681   5.333  17.631  0.0566 -0.0004  0.4777
 6824TIP3    H244668   1.732   5.213  17.555  0.6104  1.8217 -2.1459
 6825TIP3   OH244669   6.044   1.530   8.707  0.5739 -0.6875  0.4299
 6825TIP3    H144670   6.050   1.614   8.662 -1.2580 -1.6396 -1.8285
 6825TIP3    H244671   5.965   1.537   8.760  0.1632 -1.1084 -0.1141
 6826TIP3   OH244672   0.737   2.602  11.715  0.2514  0.0794  0.0288
 6826TIP3    H144673   0.787   2.538  11.765 -1.1933 -0.4153  0.9214
 6826TIP3    H244674   0.647   2.568  11.716 -0.4370  1.7901 -0.0190
 6827TIP3   OH244675   4.092   6.599   8.592 -0.1898  0.2985  0.9728
 6827TIP3    H144676   4.030   6.606   8.519  0.4280 -0.8419  0.3129
 6827TIP3    H244677   4.038   6.574   8.667 -0.6260 -0.0622  0.5461
 6828TIP3   OH244678   3.282   2.996  12.249 -0.0351  0.0960  1.4363
 6828TIP3    H144679   3.346   3.055  12.289 -1.6551  1.0773  2.6743
 6828TIP3    H244680   3.274   3.027  12.159  1.2444 -0.0820  1.2383
 6829TIP3   OH244681   5.716   1.547   9.131 -0.4505 -0.0958 -0.0862
 6829TIP3    H144682   5.656   1.610   9.171 -1.4049 -1.6891  1.1352
 6829TIP3    H244683   5.791   1.544   9.191 -0.5884 -0.4163  0.0690
 6830TIP3   OH244684   2.091   3.268   9.250  0.6396 -0.2773 -0.3218
 6830TIP3    H144685   2.178   3.296   9.223  0.0141  0.5237 -1.5664
 6830TIP3    H244686   2.069   3.197   9.189  0.7882 -1.1610  0.6110
 6831TIP3   OH244687   5.100   6.364   9.760  0.5289 -0.0467  0.0606
 6831TIP3    H144688   5.029   6.428   9.769  0.4286  0.4535 -2.9680
 6831TIP3    H244689   5.172   6.401   9.810 -0.5611  0.7319  1.1134
 6832TIP3   OH244690   4.864   5.567  10.791  0.1362  0.6491  0.1148
 6832TIP3    H144691   4.786   5.608  10.830  1.0176  2.6005 -0.0338
 6832TIP3    H244692   4.852   5.576  10.697  0.8739  1.7310  0.0973
 6833TIP3   OH244693   4.375   2.470  10.539 -0.3797 -0.3200 -0.5612
 6833TIP3    H144694   4.439   2.498  10.473 -1.0710 -1.1361 -1.6095
 6833TIP3    H244695   4.304   2.431  10.488 -1.4902  0.0997  0.6066
 6834TIP3   OH244696   5.739   5.093  10.142 -0.7530 -0.2109 -0.0433
 6834TIP3    H144697   5.733   5.002  10.171 -4.2473 -0.6547 -1.6326
 6834TIP3    H244698   5.804   5.092  10.071  0.6146 -1.0137  1.1688
 6835TIP3   OH244699   6.039   4.598  10.104 -0.2907  0.5629  0.4034
 6835TIP3    H144700   6.120   4.557  10.134  0.4315 -0.5749 -2.6795
 6835TIP3    H244701   5.982   4.525  10.081 -0.5653  1.2619 -1.3280
 6836TIP3   OH244702   3.567   3.315   9.076 -0.2709 -0.5851 -0.0810
 6836TIP3    H144703   3.481   3.356   9.070 -0.0772 -0.2390 -0.5940
 6836TIP3    H244704   3.628   3.385   9.056  0.1187 -0.8950  0.0116
 6837TIP3   OH244705   4.671   3.432  10.167 -0.0303  0.3404 -0.1292
 6837TIP3    H144706   4.727   3.410  10.093 -0.0257 -0.9755  0.2456
 6837TIP3    H244707   4.699   3.374  10.238 -2.7448 -1.4441 -0.3338
 6838TIP3   OH244708   6.039   1.484   9.256  0.2462 -0.2282  0.0204
 6838TIP3    H144709   5.962   1.475   9.312  2.2857 -0.2365  3.0507
 6838TIP3    H244710   6.070   1.395   9.243  1.4838 -0.0806  1.5871
 6839TIP3   OH244711   1.646   1.975   9.586 -0.3812  0.1285 -0.5145
 6839TIP3    H144712   1.555   1.947   9.577 -0.4575 -0.1145  0.7740
 6839TIP3    H244713   1.660   1.979   9.681  0.8263  0.5696 -0.6996
 6840TIP3   OH244714   6.417   1.662   9.474 -0.7684 -0.1734  0.6702
 6840TIP3    H144715   6.485   1.595   9.464 -0.3951  0.5405 -2.5057
 6840TIP3    H244716   6.463   1.738   9.509 -0.1681 -0.1339 -0.1649
 6841TIP3   OH244717   3.532   0.891  10.411  0.6574  1.0203 -0.3255
 6841TIP3    H144718   3.453   0.873  10.361  1.6335  1.5807 -2.1514
 6841TIP3    H244719   3.520   0.842  10.493 -1.2533  0.5571 -0.8301
 6842TIP3   OH244720   2.527   1.314  11.678 -0.0847  0.3216 -0.3017
 6842TIP3    H144721   2.527   1.362  11.761  1.3945 -1.4107  0.8037
 6842TIP3    H244722   2.472   1.237  11.694 -0.9149  0.6695 -1.4038
 6843TIP3   OH244723   6.456   2.197   9.283 -0.0049  0.6730 -0.2886
 6843TIP3    H144724   6.494   2.269   9.334 -1.4877  0.6129  0.9931
 6843TIP3    H244725   6.362   2.201   9.304 -0.0096 -2.2031  0.6087
 6844TIP3   OH244726   3.727   4.029   9.972 -0.0775 -0.2178 -0.5501
 6844TIP3    H144727   3.821   4.046   9.976 -0.4120  1.6702  0.7255
 6844TIP3    H244728   3.705   4.043   9.880  0.5694  1.6222 -0.4845
 6845TIP3   OH244729   0.856   0.749   9.777 -1.0297 -0.0003  0.2320
 6845TIP3    H144730   0.794   0.818   9.753  1.2114  1.1692 -2.8453
 6845TIP3    H244731   0.802   0.670   9.786 -2.9939  0.7651 -3.0864
 6846TIP3   OH244732   5.933   2.080   9.630 -0.0289  0.6498 -0.1526
 6846TIP3    H144733   5.959   2.043   9.545 -1.9990  2.9310 -1.8889
 6846TIP3    H244734   5.868   2.020   9.664 -1.2594  1.0545 -1.6612
 6847TIP3   OH244735   5.143   3.900  10.565  0.3719  0.5207  0.2984
 6847TIP3    H144736   5.094   3.822  10.540 -0.0728  1.1108 -0.7578
 6847TIP3    H244737   5.154   3.893  10.660  0.6791 -0.9979  0.1695
 6848TIP3   OH244738   1.634   1.970  10.578 -0.0792 -0.0830 -0.1460
 6848TIP3    H144739   1.723   2.002  10.562  0.1935  1.0132  2.8303
 6848TIP3    H244740   1.646   1.882  10.615 -0.0604  0.5911  1.5513
 6849TIP3   OH244741   2.692   6.203   9.927  0.0964  0.5611  0.1139
 6849TIP3    H144742   2.737   6.203  10.012  0.5184  0.1546 -0.1063
 6849TIP3    H244743   2.655   6.291   9.920 -0.6060  0.3658  1.0649
 6850TIP3   OH244744   2.157   0.675   9.985 -0.1463 -0.2324  0.3168
 6850TIP3    H144745   2.229   0.697  10.044  0.9759  0.4559 -1.2240
 6850TIP3    H244746   2.109   0.606  10.031  0.9413 -0.0540  1.8128
 6851TIP3   OH244747   2.202   1.763  11.540  0.5013  0.2182  0.1252
 6851TIP3    H144748   2.264   1.823  11.581  0.4237  0.6591 -0.3864
 6851TIP3    H244749   2.153   1.726  11.613  1.4411 -0.2318  0.5433
 6852TIP3   OH244750   1.137   1.702   9.970 -0.4165 -0.8713  0.1075
 6852TIP3    H144751   1.070   1.763  10.001 -0.3541 -1.6865  1.9579
 6852TIP3    H244752   1.159   1.733   9.882 -1.1967  1.0865  0.5564
 6853TIP3   OH244753   6.369   4.941  10.964  0.4588 -0.0778  0.2365
 6853TIP3    H144754   6.375   5.027  10.923 -0.5150  1.7115  3.4281
 6853TIP3    H244755   6.458   4.922  10.993  0.1563  1.7599  2.7270
 6854TIP3   OH244756   0.525   1.792  12.272 -0.3198  0.0866  0.1405
 6854TIP3    H144757   0.488   1.854  12.209 -0.1632 -1.9961 -2.1397
 6854TIP3    H244758   0.451   1.737  12.297  0.4257 -1.8352 -1.6724
 6855TIP3   OH244759   5.312   1.064  10.450  0.0453  0.1294 -0.7710
 6855TIP3    H144760   5.310   1.152  10.488 -0.9935  0.3680 -1.3405
 6855TIP3    H244761   5.391   1.064  10.396 -0.2333  0.9073 -1.1976
 6856TIP3   OH244762   2.136   3.822   8.964 -0.1328  0.0732  0.1045
 6856TIP3    H144763   2.109   3.784   9.048  0.7120 -1.2268 -0.1832
 6856TIP3    H244764   2.082   3.777   8.899  0.5595 -0.3311 -0.2008
 6857TIP3   OH244765   2.354   3.865   8.392 -0.2254 -0.0184  0.2801
 6857TIP3    H144766   2.384   3.890   8.480  0.5441 -0.6067  0.2013
 6857TIP3    H244767   2.400   3.783   8.375  0.4732  0.6453 -1.1191
 6858TIP3   OH244768   0.676   4.478   9.632 -0.3684 -0.1624  0.1470
 6858TIP3    H144769   0.597   4.427   9.651  0.0761 -0.8253  0.2832
 6858TIP3    H244770   0.748   4.418   9.651  0.1636  0.2911 -0.3673
 6859TIP3   OH244771   4.123   2.401  10.031 -0.1200 -0.8548  0.1225
 6859TIP3    H144772   4.183   2.377  10.101 -0.2127 -0.0147  0.5017
 6859TIP3    H244773   4.090   2.488  10.056 -0.9766 -1.0096 -0.4163
 6860TIP3   OH244774   1.764   2.864  10.277  0.2804  0.0879  0.4001
 6860TIP3    H144775   1.743   2.925  10.349 -0.2102 -0.8484  1.0693
 6860TIP3    H244776   1.814   2.917  10.215 -0.2939  1.2310  0.8713
 6861TIP3   OH244777   3.137   2.629   8.441 -0.1795 -0.3771 -0.0335
 6861TIP3    H144778   3.081   2.678   8.381  0.5707  0.0072 -0.4367
 6861TIP3    H244779   3.214   2.605   8.388 -0.8018 -2.5818 -0.0425
 6862TIP3   OH244780   3.154   2.276   8.791 -0.0519  0.1434 -0.0691
 6862TIP3    H144781   3.070   2.295   8.749  0.9084 -0.6264 -2.5154
 6862TIP3    H244782   3.176   2.357   8.837 -2.1037  0.3508  0.6649
 6863TIP3   OH244783   4.148   2.451   8.503  0.1021 -0.8195  0.2345
 6863TIP3    H144784   4.192   2.369   8.481 -0.3731 -1.2423  0.8522
 6863TIP3    H244785   4.067   2.425   8.546 -1.5429 -0.0810 -2.2320
 6864TIP3   OH244786   3.727   3.141  10.830 -0.2467  0.1616  0.2457
 6864TIP3    H144787   3.741   3.200  10.903  0.8057 -0.8518  0.9056
 6864TIP3    H244788   3.783   3.175  10.760  0.5834 -0.1828  0.7192
 6865TIP3   OH244789   4.069   4.753  10.016 -0.4649 -0.1855 -0.4709
 6865TIP3    H144790   4.098   4.791   9.933 -0.3811  0.9267  0.0524
 6865TIP3    H244791   4.141   4.694  10.041  0.0845  0.4202 -0.5803
 6866TIP3   OH244792   2.236   2.499   9.497 -0.2589 -0.1538  0.2240
 6866TIP3    H144793   2.235   2.414   9.541  0.3271 -1.0924 -1.5203
 6866TIP3    H244794   2.328   2.516   9.479 -0.3763  0.8465  0.4948
 6867TIP3   OH244795   2.641   4.632   9.376 -0.0560  0.2438  0.5007
 6867TIP3    H144796   2.623   4.570   9.447  2.4899  0.6925  1.6558
 6867TIP3    H244797   2.639   4.718   9.418  0.1794  0.6290 -0.2600
 6868TIP3   OH244798   1.270   0.310   8.725  0.5531  0.0544 -0.0219
 6868TIP3    H144799   1.234   0.389   8.686  1.0184  1.0766  1.5332
 6868TIP3    H244800   1.270   0.327   8.819 -1.2668 -2.5939  0.6030
 6869TIP3   OH244801   1.959   3.084   9.683 -0.3497 -0.0860 -0.2523
 6869TIP3    H144802   1.887   3.057   9.626  0.5001  0.9203 -1.8762
 6869TIP3    H244803   2.026   3.017   9.670  0.5794  1.0881 -1.9700
 6870TIP3   OH244804   5.713   1.237   9.092  0.7562 -0.8849 -0.0417
 6870TIP3    H144805   5.717   1.293   9.170 -0.7529 -0.8637  0.0383
 6870TIP3    H244806   5.673   1.292   9.025  1.3800 -1.1420 -0.6435
 6871TIP3   OH244807   0.163   3.783   9.404 -0.1903 -0.3670 -0.5265
 6871TIP3    H144808   0.255   3.806   9.392 -0.1299 -0.3240 -0.0054
 6871TIP3    H244809   0.145   3.804   9.496 -0.9504  0.4387 -0.8450
 6872TIP3   OH244810   0.896   6.018   8.859  0.1125 -0.3503  0.1760
 6872TIP3    H144811   0.824   5.984   8.912  1.7765 -0.8077  2.3252
 6872TIP3    H244812   0.921   5.944   8.803 -1.7107  0.1571 -1.3903
 6873TIP3   OH244813   4.042   3.071  10.765 -0.3714 -0.1532 -0.3056
 6873TIP3    H144814   4.044   3.106  10.676 -0.5567 -0.4145 -0.4139
 6873TIP3    H244815   4.048   3.148  10.821 -1.2769  0.0995 -0.5373
 6874TIP3   OH244816   3.557   4.377   9.111 -0.5247  0.4393 -0.5268
 6874TIP3    H144817   3.527   4.315   9.044 -1.6631  0.8503 -0.4209
 6874TIP3    H244818   3.554   4.462   9.068 -2.7549  0.9229  0.4485
 6875TIP3   OH244819   4.737   3.185   8.643 -0.2947  0.7273 -0.0216
 6875TIP3    H144820   4.706   3.244   8.574 -1.3722  1.0508  0.7182
 6875TIP3    H244821   4.660   3.132   8.666  1.0775 -2.4114 -2.0280
 6876TIP3   OH244822   1.736   4.839  11.485 -0.4704  0.0735  0.5137
 6876TIP3    H144823   1.761   4.888  11.407  0.2050  0.4555  0.9632
 6876TIP3    H244824   1.718   4.906  11.551 -1.2533 -0.2389  0.6337
 6877TIP3   OH244825   5.406   1.493  11.796  0.3785  0.0580  0.0129
 6877TIP3    H144826   5.313   1.470  11.800  0.2009  0.7729  0.0559
 6877TIP3    H244827   5.413   1.576  11.843  1.1857 -0.4291  0.7960
 6878TIP3   OH244828   5.472   5.320  10.351  0.8271  0.2784 -0.1600
 6878TIP3    H144829   5.426   5.342  10.432 -0.2918  0.3554 -0.7942
 6878TIP3    H244830   5.537   5.255  10.377 -0.3243 -0.6108  0.6064
 6879TIP3   OH244831   6.300   1.799  10.810 -0.3258  0.3124 -0.2066
 6879TIP3    H144832   6.210   1.795  10.777  0.2132  0.3344 -1.7626
 6879TIP3    H244833   6.341   1.719  10.778  1.1430  1.8633 -2.5242
 6880TIP3   OH244834   0.685   5.135   8.775 -0.4121  0.1000 -0.1942
 6880TIP3    H144835   0.762   5.111   8.724 -0.5766  0.6011 -0.6821
 6880TIP3    H244836   0.612   5.127   8.713 -0.9984 -1.9079  0.6464
 6881TIP3   OH244837   2.585   6.425  11.601  0.5205  0.0688  0.5522
 6881TIP3    H144838   2.593   6.443  11.695  1.6609 -0.8056  0.6553
 6881TIP3    H244839   2.640   6.490  11.559  0.1178  0.3745  0.4921
 6882TIP3   OH244840   1.834   3.879  12.029  0.3250 -0.6224  0.2383
 6882TIP3    H144841   1.909   3.912  12.079 -0.9408 -0.4454  2.1356
 6882TIP3    H244842   1.782   3.958  12.012  0.4149 -0.7848 -0.8181
 6883TIP3   OH244843   5.448   2.904  10.403 -0.4352 -0.2924 -0.5162
 6883TIP3    H144844   5.540   2.927  10.406 -0.6411  0.6256  2.7447
 6883TIP3    H244845   5.434   2.871  10.315  3.0981 -0.9519 -0.9652
 6884TIP3   OH244846   6.212   0.254   9.045 -0.3444  0.5885  0.2607
 6884TIP3    H144847   6.249   0.169   9.068 -0.5867 -0.2042 -2.0503
 6884TIP3    H244848   6.288   0.309   9.027 -0.1246  1.3419  2.9430
 6885TIP3   OH244849   6.182   0.949  12.002  0.1997  0.0419 -0.4957
 6885TIP3    H144850   6.206   1.011  12.071 -0.0520 -0.3537 -0.0524
 6885TIP3    H244851   6.120   0.889  12.043 -1.4800  0.9357 -1.5499
 6886TIP3   OH244852   3.984   4.152  10.739  0.0947  0.3022 -0.5919
 6886TIP3    H144853   3.968   4.139  10.645  0.4795  0.9969 -0.7630
 6886TIP3    H244854   3.900   4.131  10.780 -0.4876  1.2473 -1.2253
 6887TIP3   OH244855   3.417   3.979   8.944 -0.1281  0.2236  0.3364
 6887TIP3    H144856   3.508   3.976   8.975 -0.0363  0.1477  0.0600
 6887TIP3    H244857   3.383   3.891   8.962 -0.1922  0.2940  0.5691
 6888TIP3   OH244858   5.672   0.000   8.622 -0.3996  0.4070 -0.8807
 6888TIP3    H144859   5.594   0.052   8.643  0.4779  0.8706  1.6070
 6888TIP3    H244860   5.638  -0.085   8.597 -1.7849 -0.2399  2.6291
 6889TIP3   OH244861   1.068   3.467  10.120 -0.0378  0.5763  0.7693
 6889TIP3    H144862   1.144   3.513  10.156  1.6990 -1.5588  0.0445
 6889TIP3    H244863   1.063   3.498  10.030  1.0933 -0.5394  0.2987
 6890TIP3   OH244864   4.078   4.914  10.249  0.0669  0.2398 -0.4676
 6890TIP3    H144865   4.112   4.855  10.182 -0.0962  0.6915 -0.9534
 6890TIP3    H244866   3.984   4.895  10.251  0.2338 -0.5577  0.4237
 6891TIP3   OH244867   0.027   0.798   8.878 -0.8215 -0.0427 -0.0667
 6891TIP3    H144868   0.095   0.779   8.942  0.3257 -1.1501 -1.5484
 6891TIP3    H244869   0.023   0.894   8.874  0.3070  0.0335  0.4019
 6892TIP3   OH244870   6.346   4.657  10.770 -0.1374  0.1413 -0.3332
 6892TIP3    H144871   6.400   4.637  10.847 -1.2128  0.6436  0.5739
 6892TIP3    H244872   6.288   4.582  10.761 -0.3625  0.3166 -0.3483
 6893TIP3   OH244873   6.628   5.842  10.228 -0.5860 -0.1361  0.3753
 6893TIP3    H144874   6.632   5.909  10.160 -0.7021 -0.5624 -0.0559
 6893TIP3    H244875   6.703   5.785  10.210 -1.3226 -0.9559 -0.1452
 6894TIP3   OH244876   6.211   1.840   9.984 -0.2659  1.0256  0.4720
 6894TIP3    H144877   6.183   1.792   9.906  1.8884 -0.2224  0.3925
 6894TIP3    H244878   6.173   1.927   9.974  0.2893  1.0421 -2.2206
 6895TIP3   OH244879   5.970   0.388  11.575 -0.3995  0.4333 -0.0251
 6895TIP3    H144880   5.966   0.394  11.671 -0.2030 -1.9032  0.1999
 6895TIP3    H244881   6.035   0.320  11.559  0.8815  2.0101 -1.9235
 6896TIP3   OH244882   4.211   5.966  10.727 -0.2536  0.6537 -0.1580
 6896TIP3    H144883   4.201   5.886  10.675 -1.2225  0.0968  0.8490
 6896TIP3    H244884   4.232   5.935  10.815  0.9179  1.5725 -0.0945
 6897TIP3   OH244885   4.275   1.024  10.093  0.0762 -0.6998  0.5411
 6897TIP3    H144886   4.292   1.116  10.115  0.6332 -0.6074 -0.2386
 6897TIP3    H244887   4.256   1.025   9.999 -0.1156 -1.3628  0.5658
 6898TIP3   OH244888   5.322   5.099   8.764 -0.0045 -0.1752  0.0499
 6898TIP3    H144889   5.251   5.164   8.772  1.5028  1.6696 -0.8273
 6898TIP3    H244890   5.397   5.140   8.806  1.0371 -1.3234 -0.6351
 6899TIP3   OH244891   2.501   1.081   8.307  0.2617 -0.3220 -0.4200
 6899TIP3    H144892   2.415   1.091   8.346  0.3886 -0.2757 -0.1544
 6899TIP3    H244893   2.492   1.003   8.251  0.0550 -0.3291 -0.3795
 6900TIP3   OH244894   5.619   4.769  11.661  0.3827 -0.0471 -0.1773
 6900TIP3    H144895   5.647   4.820  11.737  1.2575  0.8508 -1.0627
 6900TIP3    H244896   5.644   4.679  11.682  0.3249  0.1390  0.7220
 6901TIP3   OH244897   1.272   4.738  10.896  0.2514  0.0173 -0.2074
 6901TIP3    H144898   1.276   4.794  10.819 -1.2627  1.2168  0.5234
 6901TIP3    H244899   1.272   4.798  10.970 -0.5037 -0.9802  0.6401
 6902TIP3   OH244900   5.474   6.618   8.863 -0.7466 -0.3773 -0.2652
 6902TIP3    H144901   5.474   6.545   8.802  0.3040 -0.7649  0.1768
 6902TIP3    H244902   5.491   6.695   8.809  2.1673 -0.9169 -0.3019
 6903TIP3   OH244903   4.468   2.357   9.143  0.0661  0.6715 -0.1573
 6903TIP3    H144904   4.474   2.367   9.237 -0.4902  2.0995 -0.2453
 6903TIP3    H244905   4.482   2.445   9.108 -1.7737  0.5787 -1.2759
 6904TIP3   OH244906   1.414   1.247   8.492 -0.0184  0.4282 -0.5869
 6904TIP3    H144907   1.331   1.242   8.540 -0.0944 -0.1222 -0.7702
 6904TIP3    H244908   1.415   1.335   8.456 -1.0077  0.1226 -1.4326
 6905TIP3   OH244909   0.758   3.604   8.772 -0.3850  0.0726  0.1386
 6905TIP3    H144910   0.703   3.625   8.697  0.2829  1.5029  0.0030
 6905TIP3    H244911   0.781   3.512   8.761 -0.4847  0.2057 -1.2811
 6906TIP3   OH244912   5.042   1.164  10.373 -0.3016 -0.1108 -0.0816
 6906TIP3    H144913   5.083   1.234  10.324 -0.2637 -0.2119 -0.1967
 6906TIP3    H244914   5.102   1.090  10.364 -0.8035 -0.4475 -0.7864
 6907TIP3   OH244915   0.607   6.671  10.712 -0.5095 -0.8853 -0.9541
 6907TIP3    H144916   0.693   6.698  10.744 -1.5684  0.6988  0.7361
 6907TIP3    H244917   0.583   6.737  10.647 -1.7386  0.6120  0.8933
 6908TIP3   OH244918   2.043   3.880  10.049  0.2418 -0.8880 -0.2530
 6908TIP3    H144919   2.005   3.947   9.993 -0.1951 -1.7797 -1.0400
 6908TIP3    H244920   2.131   3.866  10.014  0.2776 -0.8330 -0.1851
 6909TIP3   OH244921   0.451   3.508  10.634 -0.1352  0.2334 -0.6416
 6909TIP3    H144922   0.369   3.486  10.589  1.1174  0.0850 -3.0213
 6909TIP3    H244923   0.472   3.596  10.604  0.4091  0.4164  0.2436
 6910TIP3   OH244924   3.575   5.765  11.064  0.1949 -0.4866  0.1082
 6910TIP3    H144925   3.528   5.683  11.053  0.6729 -1.1345  2.3161
 6910TIP3    H244926   3.566   5.785  11.157  1.1179  1.3412 -0.1471
 6911TIP3   OH244927   0.613   4.804  10.211 -0.3849  0.4277  0.4438
 6911TIP3    H144928   0.524   4.827  10.185 -1.0551 -0.8379  1.4830
 6911TIP3    H244929   0.623   4.841  10.299 -0.7734 -1.4249  1.3105
 6912TIP3   OH244930   1.047   5.311   9.245  0.3660  0.1680 -0.3301
 6912TIP3    H144931   1.058   5.400   9.212  0.3213  1.3254  2.4870
 6912TIP3    H244932   0.962   5.312   9.290  1.2872 -0.6376  1.5422
 6913TIP3   OH244933   0.649   3.003  10.474 -0.4803 -0.2700  0.6911
 6913TIP3    H144934   0.730   3.021  10.426 -1.6427  0.3129 -1.1668
 6913TIP3    H244935   0.602   3.086  10.472 -2.3828 -1.3076 -0.8571
 6914TIP3   OH244936   4.128   6.248  10.626  0.1004 -1.0051 -0.3471
 6914TIP3    H144937   4.035   6.256  10.648  0.4863 -0.7366  1.3161
 6914TIP3    H244938   4.142   6.155  10.611 -0.4072 -1.0655 -0.4411
 6915TIP3   OH244939   1.534   3.584  10.370  0.0094 -0.1543  0.0108
 6915TIP3    H144940   1.529   3.671  10.409 -0.9856 -0.4703  0.6183
 6915TIP3    H244941   1.627   3.563  10.369  0.1279  0.2525  1.3558
 6916TIP3   OH244942   4.289   2.014  10.147  0.4158 -0.1055 -0.4099
 6916TIP3    H144943   4.285   1.928  10.190 -0.2396 -0.0409 -0.3381
 6916TIP3    H244944   4.219   2.011  10.082 -0.4218  0.8271  0.4209
 6917TIP3   OH244945   1.462   2.529  10.292  0.1879 -0.2533  0.2474
 6917TIP3    H144946   1.445   2.561  10.203  1.3148 -0.2794  0.0165
 6917TIP3    H244947   1.546   2.567  10.315  0.4250 -1.1434  0.8822
 6918TIP3   OH244948   4.957   5.493   8.503 -0.2015  0.7636  0.4863
 6918TIP3    H144949   4.993   5.571   8.546  1.0472  1.4453 -1.6723
 6918TIP3    H244950   5.033   5.439   8.484 -0.7187  0.4803 -0.8391
 6919TIP3   OH244951   5.963   3.577  11.710  0.5793  0.5794 -0.0757
 6919TIP3    H144952   5.918   3.660  11.720  0.1953  0.3891 -0.2126
 6919TIP3    H244953   5.917   3.533  11.639  0.0924 -0.2011  0.6985
 6920TIP3   OH244954   4.323   1.317  10.484  0.4603 -0.1005  0.1905
 6920TIP3    H144955   4.234   1.293  10.456  0.1580  0.1506  0.9201
 6920TIP3    H244956   4.310   1.390  10.544  0.9793 -1.5097  2.1043
 6921TIP3   OH244957   6.139   5.321  10.108  0.0194  0.1205  0.4691
 6921TIP3    H144958   6.168   5.412  10.118  2.9247 -0.1372 -3.2712
 6921TIP3    H244959   6.214   5.269  10.137 -0.5828 -1.0106  0.0529
 6922TIP3   OH244960   1.528   1.349   9.892  0.0590 -0.2220 -0.3894
 6922TIP3    H144961   1.524   1.435   9.934 -1.2134 -0.3116 -0.2859
 6922TIP3    H244962   1.503   1.365   9.801 -1.7075 -0.6736 -0.0199
 6923TIP3   OH244963   1.595   2.127   8.265 -0.1005 -0.4458 -0.2286
 6923TIP3    H144964   1.688   2.103   8.269 -0.4736 -2.5293 -1.9344
 6923TIP3    H244965   1.551   2.044   8.245 -2.3913  0.4171  0.9939
 6924TIP3   OH244966   6.563   1.131  10.248  0.1518  0.0438 -0.3207
 6924TIP3    H144967   6.605   1.113  10.164 -0.5073  3.0181 -1.4293
 6924TIP3    H244968   6.470   1.117  10.232  0.1658 -1.1221  0.4923
 6925TIP3   OH244969   2.582   3.542  10.671 -0.1820  0.0709 -0.1482
 6925TIP3    H144970   2.503   3.489  10.670  0.8967 -1.6142 -0.0272
 6925TIP3    H244971   2.638   3.503  10.604  1.0550  0.3954  0.6609
 6926TIP3   OH244972   5.875   4.065  10.586  0.1916 -0.0967 -0.3068
 6926TIP3    H144973   5.819   4.027  10.519  0.8341  0.1519 -0.9950
 6926TIP3    H244974   5.922   3.991  10.624 -0.8180 -0.3442  0.4897
 6927TIP3   OH244975   1.247   1.742   9.147 -0.1421 -0.4100  0.1166
 6927TIP3    H144976   1.330   1.711   9.185  0.1906 -0.3679 -0.5507
 6927TIP3    H244977   1.273   1.815   9.091 -0.9334  1.2555  1.8175
 6928TIP3   OH244978   1.852   1.292   8.784  0.0055  0.3705  0.0053
 6928TIP3    H144979   1.840   1.287   8.689  0.5093 -0.1708 -0.0364
 6928TIP3    H244980   1.943   1.318   8.795  0.2963 -0.7525  0.3451
 6929TIP3   OH244981   1.369   2.551   8.304  0.3973  0.1566  0.7064
 6929TIP3    H144982   1.363   2.455   8.295  1.9370 -0.0921  1.9323
 6929TIP3    H244983   1.450   2.574   8.260 -0.9317  1.2157 -1.3283
 6930TIP3   OH244984   5.179   5.336   9.386  0.4995 -0.7442 -0.0639
 6930TIP3    H144985   5.102   5.278   9.391 -0.0940  0.0271 -0.0379
 6930TIP3    H244986   5.180   5.382   9.470 -0.6562  1.2605 -1.0626
 6931TIP3   OH244987   0.738   4.203   9.339  0.0782 -0.0994 -0.0882
 6931TIP3    H144988   0.649   4.199   9.306  0.3333  0.3759 -0.8581
 6931TIP3    H244989   0.738   4.148   9.417 -1.2908  1.1525  0.8564
 6932TIP3   OH244990   2.399   5.862   9.725  0.3910 -0.2315 -0.4222
 6932TIP3    H144991   2.388   5.772   9.693 -3.3130  0.3716 -1.3139
 6932TIP3    H244992   2.362   5.861   9.814 -0.6142  0.5473 -0.8055
 6933TIP3   OH244993   2.924   5.472   9.671  0.7073 -0.2854  0.0715
 6933TIP3    H144994   2.915   5.545   9.732 -1.0481  0.8284 -1.4356
 6933TIP3    H244995   2.842   5.424   9.679 -0.6452  1.2352 -3.0025
 6934TIP3   OH244996   4.184   5.034   9.400  0.0654 -0.1163 -0.2779
 6934TIP3    H144997   4.230   5.103   9.447  1.5763  0.1049 -2.0120
 6934TIP3    H244998   4.092   5.046   9.426  0.7784 -0.1291  2.6965
 6935TIP3   OH244999   2.583   1.907  10.640 -0.0150 -0.1822  0.6895
 6935TIP3    H145000   2.671   1.869  10.636  0.4103  0.8634 -0.5766
 6935TIP3    H245001   2.525   1.832  10.656  0.8820 -1.2651 -0.8197
 6936TIP3   OH245002   3.474   6.603   9.655 -0.5750 -0.4031  0.0380
 6936TIP3    H145003   3.489   6.563   9.570 -0.8932  1.8088 -1.1482
 6936TIP3    H245004   3.380   6.623   9.656 -0.6002 -0.5271  0.9733
 6937TIP3   OH245005   0.199   0.595   9.564 -0.1185 -0.1231  0.1034
 6937TIP3    H145006   0.129   0.576   9.627 -1.8506 -1.3071 -2.0594
 6937TIP3    H245007   0.214   0.512   9.518  1.1763  0.6642 -0.9706
 6938TIP3   OH245008   0.291   3.245  10.816  0.5645 -0.0677  0.3044
 6938TIP3    H145009   0.353   3.232  10.888  0.8032 -0.3832  0.0433
 6938TIP3    H245010   0.272   3.157  10.784  0.7023  0.0899 -0.2242
 6939TIP3   OH245011   5.752   1.811  11.227 -0.2412  0.1240  0.7108
 6939TIP3    H145012   5.826   1.871  11.233 -0.3442  0.1372  2.3987
 6939TIP3    H245013   5.783   1.731  11.269 -0.0418 -1.1464 -1.6768
 6940TIP3   OH245014   4.960   2.599   9.051 -0.2761  0.4288 -0.3242
 6940TIP3    H145015   5.044   2.631   9.016  0.7240 -2.1297 -0.4476
 6940TIP3    H245016   4.913   2.679   9.075  1.9410  1.9872 -0.8009
 6941TIP3   OH245017   0.087   0.575  12.202 -0.4719  0.3583 -0.1764
 6941TIP3    H145018   0.055   0.629  12.274 -0.4036  0.7051 -0.4042
 6941TIP3    H245019   0.039   0.492  12.211 -2.0221  1.1259 -0.9605
 6942TIP3   OH245020   5.811   4.278  10.286 -1.0514  0.3818 -0.0685
 6942TIP3    H145021   5.838   4.254  10.374 -0.4493 -0.4928 -0.4722
 6942TIP3    H245022   5.788   4.195  10.245 -1.2708  0.7712 -0.7475
 6943TIP3   OH245023   1.709   2.619  10.421  0.4784  0.5937 -0.0751
 6943TIP3    H145024   1.780   2.640  10.481  0.2279 -0.0379  0.4506
 6943TIP3    H245025   1.724   2.676  10.345  0.9499  1.1994  0.4642
 6944TIP3   OH245026   1.676   1.895  10.277  0.9465  0.0333  1.2241
 6944TIP3    H145027   1.619   1.861  10.347  2.1571 -1.0872  1.7293
 6944TIP3    H245028   1.693   1.819  10.222  0.7853  0.6966  0.2392
 6945TIP3   OH245029   5.867   2.552   9.688 -0.1706 -0.4526  0.5344
 6945TIP3    H145030   5.813   2.480   9.657  0.1389 -0.9737  1.1891
 6945TIP3    H245031   5.833   2.629   9.642 -2.0255 -0.6199  1.5398
 6946TIP3   OH245032   0.680   5.162  10.008  0.2415  0.4933  0.2959
 6946TIP3    H145033   0.773   5.182  10.014  0.0212  1.4264  0.6712
 6946TIP3    H245034   0.643   5.190  10.092 -0.2309 -0.7190  0.5233
 6947TIP3   OH245035   5.405   1.830   9.640  0.4446  0.3342  0.1140
 6947TIP3    H145036   5.314   1.847   9.617  0.4248  0.2520  0.1332
 6947TIP3    H245037   5.436   1.769   9.572  0.3556  0.0081  0.3651
 6948TIP3   OH245038   3.521   2.411  11.264  0.0529  0.0905 -0.1208
 6948TIP3    H145039   3.564   2.493  11.289  0.2710  0.4740 -1.6378
 6948TIP3    H245040   3.593   2.349  11.250 -0.1427 -0.6680  1.8773
 6949TIP3   OH245041   4.381   5.300  10.009 -0.2466 -0.5085  1.2326
 6949TIP3    H145042   4.301   5.316  10.058 -0.7657  0.0144  0.2476
 6949TIP3    H245043   4.398   5.382   9.962 -0.1207 -1.1807  0.0609
 6950TIP3   OH245044   0.643   4.765  11.544 -0.4446  0.7355  0.0998
 6950TIP3    H145045   0.617   4.710  11.470 -1.3439  0.9777  0.2247
 6950TIP3    H245046   0.582   4.839  11.542  1.5451  2.4460 -0.8502
 6951TIP3   OH245047   5.188   1.492   9.957 -0.5200 -0.4486 -0.1318
 6951TIP3    H145048   5.155   1.544  10.031 -1.9565 -0.5276 -0.6967
 6951TIP3    H245049   5.127   1.510   9.886  2.5535  2.2824 -2.4494
 6952TIP3   OH245050   0.001   3.096  10.779 -0.3219 -0.4048 -0.2943
 6952TIP3    H145051   0.076   3.040  10.761 -1.9189 -3.0256  0.7610
 6952TIP3    H245052   0.027   3.149  10.854  1.1099  0.1264 -1.1312
 6953TIP3   OH245053   6.178   5.184   9.826 -0.0083 -0.1258  0.4951
 6953TIP3    H145054   6.255   5.224   9.784 -0.3380  0.3644  0.3456
 6953TIP3    H245055   6.132   5.258   9.866 -1.6368 -0.0319 -1.3776
 6954TIP3   OH245056   3.104   1.371  11.117 -0.2803 -0.8040  0.4383
 6954TIP3    H145057   3.057   1.453  11.101  3.0026  0.9452 -1.5030
 6954TIP3    H245058   3.039   1.303  11.106 -2.1364  1.2943 -3.6528
 6955TIP3   OH245059   6.595   3.914  10.233 -0.2800 -0.9310  0.2998
 6955TIP3    H145060   6.572   4.001  10.200  0.0472 -1.7460 -2.2595
 6955TIP3    H245061   6.514   3.864  10.227 -0.2649 -1.0561  1.0024
 6956TIP3   OH245062   0.720   0.120   9.842 -0.4026 -0.0724 -0.2923
 6956TIP3    H145063   0.648   0.106   9.903  1.5246 -0.8686  1.9628
 6956TIP3    H245064   0.744   0.032   9.812  1.1092 -0.0904  0.8697
 6957TIP3   OH245065   4.923   0.576  10.259  0.3724 -0.0574 -0.5205
 6957TIP3    H145066   4.834   0.562  10.293 -0.5339  0.9014 -2.3537
 6957TIP3    H245067   4.943   0.668  10.280  0.3789  0.1197 -1.2756
 6958TIP3   OH245068   2.627   2.145  10.524  0.1567  0.4517 -0.5310
 6958TIP3    H145069   2.584   2.209  10.580  0.0788 -0.2621  0.2460
 6958TIP3    H245070   2.631   2.065  10.577  4.0125  0.9092  0.2022
 6959TIP3   OH245071   3.952   1.267   8.908  0.0394 -0.0052  0.1694
 6959TIP3    H145072   3.962   1.253   8.814  1.7880 -0.6561  0.4198
 6959TIP3    H245073   3.945   1.362   8.918  0.6645  0.1235 -0.5628
 6960TIP3   OH245074   3.452   1.932   8.414 -0.2418  0.0636  0.6579
 6960TIP3    H145075   3.372   1.947   8.364  0.0292  1.3154  0.5735
 6960TIP3    H245076   3.421   1.893   8.496 -0.9822  0.8606  0.7741
 6961TIP3   OH245077   1.551   3.189   9.595 -0.0766 -0.7845 -0.2619
 6961TIP3    H145078   1.629   3.188   9.650 -0.9622 -2.0209  1.0587
 6961TIP3    H245079   1.484   3.144   9.648 -1.2265 -1.2153 -2.0026
 6962TIP3   OH245080   4.073   0.737  10.751  0.1295  0.0068 -0.3081
 6962TIP3    H145081   4.042   0.735  10.660  0.3272 -0.7875 -0.3663
 6962TIP3    H245082   3.998   0.707  10.802  0.7246 -1.8976 -0.4471
 6963TIP3   OH245083   3.355   5.409  11.162 -0.0841 -0.5875 -0.0191
 6963TIP3    H145084   3.303   5.329  11.168 -0.1511 -0.5780 -0.4570
 6963TIP3    H245085   3.397   5.405  11.076  1.4855 -1.1050  0.7400
 6964TIP3   OH245086   4.688   3.104   9.977  0.4086  0.0524  0.0006
 6964TIP3    H145087   4.719   3.186   9.938 -0.8932 -0.5741 -2.5455
 6964TIP3    H245088   4.633   3.132  10.050  0.2480  1.4511 -0.6281
 6965TIP3   OH245089   2.794   4.850  10.067 -0.1910 -0.8029  0.3662
 6965TIP3    H145090   2.851   4.785  10.028  0.7838 -0.4305  1.1234
 6965TIP3    H245091   2.847   4.890  10.136 -0.8615  0.5874  0.1111
 6966TIP3   OH245092   6.306   0.620  11.156 -0.2268 -0.1908  0.6971
 6966TIP3    H145093   6.389   0.668  11.157 -1.1392  1.4959  2.5410
 6966TIP3    H245094   6.311   0.566  11.077  3.2266 -1.3452  1.5141
 6967TIP3   OH245095   3.165   3.504   9.899  0.4695  0.1693  0.5460
 6967TIP3    H145096   3.207   3.489   9.814 -0.3047  1.4861 -0.1139
 6967TIP3    H245097   3.165   3.419   9.942 -0.7892 -0.9763 -1.5616
 6968TIP3   OH245098   3.608   5.617   9.418  0.1369 -0.5281 -0.7101
 6968TIP3    H145099   3.622   5.668   9.338  1.0654 -1.1065 -0.9370
 6968TIP3    H245100   3.532   5.562   9.399  0.0326 -0.2894 -0.9957
 6969TIP3   OH245101   0.631   0.580  10.596  0.0532  0.3049  0.1028
 6969TIP3    H145102   0.665   0.492  10.610 -2.2861 -0.6529  0.1947
 6969TIP3    H245103   0.628   0.618  10.684 -2.0717 -0.8013  0.5596
 6970TIP3   OH245104   3.038   5.253   9.381 -0.2907 -0.4285  0.1568
 6970TIP3    H145105   3.123   5.220   9.351 -0.1516 -0.3710  0.4790
 6970TIP3    H245106   3.058   5.339   9.418 -0.5757 -0.1828 -0.2502
 6971TIP3   OH245107   5.325   6.140  11.003 -0.0428 -0.1628 -0.5595
 6971TIP3    H145108   5.274   6.132  11.083  0.8439  0.8079  0.1214
 6971TIP3    H245109   5.416   6.139  11.032  0.2964  0.1853 -1.5584
 6972TIP3   OH245110   0.440   3.209   9.648 -0.5868  0.2552 -0.3405
 6972TIP3    H145111   0.518   3.262   9.662 -0.7589  1.2143 -2.5073
 6972TIP3    H245112   0.473   3.125   9.614 -0.4509  0.2896 -0.2915
 6973TIP3   OH245113   0.865   5.981  11.260  0.4197 -0.6401 -0.6867
 6973TIP3    H145114   0.890   6.023  11.343  0.9228 -0.5119 -0.8948
 6973TIP3    H245115   0.774   5.957  11.272  0.4941 -0.6508 -0.0817
 6974TIP3   OH245116   6.028   5.549   8.896  0.1885 -0.3399 -0.0734
 6974TIP3    H145117   5.945   5.592   8.879  0.2723  0.8280  2.0795
 6974TIP3    H245118   6.049   5.503   8.815 -1.6791  0.7674 -1.2450
 6975TIP3   OH245119   2.887   5.530   8.630  0.6469  0.5287  0.2427
 6975TIP3    H145120   2.834   5.474   8.574  2.5082 -1.5601  0.4153
 6975TIP3    H245121   2.836   5.539   8.711  0.1208 -0.6300  0.0597
 6976TIP3   OH245122   2.373   3.171   8.603 -0.5549  0.5781  0.2745
 6976TIP3    H145123   2.457   3.205   8.571  0.0213  0.4345  1.5871
 6976TIP3    H245124   2.309   3.233   8.570  0.1015  0.9012 -0.4349
 6977TIP3   OH245125   5.150   4.949  12.040  0.0889  0.0572 -0.1755
 6977TIP3    H145126   5.201   4.955  12.121 -0.1334  0.7157 -0.0717
 6977TIP3    H245127   5.144   4.856  12.022 -2.2553 -0.3704  2.1270
 6978TIP3   OH245128   6.517   0.832  11.181 -0.0905 -0.5048  0.5298
 6978TIP3    H145129   6.582   0.893  11.215  0.1150 -0.8065  0.6833
 6978TIP3    H245130   6.560   0.792  11.105 -0.9517  0.9830 -0.8137
 6979TIP3   OH245131   5.584   5.622  11.621  0.1712  0.4380  0.1794
 6979TIP3    H145132   5.634   5.699  11.592 -0.9856  1.2261  0.2314
 6979TIP3    H245133   5.611   5.610  11.713  0.5019  0.6582  0.1153
 6980TIP3   OH245134   1.223   0.271  11.830  0.0904  0.0051 -0.1084
 6980TIP3    H145135   1.225   0.346  11.890 -0.2258 -0.3108  0.2993
 6980TIP3    H245136   1.186   0.306  11.750 -1.0547  0.0516  0.4213
 6981TIP3   OH245137   1.877   4.011  11.041  0.3644  0.3555 -0.7941
 6981TIP3    H145138   1.807   3.955  11.075  1.0429 -0.2667 -0.4059
 6981TIP3    H245139   1.891   3.980  10.951 -0.1337  0.7514 -1.0111
 6982TIP3   OH245140   3.581   4.912   8.929  0.2060  0.7235 -0.2765
 6982TIP3    H145141   3.547   4.966   8.858 -0.6734 -0.5700 -0.8859
 6982TIP3    H245142   3.666   4.880   8.897  0.7947  1.8116  0.1445
 6983TIP3   OH245143   4.050   4.447   8.932 -0.2044  0.2901  0.0454
 6983TIP3    H145144   4.100   4.430   9.012  3.1085 -0.5391 -2.0084
 6983TIP3    H245145   4.016   4.361   8.907  0.8322  0.0575 -0.6402
 6984TIP3   OH245146   2.682   3.603  11.158  0.6367  0.3342  0.0312
 6984TIP3    H145147   2.593   3.636  11.157  0.6843  0.5699  1.3226
 6984TIP3    H245148   2.675   3.516  11.199  0.9530  0.1907 -0.2113
 6985TIP3   OH245149   4.236   6.348  10.392  0.7188 -0.3144  0.1174
 6985TIP3    H145150   4.196   6.269  10.355 -1.2576  0.1702  1.0722
 6985TIP3    H245151   4.223   6.339  10.486  1.8569  0.4604  0.3655
 6986TIP3   OH245152   5.400   1.677   9.882  0.3976  0.2513  0.1555
 6986TIP3    H145153   5.384   1.739   9.812  2.3182  0.4175 -0.1911
 6986TIP3    H245154   5.314   1.640   9.902 -0.8425  3.1398  0.5416
 6987TIP3   OH245155   3.598   3.478   9.404 -0.2769  0.5082  0.7223
 6987TIP3    H145156   3.616   3.405   9.463 -2.1764  0.5311  1.3944
 6987TIP3    H245157   3.543   3.537   9.455 -2.9179  0.0277 -1.3302
 6988TIP3   OH245158   4.341   0.112  10.768  0.5245  0.1263  0.3883
 6988TIP3    H145159   4.386   0.050  10.711 -0.6665 -2.0831  1.6772
 6988TIP3    H245160   4.248   0.088  10.760 -0.1024  2.3502  0.3061
 6989TIP3   OH245161   1.685   4.431  10.795  0.0289  0.2352  0.4528
 6989TIP3    H145162   1.596   4.467  10.794 -0.5265 -1.1145 -0.3895
 6989TIP3    H245163   1.675   4.341  10.823  1.1151  0.0014  0.1392
 6990TIP3   OH245164   4.109   2.540  10.569 -0.2920  0.5982  0.5815
 6990TIP3    H145165   4.204   2.551  10.566 -0.5019  2.4208 -0.3975
 6990TIP3    H245166   4.096   2.445  10.572  1.5449  0.3185  0.7286
 6991TIP3   OH245167   5.998   6.085  11.614  0.2522 -0.2495 -0.1214
 6991TIP3    H145168   6.056   6.161  11.607  0.4386 -0.5141 -1.6683
 6991TIP3    H245169   5.910   6.123  11.610  0.3428 -0.0604 -0.3980
 6992TIP3   OH245170   1.719   3.943  11.302 -0.6384 -0.5166  0.5202
 6992TIP3    H145171   1.721   4.012  11.368 -0.3493  1.8226 -1.7685
 6992TIP3    H245172   1.627   3.919  11.294 -0.9036  0.5134  0.4722
 6993TIP3   OH245173   6.672   3.598  11.278 -0.2245 -0.3485  0.0288
 6993TIP3    H145174   6.759   3.584  11.315  0.3906  2.1268 -0.3210
 6993TIP3    H245175   6.621   3.637  11.349  0.1762  1.8903 -0.8231
 6994TIP3   OH245176   2.680   0.584  10.911 -0.0083 -0.0989  0.3024
 6994TIP3    H145177   2.720   0.535  10.839  0.5416  1.2086 -0.3224
 6994TIP3    H245178   2.594   0.543  10.922  0.4770 -1.2814 -0.0866
 6995TIP3   OH245179   3.333   6.149  10.713  0.0135  0.1912  0.2785
 6995TIP3    H145180   3.374   6.107  10.789 -0.3787 -0.9221 -0.1036
 6995TIP3    H245181   3.403   6.202  10.675  0.8702 -0.9494  0.1772
 6996TIP3   OH245182   2.129   1.108  11.332  0.3033  0.2379  0.0242
 6996TIP3    H145183   2.213   1.085  11.371  0.7321 -1.4559 -1.7233
 6996TIP3    H245184   2.150   1.172  11.263  0.0076  0.6622  0.3249
 6997TIP3   OH245185   3.112   2.221  11.905 -0.6525 -0.5736 -0.4364
 6997TIP3    H145186   3.094   2.172  11.985 -1.3472 -0.1038 -0.2969
 6997TIP3    H245187   3.189   2.274  11.926 -1.4142  0.2922  0.2709
 6998TIP3   OH245188   5.787   2.257   9.312 -0.0432  0.3375  0.5824
 6998TIP3    H145189   5.861   2.287   9.260  0.0286 -0.8868 -0.0678
 6998TIP3    H245190   5.710   2.287   9.264  0.0222  0.9720  0.8671
 6999TIP3   OH245191   1.216   2.835   8.863 -0.4502  0.0825  0.0675
 6999TIP3    H145192   1.164   2.769   8.818 -0.1835  0.5660 -0.9699
 6999TIP3    H245193   1.169   2.917   8.849  1.3547  0.8157 -2.2897
 7000TIP3   OH245194   3.792   6.039   9.712 -0.2104 -0.4629  0.3210
 7000TIP3    H145195   3.795   5.953   9.671 -0.9600 -0.1002 -0.5162
 7000TIP3    H245196   3.709   6.078   9.683  0.7172  1.0727 -0.4132
 7001TIP3   OH245197   0.856   4.812  11.719 -0.1212  0.4218  0.4378
 7001TIP3    H145198   0.879   4.891  11.670 -0.6809 -0.2979 -1.0331
 7001TIP3    H245199   0.783   4.774  11.671  0.4309 -1.2464  0.8540
 7002TIP3   OH245200   2.512   5.640   9.627  0.1390  0.1757  0.1448
 7002TIP3    H145201   2.576   5.678   9.687  0.8713  2.2615 -1.7909
 7002TIP3    H245202   2.552   5.559   9.596  0.1351 -0.4604  1.7524
 7003TIP3   OH245203   3.153   6.089  10.211  0.0130 -0.3375  0.4066
 7003TIP3    H145204   3.190   6.156  10.268  1.0785 -0.8488  0.3354
 7003TIP3    H245205   3.060   6.087  10.234  0.1745  0.3816  1.1870
 7004TIP3   OH245206   3.808   6.484  10.617  0.0694 -0.2454  0.1162
 7004TIP3    H145207   3.849   6.559  10.659  1.0092 -0.2020 -0.8315
 7004TIP3    H245208   3.835   6.408  10.669  1.1556 -0.1854 -0.3356
 7005TIP3   OH245209   2.353   2.377   9.979  0.2668  0.1929  0.3893
 7005TIP3    H145210   2.276   2.376   9.922  1.6442  1.8067 -1.6751
 7005TIP3    H245211   2.425   2.404   9.921  2.2405 -0.4578  2.4083
 7006TIP3   OH245212   5.034   5.714   8.622  0.7717 -0.4188  0.4531
 7006TIP3    H145213   5.125   5.734   8.603  0.7050 -0.5307  0.0001
 7006TIP3    H245214   4.992   5.800   8.631  0.9752 -0.3683  0.9323
 7007TIP3   OH245215   2.949   4.191   8.918  0.6420  0.5019  0.6020
 7007TIP3    H145216   2.893   4.198   8.995  0.8111  1.6146  0.6420
 7007TIP3    H245217   3.003   4.114   8.935 -0.0456  0.1169  1.1056
 7008TIP3   OH245218   6.238   2.366   9.009  0.5906  0.0591 -0.5165
 7008TIP3    H145219   6.193   2.451   9.004 -0.2939 -0.3872 -0.2663
 7008TIP3    H245220   6.310   2.374   8.946  0.2524  0.8336 -0.8229
 7009TIP3   OH245221   2.925   5.209  10.297 -0.1572  0.2696 -1.0036
 7009TIP3    H145222   2.922   5.113  10.303  0.2001  0.2416 -1.2479
 7009TIP3    H245223   2.834   5.236  10.298 -0.3533 -0.1972 -2.9507
 7010TIP3   OH245224   0.374   1.901  11.112 -0.6112  0.3335  0.2073
 7010TIP3    H145225   0.345   1.810  11.114 -0.8036  0.3988  0.6069
 7010TIP3    H245226   0.380   1.922  11.019  3.2516 -1.2556 -0.0708
 7011TIP3   OH245227   4.018   5.326   8.679 -0.0984  0.0244 -0.0895
 7011TIP3    H145228   4.109   5.334   8.653 -0.2027 -2.0290 -1.2606
 7011TIP3    H245229   3.985   5.250   8.631 -2.2262  0.2560  0.8670
 7012TIP3   OH245230   6.191   5.108  12.008  0.1218 -0.2012  0.5128
 7012TIP3    H145231   6.224   5.194  12.031 -0.4033 -0.2131  1.3237
 7012TIP3    H245232   6.112   5.125  11.957  0.4447 -0.2008  0.0020
 7013TIP3   OH245233   6.453   0.794  11.599  0.6443  0.2897 -0.3780
 7013TIP3    H145234   6.453   0.730  11.670 -0.2789 -2.3678 -2.6168
 7013TIP3    H245235   6.372   0.777  11.551  1.7519  1.1725 -2.7309
 7014TIP3   OH245236   1.224   4.829   8.905  0.2653  0.4111  0.0908
 7014TIP3    H145237   1.272   4.755   8.942  0.1850  0.8385  1.0832
 7014TIP3    H245238   1.163   4.855   8.973  0.2370  1.3439 -0.2681
 7015TIP3   OH245239   2.994   5.258  10.708 -0.0341 -0.3612  0.0530
 7015TIP3    H145240   3.023   5.191  10.770 -0.4309  0.7333  1.4819
 7015TIP3    H245241   3.061   5.258  10.640  0.5647 -1.4070  0.6086
 7016TIP3   OH245242   5.849   5.374  11.624 -0.5321 -0.0390  0.1218
 7016TIP3    H145243   5.773   5.336  11.580 -0.0296 -1.1300  0.1578
 7016TIP3    H245244   5.875   5.447  11.569 -1.8888  0.6497  0.3592
 7017TIP3   OH245245   3.737   6.018  11.732 -0.2636  0.2887  0.2803
 7017TIP3    H145246   3.714   6.014  11.825  0.5105 -0.6127  0.4539
 7017TIP3    H245247   3.831   6.037  11.731 -0.8262  3.6810 -0.4031
 7018TIP3   OH245248   5.447   2.354   8.523 -0.3421  0.8115 -0.4190
 7018TIP3    H145249   5.534   2.376   8.492 -0.0030  1.7993  1.1134
 7018TIP3    H245250   5.448   2.259   8.532  0.2499  0.7249 -1.3195
 7019TIP3   OH245251   5.496   2.077   8.566  0.1296 -0.2236  0.2925
 7019TIP3    H145252   5.461   2.025   8.638  0.4791 -0.0835  0.5645
 7019TIP3    H245253   5.591   2.070   8.575  0.2585 -2.6652 -1.9020
 7020TIP3   OH245254   5.224   5.094  10.329 -0.0522  0.1954 -0.1357
 7020TIP3    H145255   5.183   5.135  10.253  0.0218 -0.0145 -0.2911
 7020TIP3    H245256   5.162   5.026  10.356  0.9829 -1.4065 -1.5159
 7021TIP3   OH245257   5.536   0.201  11.391 -0.0265 -0.3445 -0.1712
 7021TIP3    H145258   5.606   0.136  11.385  2.3334  2.0783 -0.4218
 7021TIP3    H245259   5.576   0.277  11.434 -2.3811  1.3352 -0.7302
 7022TIP3   OH245260   3.155   4.760  11.230  0.2413  0.2422  0.4014
 7022TIP3    H145261   3.152   4.747  11.135 -1.3017  1.9474  0.1622
 7022TIP3    H245262   3.242   4.797  11.246  0.4680  0.0573 -0.3503
 7023TIP3   OH245263   5.379   1.956  10.444 -0.0377 -0.7778  0.2561
 7023TIP3    H145264   5.298   1.992  10.481  1.0189  2.2448 -0.1006
 7023TIP3    H245265   5.403   2.017  10.375  1.5090 -2.7479 -1.0716
 7024TIP3   OH245266   4.247   5.074  11.497 -0.1780 -0.2115  0.3338
 7024TIP3    H145267   4.280   5.097  11.584 -1.0609  0.5962  0.4643
 7024TIP3    H245268   4.195   4.995  11.511  0.6386 -0.7657  0.3305
 7025TIP3   OH245269   2.619   4.426  11.742 -0.1205  0.1248  0.6317
 7025TIP3    H145270   2.677   4.350  11.739 -0.0651  0.1909  0.0366
 7025TIP3    H245271   2.533   4.393  11.715 -0.4979 -0.0875  2.0180
 7026TIP3   OH245272   0.207   1.531  11.432  0.5109 -0.0439 -0.5775
 7026TIP3    H145273   0.157   1.449  11.423  0.5303 -0.1810  0.4964
 7026TIP3    H245274   0.298   1.503  11.427  0.5173  0.1481 -2.0365
 7027TIP3   OH245275   6.396   2.663   8.370  0.5172 -0.2230 -0.4359
 7027TIP3    H145276   6.386   2.741   8.314  0.3499  1.2690  1.5546
 7027TIP3    H245277   6.306   2.635   8.388  0.5536 -0.3685 -0.4791
 7028TIP3   OH245278   6.538   2.402  11.214  0.9706 -0.7409 -0.4935
 7028TIP3    H145279   6.524   2.310  11.195  1.1467 -0.7436 -0.6131
 7028TIP3    H245280   6.541   2.445  11.128 -1.7219 -0.2245 -0.4004
 7029TIP3   OH245281   5.869   5.671   9.134  0.4075 -0.0851  0.1186
 7029TIP3    H145282   5.958   5.657   9.101  0.1659  0.4121 -0.7635
 7029TIP3    H245283   5.870   5.631   9.221  2.0807  1.5654  0.9441
 7030TIP3   OH245284   3.270   2.493   9.384  0.3158  0.0158  0.1576
 7030TIP3    H145285   3.201   2.428   9.400  0.2527  0.2070  0.7142
 7030TIP3    H245286   3.330   2.450   9.323 -1.3710  0.6211 -2.0220
 7031TIP3   OH245287   0.614   3.894   8.718  0.0852 -0.1980 -0.4027
 7031TIP3    H145288   0.707   3.901   8.695  0.1099  0.7516 -0.0556
 7031TIP3    H245289   0.608   3.929   8.807 -0.5657 -0.4980 -0.3228
 7032TIP3   OH245290   1.152   1.291  11.892  0.1225 -0.2511 -0.2852
 7032TIP3    H145291   1.083   1.354  11.915  1.0525 -0.1675  2.7330
 7032TIP3    H245292   1.211   1.339  11.834  0.2848  1.3855  1.1547
 7033TIP3   OH245293   3.553   2.697  12.139  0.2151 -0.2594  0.5535
 7033TIP3    H145294   3.472   2.661  12.176 -0.3737  1.4571  1.0303
 7033TIP3    H245295   3.561   2.784  12.179  2.2698 -0.3650  0.4605
 7034TIP3   OH245296   2.357   5.304  11.238 -0.1279 -0.0605 -0.4305
 7034TIP3    H145297   2.272   5.264  11.221  0.3238 -0.3099 -2.3444
 7034TIP3    H245298   2.392   5.325  11.151  2.1759 -0.8269  0.2242
 7035TIP3   OH245299   4.203   5.617  10.161 -0.2368 -0.5249  0.2154
 7035TIP3    H145300   4.280   5.599  10.215 -0.8124 -0.1282  1.1990
 7035TIP3    H245301   4.180   5.532  10.123  1.2274 -0.4804 -0.8745
 7036TIP3   OH245302   6.240   2.144   8.722 -0.0036 -0.0909  0.2740
 7036TIP3    H145303   6.295   2.069   8.700  1.2097  0.1215  2.3381
 7036TIP3    H245304   6.302   2.212   8.749 -1.2036  0.8375  0.7801
 7037TIP3   OH245305   4.463   5.888  10.611  0.0709 -0.2566 -0.1544
 7037TIP3    H145306   4.405   5.961  10.631 -0.4196 -0.4044 -0.9816
 7037TIP3    H245307   4.424   5.847  10.534  1.1220 -0.5170 -0.5706
 7038TIP3   OH245308   2.102   3.436  18.588  0.4758  0.1184  0.1045
 7038TIP3    H145309   2.163   3.428  18.661 -1.0104  0.7988  1.4836
 7038TIP3    H245310   2.108   3.528  18.561  0.0993  0.1797  0.2215
 7039TIP3   OH245311   1.604   2.642   9.563 -0.2092 -0.1714 -0.2275
 7039TIP3    H145312   1.610   2.623   9.469 -2.7331 -0.2120 -0.4633
 7039TIP3    H245313   1.685   2.607   9.600 -0.7902 -3.7786 -1.8742
 7040TIP3   OH245314   2.367   1.627  10.011 -0.5125 -0.6514 -0.0060
 7040TIP3    H145315   2.449   1.664  10.042  1.2130  0.1721 -4.6764
 7040TIP3    H245316   2.386   1.534   9.997 -1.0179 -0.8650  0.6900
 7041TIP3   OH245317   2.977   0.506  10.792 -0.1983  0.5000  0.5123
 7041TIP3    H145318   2.978   0.440  10.722 -2.7139  1.9658 -1.0448
 7041TIP3    H245319   2.936   0.462  10.866 -0.5029 -0.1171 -0.0095
 7042TIP3   OH245320   0.228   5.804  11.581  0.1904  0.1617 -0.4284
 7042TIP3    H145321   0.175   5.883  11.571  0.6633  0.6477  0.6561
 7042TIP3    H245322   0.297   5.830  11.643  0.3445 -1.1010 -0.0445
 7043TIP3   OH245323   3.840   1.380  10.408 -0.5062 -0.0576  0.4476
 7043TIP3    H145324   3.782   1.318  10.365  0.6913 -0.4666 -0.6533
 7043TIP3    H245325   3.861   1.444  10.340  0.9844 -0.3971  0.5568
 7044TIP3   OH245326   3.723   3.715  11.911 -0.2008 -0.1475 -0.0427
 7044TIP3    H145327   3.714   3.654  11.985 -2.6606  0.4834  0.2597
 7044TIP3    H245328   3.710   3.801  11.950 -0.2438  0.3014 -1.0350
 7045TIP3   OH245329   0.469   3.033  10.217  0.0050  0.4571  0.2957
 7045TIP3    H145330   0.539   2.990  10.266  0.6255  1.3303  0.2160
 7045TIP3    H245331   0.395   2.972  10.220 -0.0724  0.5706  2.5547
 7046TIP3   OH245332   6.318   6.368   8.965  0.1170 -0.0005 -0.1833
 7046TIP3    H145333   6.373   6.291   8.953  0.4328  0.0917  0.6259
 7046TIP3    H245334   6.309   6.405   8.877 -0.2131 -1.0707 -0.6082
 7047TIP3   OH245335   3.057   5.390  10.097  0.5241 -0.1071 -0.3293
 7047TIP3    H145336   3.123   5.335  10.055  0.1800 -1.6657  1.0567
 7047TIP3    H245337   3.013   5.331  10.159 -1.3460  1.1947 -0.3336
 7048TIP3   OH245338   2.338   6.302  11.134  0.1655 -0.5009  0.2457
 7048TIP3    H145339   2.276   6.282  11.204  0.0631 -1.1711 -0.0339
 7048TIP3    H245340   2.382   6.382  11.164 -0.9252  0.0768  0.3905
 7049TIP3   OH245341   2.444   2.943  10.996  0.1192  0.1381 -0.2848
 7049TIP3    H145342   2.396   2.882  10.940 -0.2751  1.1213 -1.0363
 7049TIP3    H245343   2.457   2.895  11.078 -0.8629 -0.6789 -0.5907
 7050TIP3   OH245344   6.512   2.417  11.499 -0.3048 -0.1849 -0.7298
 7050TIP3    H145345   6.519   2.415  11.404  1.4376 -0.4494 -0.6253
 7050TIP3    H245346   6.524   2.510  11.522  1.9506 -0.4645 -0.6359
 7051TIP3   OH245347   4.360   0.235   9.423 -0.2762 -0.7593 -0.0327
 7051TIP3    H145348   4.374   0.322   9.461 -0.9161 -0.7401  0.1747
 7051TIP3    H245349   4.343   0.252   9.330  0.4726 -0.7395 -0.1727
 7052TIP3   OH245350   0.800   3.952  10.790 -0.0537 -0.5817  0.2431
 7052TIP3    H145351   0.738   3.940  10.718 -0.1460 -1.9854  0.5367
 7052TIP3    H245352   0.769   3.894  10.859  0.8650 -0.3456  0.8785
 7053TIP3   OH245353   2.028   5.518  12.205  0.3308 -0.7371 -0.1132
 7053TIP3    H145354   2.001   5.430  12.231  0.1408 -0.6403  0.0183
 7053TIP3    H245355   1.950   5.555  12.164 -0.1382 -0.0025  1.3918
 7054TIP3   OH245356   4.420   2.495  11.627  0.2411 -0.1024  0.0616
 7054TIP3    H145357   4.479   2.436  11.674  0.0532  0.6133  1.2199
 7054TIP3    H245358   4.381   2.550  11.695  0.8113  1.7428 -1.0206
 7055TIP3   OH245359   3.817   1.784   9.869 -0.3132 -0.1921 -0.4965
 7055TIP3    H145360   3.773   1.718   9.815  1.5878  0.0084 -2.4632
 7055TIP3    H245361   3.787   1.868   9.834  0.9001 -0.0604 -1.3032
 7056TIP3   OH245362   4.413   3.947   8.788  0.5270  0.3651  0.2458
 7056TIP3    H145363   4.503   3.955   8.757  1.1755 -0.3407  1.8140
 7056TIP3    H245364   4.405   3.855   8.812 -0.8825  0.2446 -0.5959
 7057TIP3   OH245365   5.472   4.990  10.330  0.5272  0.5178 -0.3378
 7057TIP3    H145366   5.499   4.949  10.248  0.2741 -0.6399  0.1321
 7057TIP3    H245367   5.377   4.998  10.323  0.6038  1.2849 -0.5347
 7058TIP3   OH245368   2.965   2.887   8.692 -0.4453 -0.6666  0.4854
 7058TIP3    H145369   3.050   2.929   8.689 -0.7587  0.2062  2.3486
 7058TIP3    H245370   2.983   2.795   8.709  0.1602 -0.8217 -0.9215
 7059TIP3   OH245371   2.607   3.289   9.823  0.1774 -0.1403  0.5156
 7059TIP3    H145372   2.606   3.200   9.790 -0.9134 -0.3625  1.0896
 7059TIP3    H245373   2.524   3.298   9.870  1.1811  0.5115  2.2429
 7060TIP3   OH245374   5.636   3.325  10.605  0.7900  0.3699  0.2664
 7060TIP3    H145375   5.698   3.255  10.586 -1.9856 -2.0918 -0.5763
 7060TIP3    H245376   5.689   3.395  10.642  4.1246 -1.1939 -1.1193
 7061TIP3   OH245377   3.867   1.161  12.267  0.3655  0.2689  0.0835
 7061TIP3    H145378   3.924   1.222  12.314 -0.3179  0.1186  1.1254
 7061TIP3    H245379   3.865   1.083  12.321  0.8175 -0.5130 -0.9905
 7062TIP3   OH245380   2.856   2.127   8.387 -0.1476  0.1510 -0.3740
 7062TIP3    H145381   2.768   2.158   8.367 -0.7356 -0.6593  0.8294
 7062TIP3    H245382   2.912   2.170   8.322 -1.2567  1.6154 -0.4265
 7063TIP3   OH245383   6.661   3.320   8.803 -0.0016  0.5249  0.2557
 7063TIP3    H145384   6.723   3.392   8.798  1.3728 -0.6666 -2.0743
 7063TIP3    H245385   6.700   3.259   8.866 -1.0140  1.6282  1.9980
 7064TIP3   OH245386   2.019   5.535  11.208 -0.4814 -0.3887 -0.2734
 7064TIP3    H145387   2.107   5.556  11.176 -0.7478  0.4272 -0.4978
 7064TIP3    H245388   1.979   5.620  11.227 -2.1488 -0.5390 -2.6600
 7065TIP3   OH245389   2.800   5.381   9.014 -0.0954 -0.5437 -0.6979
 7065TIP3    H145390   2.714   5.414   8.986 -0.2610  0.2372  0.6449
 7065TIP3    H245391   2.843   5.457   9.054  0.2996 -1.4711  0.7063
 7066TIP3   OH245392   2.679   3.806  11.401 -0.4798  0.3999 -0.0538
 7066TIP3    H145393   2.661   3.780  11.311 -2.7508 -1.1308  0.7360
 7066TIP3    H245394   2.731   3.734  11.437  0.8549  1.2432 -0.2414
 7067TIP3   OH245395   1.887   1.530  12.141  0.1105  0.0010  0.2591
 7067TIP3    H145396   1.805   1.523  12.188  0.8351  1.8193  1.9424
 7067TIP3    H245397   1.922   1.441  12.139 -0.5904 -0.3453  2.0046
 7068TIP3   OH245398   3.762   2.775   9.632 -0.1050 -0.3322 -0.3642
 7068TIP3    H145399   3.723   2.838   9.693 -0.7801 -0.3827 -0.7386
 7068TIP3    H245400   3.755   2.817   9.547 -0.8910 -1.0551 -0.6708
 7069TIP3   OH245401   3.929   6.555  10.853  0.3589  0.1454 -0.6191
 7069TIP3    H145402   3.970   6.485  10.904 -0.8516 -1.9421 -2.3693
 7069TIP3    H245403   3.878   6.605  10.917  1.5995 -0.2778  0.7444
 7070TIP3   OH245404   1.957   4.930  10.355 -0.1727 -0.0359 -0.0490
 7070TIP3    H145405   2.018   4.939  10.282  0.9045  1.8993  1.0009
 7070TIP3    H245406   1.884   4.988  10.333 -0.2111 -0.0455  0.0525
 7071TIP3   OH245407   1.887   2.323   8.964  0.2498 -0.2616  0.2722
 7071TIP3    H145408   1.827   2.396   8.947  2.5857  1.6749 -0.1388
 7071TIP3    H245409   1.870   2.299   9.055 -0.8477  0.5264  0.2970
 7072TIP3   OH245410   4.196   3.801   8.641 -0.2633  0.1071 -0.2479
 7072TIP3    H145411   4.172   3.883   8.599  0.2439  1.1456  1.4161
 7072TIP3    H245412   4.292   3.797   8.634 -0.4125 -1.3426 -2.0576
 7073TIP3   OH245413   0.479   2.864  10.695 -0.2957  0.7383 -0.7265
 7073TIP3    H145414   0.536   2.886  10.621 -1.3239  0.6225 -1.5849
 7073TIP3    H245415   0.486   2.768  10.703 -0.7872  0.6588 -1.1961
 7074TIP3   OH245416   4.086   1.528  11.225 -0.3128 -0.4429 -0.1893
 7074TIP3    H145417   4.025   1.563  11.290  1.0936  2.1786 -0.1414
 7074TIP3    H245418   4.125   1.605  11.184  1.2564 -2.0109 -1.8590
 7075TIP3   OH245419   5.670   1.875  10.196  0.5192 -0.7820  0.1342
 7075TIP3    H145420   5.713   1.959  10.179 -1.0442  0.2367  0.9817
 7075TIP3    H245421   5.719   1.837  10.269  0.7936 -0.2564  0.2276
 7076TIP3   OH245422   4.606   0.901   9.766  0.1232  0.0878 -0.4466
 7076TIP3    H145423   4.648   0.945   9.840 -0.3267  2.3460 -1.4441
 7076TIP3    H245424   4.557   0.970   9.722 -1.4447 -1.6507 -1.5910
 7077TIP3   OH245425   0.720   0.867   9.276 -0.0098  0.0072  0.0187
 7077TIP3    H145426   0.802   0.874   9.326  0.0071 -0.6316  0.0945
 7077TIP3    H245427   0.686   0.956   9.273 -0.5289 -0.0740  2.0592
 7078TIP3   OH245428   4.551   5.022  10.332 -0.1779  0.8338 -0.4734
 7078TIP3    H145429   4.594   5.068  10.259  1.1117  0.1085 -0.2048
 7078TIP3    H245430   4.590   5.059  10.410 -0.3078  0.4119 -0.2038
 7079TIP3   OH245431   1.320   4.447  12.112 -0.0472  0.0208  0.2508
 7079TIP3    H145432   1.369   4.497  12.177 -2.0509  1.0332  1.1051
 7079TIP3    H245433   1.377   4.375  12.087  2.3397  1.8271  0.1692
 7080TIP3   OH245434   5.060   5.576   9.162  0.1005  0.3684  0.4563
 7080TIP3    H145435   5.150   5.544   9.159  0.9469  2.4780  1.3852
 7080TIP3    H245436   5.057   5.647   9.099 -0.4468  1.3162  1.5051
 7081TIP3   OH245437   3.220   3.754   8.521 -0.1128  0.1339  0.2891
 7081TIP3    H145438   3.128   3.750   8.493 -0.7110 -2.0603  2.3112
 7081TIP3    H245439   3.217   3.800   8.605  0.2306 -2.0123  1.5489
 7082TIP3   OH245440   6.601   3.604   9.518  0.2265 -0.3024 -0.2010
 7082TIP3    H145441   6.676   3.651   9.480  1.1500 -1.0990  0.5743
 7082TIP3    H245442   6.538   3.673   9.540  1.2685  0.5231  0.2880
 7083TIP3   OH245443   5.374   6.499  11.294 -0.0338 -0.1711  0.3551
 7083TIP3    H145444   5.346   6.408  11.287 -0.2924 -0.2106  1.6863
 7083TIP3    H245445   5.448   6.497  11.355  0.1623  0.4771  0.1475
 7084TIP3   OH245446   1.225   1.217   8.773 -0.5103 -0.5220 -0.2015
 7084TIP3    H145447   1.188   1.293   8.818  0.3103 -1.3630  2.0232
 7084TIP3    H245448   1.150   1.172   8.735 -1.0856  0.9444 -0.8661
 7085TIP3   OH245449   4.943   1.889   9.391  0.2728 -0.0149  0.4639
 7085TIP3    H145450   4.875   1.836   9.351  0.7487 -0.6430  0.4726
 7085TIP3    H245451   4.948   1.967   9.336 -1.5308  0.8028  1.3509
 7086TIP3   OH245452   3.874   5.203  10.259 -0.2174 -0.4773  0.0034
 7086TIP3    H145453   3.939   5.228  10.325  1.5081 -2.3226 -0.8789
 7086TIP3    H245454   3.830   5.127  10.296  0.0795 -0.9261 -0.5618
 7087TIP3   OH245455   5.128   5.351  10.590  0.3750 -0.0151  0.0180
 7087TIP3    H145456   5.107   5.356  10.684  0.0529  0.8809 -0.0878
 7087TIP3    H245457   5.203   5.292  10.585  1.5252  1.2906  1.0446
 7088TIP3   OH245458   5.489   0.006  10.390 -0.0136 -0.1659  0.5012
 7088TIP3    H145459   5.454  -0.029  10.472  3.1827  1.4312  2.7491
 7088TIP3    H245460   5.459   0.096  10.388  0.3358 -0.0554  0.1727
 7089TIP3   OH245461   0.078   6.522   9.887 -0.5013  0.1033 -0.2738
 7089TIP3    H145462  -0.010   6.540   9.920 -0.6753 -0.0171 -0.6698
 7089TIP3    H245463   0.124   6.482   9.961 -0.7795  0.1650 -0.0675
 7090TIP3   OH245464   2.257   2.240   9.571  0.0185  0.0128  0.3231
 7090TIP3    H145465   2.213   2.155   9.584 -0.6483  0.1662 -0.8146
 7090TIP3    H245466   2.340   2.217   9.529  0.2299 -0.1381  0.8162
 7091TIP3   OH245467   0.702   0.190   8.535 -0.7072  0.3776 -0.1230
 7091TIP3    H145468   0.781   0.230   8.572 -0.7497  1.8132 -1.4620
 7091TIP3    H245469   0.726   0.099   8.521 -0.5409 -0.1518  2.8750
 7092TIP3   OH245470   4.423   1.097   9.713  0.0118 -0.7446  0.0791
 7092TIP3    H145471   4.338   1.053   9.710 -0.1440 -0.5162  0.8931
 7092TIP3    H245472   4.413   1.174   9.656 -0.3841 -0.6288  0.3017
 7093TIP3   OH245473   6.562   5.164  10.870  0.4905 -0.4026 -0.3622
 7093TIP3    H145474   6.579   5.096  10.805  0.7226 -0.7046  0.0055
 7093TIP3    H245475   6.481   5.206  10.841  0.4566 -0.7037 -0.7045
 7094TIP3   OH245476   3.482   2.631  10.119  0.1038  0.1656  0.0169
 7094TIP3    H145477   3.545   2.563  10.098 -0.3317 -0.8422  1.7375
 7094TIP3    H245478   3.535   2.706  10.145  0.6930 -1.0531  2.6231
 7095TIP3   OH245479   4.415   5.439  10.748  0.3683  0.4566 -0.2450
 7095TIP3    H145480   4.378   5.506  10.806 -0.0242 -0.1518  0.2116
 7095TIP3    H245481   4.444   5.488  10.671  1.2351  1.3269  0.6112
 7096TIP3   OH245482   6.267   2.948   8.588  0.0702 -0.1954  0.2671
 7096TIP3    H145483   6.331   3.018   8.583 -0.3881  0.1732 -0.6249
 7096TIP3    H245484   6.187   2.985   8.550 -0.8400 -0.4695  1.8148
 7097TIP3   OH245485   5.511   0.503   9.080 -0.1738 -0.4346  0.0821
 7097TIP3    H145486   5.452   0.512   9.154 -0.1659 -0.3697  0.0804
 7097TIP3    H245487   5.583   0.448   9.112  0.1742  0.1523  0.3258
 7098TIP3   OH245488   2.197   1.365  10.852  0.1391 -0.4632  0.5960
 7098TIP3    H145489   2.140   1.333  10.922 -0.4286 -1.2756 -0.2153
 7098TIP3    H245490   2.139   1.413  10.794  0.2508 -1.3117 -0.2497
 7099TIP3   OH245491   4.550   1.569  10.844  0.1035  0.0513  0.3070
 7099TIP3    H145492   4.618   1.522  10.796  1.6216 -1.0005  3.2191
 7099TIP3    H245493   4.580   1.660  10.844 -0.5594  0.3132 -1.6458
 7100TIP3   OH245494   1.920   1.946   9.009 -0.1132  0.3590 -0.3549
 7100TIP3    H145495   1.835   1.925   8.972 -0.4362  1.6516 -0.3993
 7100TIP3    H245496   1.966   1.994   8.939  0.4145  0.2213 -0.1118
 7101TIP3   OH245497   0.687   0.325   9.639 -0.6081  0.2072 -0.6011
 7101TIP3    H145498   0.625   0.276   9.585  0.1483 -0.8985 -0.4896
 7101TIP3    H245499   0.720   0.261   9.702 -2.1485  1.6416  1.8245
 7102TIP3   OH245500   3.214   4.284  10.426  0.1766 -0.3990  0.0661
 7102TIP3    H145501   3.226   4.189  10.422 -2.8575 -0.8978 -0.0021
 7102TIP3    H245502   3.158   4.305  10.351  1.3294  1.5910 -0.3173
 7103TIP3   OH245503   4.199   4.322   8.484  0.6302 -0.3105  0.0748
 7103TIP3    H145504   4.294   4.320   8.496  0.4947  0.9983  1.8984
 7103TIP3    H245505   4.177   4.415   8.485 -0.5831 -0.5529 -1.3541
 7104TIP3   OH245506   3.511   3.451  10.646  0.3908  0.0994  0.2809
 7104TIP3    H145507   3.443   3.384  10.643 -0.6332  1.1340 -1.0451
 7104TIP3    H245508   3.559   3.433  10.727  0.6055 -2.6273 -0.3729
 7105TIP3   OH245509   2.521   5.099  10.449 -0.8854  0.4543  0.0525
 7105TIP3    H145510   2.532   5.109  10.544 -2.4736  0.7423  0.2232
 7105TIP3    H245511   2.580   5.164  10.412  0.7837 -0.5757  0.7854
 7106TIP3   OH245512   5.452   6.669   9.271  0.2831 -0.2473  0.0539
 7106TIP3    H145513   5.474   6.586   9.228 -1.4226 -1.0499  0.6229
 7106TIP3    H245514   5.368   6.695   9.231  0.5161  0.9099  0.2945
 7107TIP3   OH245515   1.991   2.024  11.296 -0.0888  0.9450  0.1745
 7107TIP3    H145516   1.977   1.935  11.264 -1.9631  1.2635 -0.0137
 7107TIP3    H245517   2.081   2.024  11.329  0.5658 -0.4980 -1.4658
 7108TIP3   OH245518   1.800   2.176  10.770 -0.3290 -0.2021  0.1624
 7108TIP3    H145519   1.761   2.253  10.727  1.0014  1.2244  1.3709
 7108TIP3    H245520   1.728   2.136  10.817 -0.7735  1.2649  0.8038
 7109TIP3   OH245521   3.749   2.887  10.430 -0.4563  0.1714 -0.0909
 7109TIP3    H145522   3.685   2.958  10.431 -2.4408 -1.5170 -0.5355
 7109TIP3    H245523   3.748   2.853  10.519 -0.3322  0.0189 -0.1481
 7110TIP3   OH245524   5.640   5.890   9.615 -0.0982  0.0018 -0.7311
 7110TIP3    H145525   5.667   5.822   9.677  0.6832 -0.8204 -1.9381
 7110TIP3    H245526   5.545   5.881   9.609 -0.0308 -0.7934 -0.6608
 7111TIP3   OH245527   3.416   5.422   9.437 -0.0774 -0.5463  0.6441
 7111TIP3    H145528   3.382   5.348   9.387  0.8145 -0.6861  0.2212
 7111TIP3    H245529   3.372   5.499   9.400  1.8935 -0.4075 -1.6994
 7112TIP3   OH245530   5.054   1.938  10.847  0.1707  0.1547  0.4653
 7112TIP3    H145531   5.085   1.848  10.836 -0.5659 -0.4248  2.7190
 7112TIP3    H245532   5.114   1.976  10.911  0.4161  1.2717 -0.3952
 7113TIP3   OH245533   4.701   2.072   9.571 -0.1076 -0.2046 -0.2465
 7113TIP3    H145534   4.726   1.980   9.560 -2.7935 -0.9512 -0.8702
 7113TIP3    H245535   4.634   2.087   9.505 -0.1472  2.0650  0.2191
 7114TIP3   OH245536   1.774   2.147  11.147 -0.0894  0.6108 -0.4327
 7114TIP3    H145537   1.861   2.127  11.182  0.5593 -0.0175 -2.2933
 7114TIP3    H245538   1.732   2.200  11.215  2.2666  2.1322 -0.0829
 7115TIP3   OH245539   5.019   0.888   9.798  0.5562  0.0191 -0.1412
 7115TIP3    H145540   5.055   0.976   9.807 -1.6842  0.8534  1.5215
 7115TIP3    H245541   5.003   0.859   9.888  0.8423 -1.9390 -0.6749
 7116TIP3   OH245542   0.257   3.383  10.466 -0.8265 -0.2372  0.3754
 7116TIP3    H145543   0.307   3.348  10.393  2.6856 -1.2570  2.9518
 7116TIP3    H245544   0.173   3.338  10.462  0.2704 -2.3171 -1.4918
 7117TIP3   OH245545   3.044   2.405  10.737 -0.3740 -0.4859 -0.1747
 7117TIP3    H145546   2.968   2.436  10.687  1.6337  1.0554 -2.5228
 7117TIP3    H245547   3.072   2.326  10.691 -0.3444 -0.8740  0.5005
 7118TIP3   OH245548   3.981   0.580   9.076  0.1687 -0.6898 -0.2280
 7118TIP3    H145549   3.932   0.660   9.094  0.0359 -0.9223  0.4919
 7118TIP3    H245550   4.011   0.550   9.162  2.7654  0.1689 -0.7539
 7119TIP3   OH245551   1.074   6.611   9.003 -0.2140 -0.1018 -0.1516
 7119TIP3    H145552   1.022   6.678   8.959 -1.1418 -2.2001 -2.5296
 7119TIP3    H245553   1.011   6.544   9.030  0.6290  0.0558  2.4965
 7120TIP3   OH245554   5.422   5.084  11.035  0.0926  0.1554 -0.0732
 7120TIP3    H145555   5.457   5.056  10.950  0.2634 -2.0463  0.6513
 7120TIP3    H245556   5.500   5.107  11.086 -0.0179  1.6029 -0.5121
 7121TIP3   OH245557   5.497   4.788  10.093 -0.3226 -0.2376 -0.1684
 7121TIP3    H145558   5.453   4.704  10.083  0.4143 -0.6350 -0.1553
 7121TIP3    H245559   5.585   4.766  10.124 -0.4073  0.5866  0.7363
 7122TIP3   OH245560   1.333   3.191  10.892 -0.1051  0.2943  0.1879
 7122TIP3    H145561   1.242   3.220  10.896 -0.9928 -2.4368  2.3105
 7122TIP3    H245562   1.332   3.118  10.830  0.9294  0.9593 -0.6530
 7123TIP3   OH245563   0.265   3.712   8.664  0.5014  0.5809 -0.2803
 7123TIP3    H145564   0.282   3.788   8.608 -0.2773 -0.3458 -1.8373
 7123TIP3    H245565   0.211   3.654   8.611  0.7827 -0.9286  0.9903
 7124TIP3   OH245566   3.597   2.093  10.490  0.5062  0.0924  0.4800
 7124TIP3    H145567   3.545   2.089  10.409  1.1345 -1.8779  0.1133
 7124TIP3    H245568   3.533   2.080  10.560  0.0149  1.4105  0.3196
 7125TIP3   OH245569   3.534   3.451  11.735 -0.1838  0.1072  0.6605
 7125TIP3    H145570   3.497   3.447  11.824 -0.1824 -0.0617  0.6547
 7125TIP3    H245571   3.626   3.427  11.747  0.2312  1.7169  0.8472
 7126TIP3   OH245572   3.243   4.724  10.181 -0.2299  0.3412  0.7111
 7126TIP3    H145573   3.241   4.688  10.270 -0.4396  0.4763  0.7621
 7126TIP3    H245574   3.239   4.646  10.124  0.0283  0.2488  0.8177
 7127TIP3   OH245575   4.960   4.217  11.102  0.0726 -0.0094  0.6982
 7127TIP3    H145576   4.920   4.248  11.183 -0.7163 -2.1193  1.1849
 7127TIP3    H245577   4.885   4.195  11.046  0.6018  1.5722 -0.7176
 7128TIP3   OH245578   1.455   0.727   9.927 -0.2615  0.0534 -0.3077
 7128TIP3    H145579   1.362   0.708   9.915 -0.0650 -1.2397  0.1362
 7128TIP3    H245580   1.491   0.728   9.838 -0.1926 -2.2345 -0.3489
 7129TIP3   OH245581   1.853   0.787   9.737  0.1240 -0.0253 -0.3779
 7129TIP3    H145582   1.909   0.818   9.808 -0.3158  1.4218 -0.6141
 7129TIP3    H245583   1.813   0.707   9.770 -0.6440  1.0133  1.3139
 7130TIP3   OH245584   5.495   5.244  10.061  0.4639  0.4783 -0.2900
 7130TIP3    H145585   5.475   5.266  10.151  0.5408 -1.1200  0.1436
 7130TIP3    H245586   5.576   5.193  10.066  0.8004  0.8707 -1.3284
 7131TIP3   OH245587   6.504   3.235  10.613 -0.0339  0.0135 -0.1133
 7131TIP3    H145588   6.418   3.258  10.648 -1.4673 -3.9798 -0.5037
 7131TIP3    H245589   6.549   3.191  10.685 -0.3658 -2.3023 -1.2261
 7132TIP3   OH245590   3.067   4.120  10.162  1.1520  0.1146 -0.3699
 7132TIP3    H145591   3.018   4.038  10.160  1.6096 -0.1932  0.3048
 7132TIP3    H245592   3.120   4.114  10.242  2.8774  0.0678 -1.4508
 7133TIP3   OH245593   2.532   1.476  11.454  0.2043 -0.2029 -0.2105
 7133TIP3    H145594   2.518   1.408  11.520  1.4223 -0.5426 -0.2742
 7133TIP3    H245595   2.561   1.552  11.503  1.7974 -0.6674 -0.3805
 7134TIP3   OH245596   0.806   1.662   9.126  0.5105  0.1335 -0.3661
 7134TIP3    H145597   0.753   1.618   9.193 -1.3628  2.6558 -0.0220
 7134TIP3    H245598   0.896   1.638   9.147 -0.2716 -2.0945  0.7750
 7135TIP3   OH245599   4.075   1.324  12.314  0.3692  0.4872 -0.0084
 7135TIP3    H145600   4.045   1.414  12.314  0.8450  0.7118  2.3741
 7135TIP3    H245601   4.154   1.324  12.259 -0.5442  1.1211 -1.3762
 7136TIP3   OH245602   1.304   6.271  10.877 -0.3667  0.2672 -0.6240
 7136TIP3    H145603   1.321   6.342  10.939  0.6190 -1.1469  0.8234
 7136TIP3    H245604   1.209   6.258  10.881 -0.1762 -0.9844  2.0825
 7137TIP3   OH245605   2.078   2.159   8.871  0.3814 -0.0772 -0.2415
 7137TIP3    H145606   2.164   2.182   8.906 -0.6142 -0.4099  2.6260
 7137TIP3    H245607   2.021   2.230   8.900 -0.3604  0.1550 -2.1353
 7138TIP3   OH245608   4.411   4.783  11.230  0.2553  0.0410  0.4203
 7138TIP3    H145609   4.390   4.870  11.194  0.5707  1.1163  2.6653
 7138TIP3    H245610   4.343   4.767  11.295 -0.6005 -2.0819 -0.9057
 7139TIP3   OH245611   1.048   6.204   9.764 -0.6790  0.0414 -0.0314
 7139TIP3    H145612   1.138   6.182   9.737 -0.7960 -1.1586  0.5039
 7139TIP3    H245613   1.058   6.281   9.821 -0.0134  0.0587 -0.1649
 7140TIP3   OH245614   6.661   1.453  10.036  0.1918 -0.5111 -0.4457
 7140TIP3    H145615   6.734   1.403  10.072 -1.9182 -1.9206  2.2894
 7140TIP3    H245616   6.688   1.544  10.043  0.8054 -0.8025  3.0511
 7141TIP3   OH245617   2.059   3.297   9.826 -0.2919  0.6711  0.1984
 7141TIP3    H145618   2.111   3.247   9.889 -0.1738 -0.0221 -0.4361
 7141TIP3    H245619   1.996   3.235   9.791 -0.2748  1.0073 -0.4579
 7142TIP3   OH245620   2.175   5.620  11.977  0.2462 -0.1699  0.1386
 7142TIP3    H145621   2.121   5.561  12.031  0.3926  0.9219  1.5337
 7142TIP3    H245622   2.262   5.616  12.018  1.1428 -1.4822 -1.7575
 7143TIP3   OH245623   1.533   3.969   8.826  0.2504  0.5395  0.1224
 7143TIP3    H145624   1.525   3.877   8.851  1.0271  0.0957 -1.1505
 7143TIP3    H245625   1.564   4.013   8.905  0.5490 -0.4124  0.5490
 7144TIP3   OH245626   6.432   5.274  10.595 -0.4291 -0.6398  0.6170
 7144TIP3    H145627   6.518   5.313  10.579 -0.3161 -1.3304 -0.5942
 7144TIP3    H245628   6.383   5.291  10.515 -1.2288 -0.7706  1.0714
 7145TIP3   OH245629   3.380   2.592   9.704  0.0681  0.5985  0.0436
 7145TIP3    H145630   3.292   2.628   9.689 -1.2593 -2.2523  0.2577
 7145TIP3    H245631   3.393   2.531   9.632  0.7800 -0.8427  1.3324
 7146TIP3   OH245632   1.510   5.452   9.679 -0.3375 -0.2691 -0.1639
 7146TIP3    H145633   1.602   5.476   9.665 -0.7181  1.4390 -0.0672
 7146TIP3    H245634   1.470   5.463   9.592 -0.5428 -0.4838 -0.0944
 7147TIP3   OH245635   3.145   1.858  10.990  0.4293 -0.0202 -0.4860
 7147TIP3    H145636   3.058   1.898  10.989 -0.1911 -1.3130 -1.3166
 7147TIP3    H245637   3.181   1.881  11.075 -1.1480 -0.2948  0.3026
 7148TIP3   OH245638   5.923   1.557  10.337 -0.6901 -0.0601 -0.7366
 7148TIP3    H145639   5.875   1.634  10.368 -1.8471 -1.1959  0.3830
 7148TIP3    H245640   5.955   1.583  10.250  0.2477  2.1990  0.2116
 7149TIP3   OH245641   4.164   2.734  10.957  0.4369  0.2377  0.5248
 7149TIP3    H145642   4.087   2.751  10.904  0.7407 -0.1493 -0.0486
 7149TIP3    H245643   4.214   2.815  10.954  0.5273  0.1691  0.0857
 7150TIP3   OH245644   0.231   0.652  11.443 -0.5017  0.3987 -0.7621
 7150TIP3    H145645   0.217   0.558  11.426 -0.3941  0.4740 -1.2727
 7150TIP3    H245646   0.322   0.657  11.474 -0.7721  0.2322  0.1083
 7151TIP3   OH245647   6.355   0.987  11.786 -0.4153  0.3639 -0.2689
 7151TIP3    H145648   6.357   0.920  11.717 -0.0062  0.1718 -0.0763
 7151TIP3    H245649   6.293   0.953  11.850 -0.6246  0.4341 -0.4324
 7152TIP3   OH245650   3.508   6.053   9.019 -0.0409 -0.4082 -0.2398
 7152TIP3    H145651   3.584   5.998   9.037 -0.2633 -1.0816 -1.2658
 7152TIP3    H245652   3.444   5.994   8.978 -0.2212  0.6200 -1.5223
 7153TIP3   OH245653   3.108   2.347   8.318  0.0316 -0.0327 -0.2679
 7153TIP3    H145654   3.114   2.414   8.386  1.9781 -1.1074  0.7043
 7153TIP3    H245655   3.165   2.380   8.247  0.7881 -0.5109  0.1060
 7154TIP3   OH245656   3.792   5.937   8.979 -0.3476  0.6117 -0.2410
 7154TIP3    H145657   3.812   5.956   8.888 -0.1136 -0.0439 -0.3320
 7154TIP3    H245658   3.771   5.844   8.980  1.5747  0.1325  0.6841
 7155TIP3   OH245659   0.942   5.526   8.690  0.3523 -0.5376  0.5148
 7155TIP3    H145660   0.938   5.487   8.777 -0.1719 -0.4618  0.5283
 7155TIP3    H245661   0.866   5.490   8.644  1.8780 -2.3824 -0.6874
 7156TIP3   OH245662   4.415   3.565   8.419 -0.4406  0.0405  0.1647
 7156TIP3    H145663   4.443   3.650   8.454  1.7865  0.1184 -1.5892
 7156TIP3    H245664   4.371   3.587   8.337  3.1453 -0.4961 -2.1161
 7157TIP3   OH245665   1.257   4.946  10.325 -0.1476 -0.6841 -0.0030
 7157TIP3    H145666   1.292   4.994  10.250  0.1527 -0.3436  0.3473
 7157TIP3    H245667   1.168   4.979  10.335 -0.0291 -0.3824  0.0776
 7158TIP3   OH245668   2.495   2.378   8.747  0.0588 -0.5022  0.0003
 7158TIP3    H145669   2.534   2.343   8.827 -0.4196  0.3313  0.6031
 7158TIP3    H245670   2.537   2.463   8.735 -1.2702  0.2439  0.4483
 7159TIP3   OH245671   0.296   4.447   9.049 -0.4152  0.1363 -0.1189
 7159TIP3    H145672   0.375   4.502   9.046 -0.1383  0.0124  2.6249
 7159TIP3    H245673   0.224   4.509   9.058 -0.2286  0.1399  1.5434
 7160TIP3   OH245674   5.375   1.423   9.187 -0.5031  0.7092  0.0528
 7160TIP3    H145675   5.391   1.338   9.228  0.3509  0.0476 -1.5694
 7160TIP3    H245676   5.417   1.486   9.245  1.2124 -0.2495 -0.1048
 7161TIP3   OH245677   1.716   5.367   9.031 -0.1851  0.4009  0.5255
 7161TIP3    H145678   1.642   5.417   9.066 -0.7717  0.6787 -1.0262
 7161TIP3    H245679   1.675   5.289   8.993  0.5371 -0.3708  1.2835
 7162TIP3   OH245680   0.531   3.032   9.942  0.2207 -0.5506  0.6060
 7162TIP3    H145681   0.544   3.017  10.036 -1.0115 -0.7275  0.7590
 7162TIP3    H245682   0.436   3.037   9.931  0.3691  1.9975 -0.2523
 7163TIP3   OH245683   0.983   3.184  10.020 -0.2216 -0.5000  0.0132
 7163TIP3    H145684   1.007   3.255  10.080  0.5739 -1.0673  0.3767
 7163TIP3    H245685   0.893   3.204   9.994  0.1472  0.9092 -0.2658
 7164TIP3   OH245686   4.049   3.396  11.277 -0.5932 -0.2794  0.7279
 7164TIP3    H145687   4.129   3.376  11.229 -0.8405  1.3665 -0.4546
 7164TIP3    H245688   4.072   3.470  11.334 -1.0394 -0.3515  1.0097
 7165TIP3   OH245689   2.712   5.855  10.211 -0.4066 -0.0839  0.1340
 7165TIP3    H145690   2.674   5.818  10.132 -0.8732  0.3204  0.1657
 7165TIP3    H245691   2.648   5.837  10.280 -0.3579  0.2336  0.2679
 7166TIP3   OH245692   2.417   5.764   8.931 -0.1828  0.3588 -0.0886
 7166TIP3    H145693   2.360   5.834   8.898  0.5855  1.3744  0.6347
 7166TIP3    H245694   2.500   5.809   8.949  0.5550 -0.9018 -0.2630
 7167TIP3   OH245695   3.421   5.028   8.742  0.7660 -0.3446 -0.1852
 7167TIP3    H145696   3.404   5.096   8.807 -2.2324  0.5933 -1.7742
 7167TIP3    H245697   3.352   4.963   8.757  2.4802 -2.2021  0.1149
 7168TIP3   OH245698   4.376   4.060  11.137 -0.3722 -0.6223  0.1580
 7168TIP3    H145699   4.458   4.087  11.178 -0.0064 -2.8450  1.0334
 7168TIP3    H245700   4.352   4.133  11.080 -0.8987  2.7528  4.2052
 7169TIP3   OH245701   3.624   4.656  11.157  0.6110 -0.4436 -0.2129
 7169TIP3    H145702   3.702   4.683  11.205  1.1749 -1.9962 -0.2016
 7169TIP3    H245703   3.654   4.648  11.066  0.2451 -0.1883 -0.3554
 7170TIP3   OH245704   4.926   5.927  10.229 -0.3039  0.3400 -0.2460
 7170TIP3    H145705   4.997   5.864  10.219 -1.4048 -1.0987  0.6780
 7170TIP3    H245706   4.967   6.004  10.268  0.7241 -0.5348  0.4325
 7171TIP3   OH245707   3.990   3.728  11.133 -0.1790  0.1336  0.5383
 7171TIP3    H145708   4.074   3.728  11.178 -0.5806 -0.8925  1.3341
 7171TIP3    H245709   3.988   3.810  11.085  1.2323  0.2168  0.5930
 7172TIP3   OH245710   5.130   0.335  11.167  0.3665 -0.1598  0.0915
 7172TIP3    H145711   5.202   0.289  11.211  0.2392 -0.3551  0.0976
 7172TIP3    H245712   5.147   0.428  11.183 -0.1604 -0.2633  1.2982
 7173TIP3   OH245713   2.116   5.929  10.139 -0.0128  0.6350  0.2366
 7173TIP3    H145714   2.103   5.860  10.075  2.4063  0.5880 -0.3045
 7173TIP3    H245715   2.039   5.924  10.196  0.2103 -2.7066  0.4199
 7174TIP3   OH245716   4.689   1.717  11.356  0.3350 -0.3227 -0.5198
 7174TIP3    H145717   4.746   1.644  11.380 -0.2578 -0.8237 -0.6086
 7174TIP3    H245718   4.691   1.775  11.432 -0.1778 -1.0578  0.0629
 7175TIP3   OH245719   1.382   1.294  10.459 -0.5246  0.1809 -0.6552
 7175TIP3    H145720   1.391   1.377  10.506  0.6229 -1.5947  2.5681
 7175TIP3    H245721   1.445   1.300  10.388  1.3366  1.2138  0.9751
 7176TIP3   OH245722   0.631   5.948  10.198  0.0799 -0.0755 -0.2425
 7176TIP3    H145723   0.579   6.029  10.194 -1.2086 -0.8742 -0.2972
 7176TIP3    H245724   0.653   5.929  10.107 -1.1491 -0.7220 -0.4218
 7177TIP3   OH245725   6.191   1.180  12.192 -0.1798  0.4114 -0.0451
 7177TIP3    H145726   6.256   1.249  12.210 -0.2104 -0.4116  4.4119
 7177TIP3    H245727   6.110   1.214  12.230 -0.1928 -1.8945  2.2416
 7178TIP3   OH245728   3.120   4.048   9.074  0.8079 -0.5951 -0.0387
 7178TIP3    H145729   3.187   4.027   9.139  1.4750  0.0659 -0.5054
 7178TIP3    H245730   3.095   3.963   9.038  0.0455 -1.0335  1.4285
 7179TIP3   OH245731   2.154   2.593  10.443 -0.4282  0.6539 -0.4968
 7179TIP3    H145732   2.206   2.543  10.505 -1.1304 -0.3456 -0.6811
 7179TIP3    H245733   2.106   2.527  10.392 -2.3786  1.5105  0.0994
 7180TIP3   OH245734   0.499   5.003   9.543 -0.5246 -0.0174 -0.1479
 7180TIP3    H145735   0.540   5.020   9.458  0.1545 -1.0072 -0.0325
 7180TIP3    H245736   0.555   5.047   9.606 -0.4236 -0.1921 -0.1158
 7181TIP3   OH245737   4.746   5.239   8.605 -0.3529 -0.4087 -0.0366
 7181TIP3    H145738   4.782   5.299   8.539 -0.3384 -0.2480  0.1154
 7181TIP3    H245739   4.822   5.196   8.642 -0.3290 -0.2079  0.1517
 7182TIP3   OH245740   3.088   1.099  10.519 -0.3308 -0.2680  0.5358
 7182TIP3    H145741   3.028   1.052  10.577 -0.2856 -0.2242  0.6176
 7182TIP3    H245742   3.035   1.118  10.441 -0.7114  0.5854  0.9800
 7183TIP3   OH245743   6.489   4.017   8.279  0.2894 -0.1267  0.2847
 7183TIP3    H145744   6.565   4.024   8.222 -0.5087  0.3119 -0.7451
 7183TIP3    H245745   6.523   4.035   8.367  1.3481  0.1629 -0.1794
 7184TIP3   OH245746   6.580   3.490  10.505 -0.2830  0.1623 -0.3977
 7184TIP3    H145747   6.584   3.412  10.560  1.0751 -0.2780 -1.0888
 7184TIP3    H245748   6.649   3.547  10.538 -1.5865  1.3221  0.4262
 7185TIP3   OH245749   3.231   6.169   9.097 -0.1299 -0.0494  0.4415
 7185TIP3    H145750   3.229   6.084   9.142  0.7546 -0.0991  0.4215
 7185TIP3    H245751   3.223   6.147   9.004 -0.8902 -0.0280  0.4959
 7186TIP3   OH245752   6.424   6.566  11.204 -0.6310 -0.3289  0.1785
 7186TIP3    H145753   6.509   6.584  11.165 -1.3012  0.8336 -0.8079
 7186TIP3    H245754   6.435   6.482  11.249  1.0034 -0.2152  0.0260
 7187TIP3   OH245755   2.069   1.452   9.975 -0.2515 -0.3690  0.8577
 7187TIP3    H145756   2.059   1.534   9.926  1.4370 -1.3419 -1.3214
 7187TIP3    H245757   2.154   1.417   9.946 -1.7580 -3.8721  0.0930
 7188TIP3   OH245758   5.990   3.758  11.279  0.8563 -0.3178  0.4921
 7188TIP3    H145759   5.931   3.735  11.351  0.3064 -2.3381 -0.5115
 7188TIP3    H245760   6.059   3.690  11.282  1.1750 -0.0549 -0.4777
 7189TIP3   OH245761   6.438   2.026  10.862  0.5334  0.0227 -0.4095
 7189TIP3    H145762   6.392   1.942  10.861 -0.4551  0.5611 -1.5580
 7189TIP3    H245763   6.457   2.045  10.770 -1.4114  2.1913 -0.4394
 7190TIP3   OH245764   3.613   3.242   8.401  0.2056  0.2351 -0.2104
 7190TIP3    H145765   3.591   3.174   8.465  1.1772  1.6738  1.7746
 7190TIP3    H245766   3.708   3.239   8.393  0.1889  0.7935 -0.7403
 7191TIP3   OH245767   0.301   4.768   8.682 -0.0176 -0.6460 -0.7707
 7191TIP3    H145768   0.295   4.839   8.619  0.8897 -0.1274 -0.2856
 7191TIP3    H245769   0.385   4.726   8.664 -0.7679 -1.9649 -1.4075
 7192TIP3   OH245770   3.527   5.102   8.384 -0.2186  0.2657 -0.1095
 7192TIP3    H145771   3.558   5.106   8.294  3.4744  1.1826  1.0225
 7192TIP3    H245772   3.600   5.065   8.433 -3.4883 -4.2758  2.1045
 7193TIP3   OH245773   2.558   1.412  10.109 -0.4067 -0.0047 -0.3867
 7193TIP3    H145774   2.533   1.441  10.197  1.6352  1.6125 -0.2756
 7193TIP3    H245775   2.549   1.317  10.113  1.2960 -0.1755  2.1944
 7194TIP3   OH245776   3.858   4.871  10.596 -0.2190 -0.2393  0.3171
 7194TIP3    H145777   3.830   4.961  10.614  0.2009 -0.4874  2.5814
 7194TIP3    H245778   3.952   4.879  10.579 -0.2005 -0.2274  0.4212
 7195TIP3   OH245779   3.278   1.911  11.217 -0.0892  1.0730 -0.7317
 7195TIP3    H145780   3.292   2.006  11.213 -3.6606  1.8804  1.5380
 7195TIP3    H245781   3.345   1.879  11.277  0.4295  2.3333 -0.6058
 7196TIP3   OH245782   4.762   4.527   9.434  0.2957  0.1601 -0.4260
 7196TIP3    H145783   4.753   4.447   9.486 -0.1455 -0.0755 -0.8583
 7196TIP3    H245784   4.770   4.597   9.499 -1.6211  0.0292 -0.0018
 7197TIP3   OH245785   2.181   0.790   9.310  0.4405  0.4297 -0.4247
 7197TIP3    H145786   2.187   0.833   9.224 -2.1994  2.2005  0.1695
 7197TIP3    H245787   2.204   0.859   9.372 -2.6291  0.7596  0.4856
 7198TIP3   OH245788   3.726   6.193  10.359  0.2431  0.2159  0.2974
 7198TIP3    H145789   3.719   6.111  10.309  1.3611 -0.0120  0.4795
 7198TIP3    H245790   3.775   6.252  10.302  3.5729 -0.7674  1.8615
 7199TIP3   OH245791   6.433   1.565  10.742  0.4485  0.3996  0.3315
 7199TIP3    H145792   6.431   1.504  10.816  0.2659 -0.4825 -0.3831
 7199TIP3    H245793   6.520   1.603  10.744 -0.2649  2.1275  2.3580
 7200TIP3   OH245794   2.871   2.040   8.688  0.0102 -0.6028  0.4776
 7200TIP3    H145795   2.853   2.044   8.594 -1.7467  3.1756  0.7899
 7200TIP3    H245796   2.964   2.017   8.694  0.3497 -0.1919 -2.1969
 7201TIP3   OH245797   0.233   5.799  10.649  0.5231 -0.1912  0.3923
 7201TIP3    H145798   0.253   5.805  10.743 -0.0678 -0.1632  0.5219
 7201TIP3    H245799   0.147   5.757  10.646  1.1711 -1.5188 -0.1995
 7202TIP3   OH245800   5.583   0.452   9.735 -0.4165 -0.3148 -0.2209
 7202TIP3    H145801   5.505   0.400   9.753  0.8959 -1.9162  1.2202
 7202TIP3    H245802   5.550   0.537   9.706 -2.6545 -1.3318 -0.8169
 7203TIP3   OH245803   3.389   3.404  10.381  0.0860  0.0927 -0.2213
 7203TIP3    H145804   3.345   3.319  10.389  0.2467 -0.0418 -0.7574
 7203TIP3    H245805   3.466   3.396  10.437 -0.3483  0.1907  0.4096
 7204TIP3   OH245806   0.734   5.145  10.460  0.7750  0.2158 -0.9067
 7204TIP3    H145807   0.675   5.188  10.398 -0.6926  0.7769  0.8108
 7204TIP3    H245808   0.770   5.216  10.512 -0.9225 -0.4669  1.3267
 7205TIP3   OH245809   0.482   4.310   9.692  0.6360 -0.2956  0.2500
 7205TIP3    H145810   0.473   4.218   9.666  1.1113 -0.4471  0.6219
 7205TIP3    H245811   0.481   4.308   9.787  2.2943 -0.0910  0.2928
 7206TIP3   OH245812   5.382   2.632   8.559 -0.5990  0.0780  0.1502
 7206TIP3    H145813   5.310   2.693   8.544  1.0801  1.5527 -2.9230
 7206TIP3    H245814   5.344   2.546   8.540 -1.6587  0.7852 -1.1582
 7207TIP3   OH245815   1.374   3.226   9.069 -0.1000 -0.0524 -0.2393
 7207TIP3    H145816   1.449   3.214   9.127 -0.2303 -1.4785 -0.3456
 7207TIP3    H245817   1.389   3.165   8.997 -1.6668 -0.8570  0.0736
 7208TIP3   OH245818   4.828   1.072  11.791  0.3716 -0.4420 -0.2731
 7208TIP3    H145819   4.880   1.150  11.809  0.1359 -0.1635 -0.7623
 7208TIP3    H245820   4.888   0.999  11.803  0.4062 -0.2311  0.8788
 7209TIP3   OH245821   4.747   2.430  11.818 -1.2194 -0.0559 -0.2057
 7209TIP3    H145822   4.659   2.396  11.802 -1.5339 -0.0561  1.3205
 7209TIP3    H245823   4.739   2.480  11.900  0.0793  0.4027 -0.3322
 7210TIP3   OH245824   5.431   3.259   8.600 -0.2129  0.3507  0.5118
 7210TIP3    H145825   5.482   3.193   8.551 -1.2908 -0.6151  0.6334
 7210TIP3    H245826   5.494   3.329   8.619  1.1959 -1.0169  1.1114
 7211TIP3   OH245827   2.797   3.331  11.991  0.1167 -0.0354  0.4217
 7211TIP3    H145828   2.729   3.300  11.931 -0.9139 -0.9766  2.0063
 7211TIP3    H245829   2.852   3.254  12.005  0.8954  0.4318  0.0001
 7212TIP3   OH245830   2.436   3.793   9.171  0.9114 -0.1680  0.1571
 7212TIP3    H145831   2.346   3.814   9.196  0.6684  0.3867 -1.1002
 7212TIP3    H245832   2.489   3.818   9.247  0.0402 -0.2523  0.8066
 7213TIP3   OH245833   2.431   1.828   9.399 -0.6968  0.1655  0.2754
 7213TIP3    H145834   2.357   1.862   9.348 -1.2028  0.1705  0.9914
 7213TIP3    H245835   2.475   1.906   9.433 -0.2630  0.1668 -0.2777
 7214TIP3   OH245836   1.579   3.098   8.883 -0.0430  0.0517 -0.2690
 7214TIP3    H145837   1.560   3.006   8.903  0.9513 -0.2526 -0.6545
 7214TIP3    H245838   1.556   3.107   8.790  2.6338 -0.6332 -1.0753
 7215TIP3   OH245839   6.216   2.485  11.774  0.6295  0.2546  0.1586
 7215TIP3    H145840   6.211   2.393  11.748 -0.5730  0.2345  0.4018
 7215TIP3    H245841   6.176   2.533  11.702 -0.2060  0.4391  0.7370
 7216TIP3   OH245842   3.805   5.951   9.355 -0.6936 -0.1602  0.6527
 7216TIP3    H145843   3.852   6.015   9.407 -1.3042  1.6874 -0.9566
 7216TIP3    H245844   3.792   5.877   9.414  1.4256  0.5204  2.0932
 7217TIP3   OH245845   3.366   4.114   8.322  0.5297 -0.4964  0.1071
 7217TIP3    H145846   3.350   4.035   8.270 -2.3729  0.4922 -0.6841
 7217TIP3    H245847   3.297   4.114   8.388  1.1393  0.8360  0.7880
 7218TIP3   OH245848   4.556   2.327   9.971  0.1145 -0.3795 -0.2622
 7218TIP3    H145849   4.580   2.250   9.920  1.8690 -1.0120  1.3921
 7218TIP3    H245850   4.612   2.397   9.938  1.8475 -0.9828  1.1909
 7219TIP3   OH245851   5.036   3.358   9.808 -0.7258  0.5614  0.4064
 7219TIP3    H145852   5.029   3.318   9.721 -0.9082 -0.4518  0.8718
 7219TIP3    H245853   5.122   3.330   9.840 -1.8310 -1.5383  1.7189
 7220TIP3   OH245854   4.837   5.102  11.196  0.1660 -0.2267  0.1006
 7220TIP3    H145855   4.765   5.039  11.195 -1.6613  1.7468 -0.5506
 7220TIP3    H245856   4.912   5.054  11.162 -1.7190 -1.4499 -2.6232
 7221TIP3   OH245857   1.441   5.030   9.484 -0.0441 -0.1670  0.2083
 7221TIP3    H145858   1.531   4.996   9.483 -0.2966 -0.8820  0.6176
 7221TIP3    H245859   1.386   4.951   9.485 -0.7387  0.2214 -1.8731
 7222TIP3   OH245860   3.941   6.658   9.688  0.2491 -0.2665  0.1534
 7222TIP3    H145861   4.021   6.626   9.647  0.6390  0.7389  0.0817
 7222TIP3    H245862   3.952   6.638   9.781 -1.0570 -3.4065 -0.2776
 7223TIP3   OH245863   6.594   2.927  10.138  0.3669  0.6254 -0.3304
 7223TIP3    H145864   6.548   2.886  10.064 -0.7149  0.6247  0.3192
 7223TIP3    H245865   6.650   2.857  10.173 -3.2850 -1.3428  2.3382
 7224TIP3   OH245866   3.964   1.863   8.560 -0.5804 -0.0915  0.1853
 7224TIP3    H145867   3.891   1.812   8.597 -1.5652  0.2292 -1.2506
 7224TIP3    H245868   4.039   1.804   8.566 -0.9975 -0.5481  1.3973
 7225TIP3   OH245869   5.548   3.624  11.183 -0.1106 -0.2267 -0.1576
 7225TIP3    H145870   5.490   3.635  11.108  2.1079  0.6737 -1.8388
 7225TIP3    H245871   5.509   3.678  11.252 -1.1583  0.5177 -1.2951
 7226TIP3   OH245872   1.882   5.284  10.470  0.1961 -0.3038 -0.7408
 7226TIP3    H145873   1.792   5.315  10.475  0.9647  1.9409  0.5625
 7226TIP3    H245874   1.922   5.338  10.402  1.2223  0.6838  0.5957
 7227TIP3   OH245875   2.284   2.756  10.826  0.0336 -0.1748  0.2577
 7227TIP3    H145876   2.275   2.723  10.736 -0.9903 -0.9365  0.6169
 7227TIP3    H245877   2.208   2.812  10.839 -0.6001 -1.1830  1.0891
 7228TIP3   OH245878   6.434   4.436   9.520  0.1089 -0.1155 -0.2580
 7228TIP3    H145879   6.392   4.517   9.548  1.1378  0.7368 -1.1226
 7228TIP3    H245880   6.488   4.461   9.445  1.4898 -1.3223  0.2914
 7229TIP3   OH245881   4.316   1.596  11.038 -0.3422  0.3711 -0.4074
 7229TIP3    H145882   4.225   1.626  11.026 -0.7313 -0.6328 -0.0493
 7229TIP3    H245883   4.365   1.639  10.968 -1.0814  0.9917 -0.5527
 7230TIP3   OH245884   4.738   2.423   9.384  0.3282  1.2313  0.2656
 7230TIP3    H145885   4.725   2.514   9.412 -0.4992  0.9862  0.7224
 7230TIP3    H245886   4.651   2.384   9.391  0.5816  0.5276 -0.3989
 7231TIP3   OH245887   3.306   2.712  12.218 -0.2353 -0.7222 -0.6943
 7231TIP3    H145888   3.269   2.797  12.242  0.0484 -0.7649 -0.0874
 7231TIP3    H245889   3.237   2.649  12.239 -0.6028 -0.6098 -1.5332
 7232TIP3   OH245890   5.752   2.860  10.674 -0.1481  0.4125  0.5521
 7232TIP3    H145891   5.672   2.843  10.723 -0.2317  0.1013  0.3108
 7232TIP3    H245892   5.773   2.952  10.692 -0.4734  0.4511  0.7329
 7233TIP3   OH245893   2.895   4.054   8.518  0.3857  0.5553 -0.0555
 7233TIP3    H145894   2.986   4.084   8.515  0.5011  0.7929  2.9338
 7233TIP3    H245895   2.843   4.133   8.529  0.1725  0.1789  1.9260
 7234TIP3   OH245896   3.582   0.651   8.593  0.2832  0.0008  0.1523
 7234TIP3    H145897   3.553   0.561   8.603  1.2793 -0.2532  1.0021
 7234TIP3    H245898   3.537   0.699   8.663 -0.8007  0.3252 -0.7419
 7235TIP3   OH245899   4.669   0.375   9.634 -0.1586  0.2592 -1.0230
 7235TIP3    H145900   4.723   0.406   9.561 -0.4102  2.5453 -0.3404
 7235TIP3    H245901   4.604   0.444   9.646  0.0950  0.1436  1.5669
 7236TIP3   OH245902   0.425   0.615  11.179 -0.7293 -0.5402  0.0808
 7236TIP3    H145903   0.493   0.681  11.194 -2.2413  0.8200  1.4087
 7236TIP3    H245904   0.451   0.541  11.234 -0.4786  0.0909  0.8288
 7237TIP3   OH245905   3.356   4.276  10.067 -0.1367 -0.8230 -0.2526
 7237TIP3    H145906   3.396   4.285   9.981 -1.2861 -0.9476 -0.8242
 7237TIP3    H245907   3.369   4.184  10.091  0.4375 -0.7191 -0.1532
 7238TIP3   OH245908   1.730   2.168   8.788  0.1171  0.0591  0.1074
 7238TIP3    H145909   1.788   2.178   8.864 -0.7087  0.2547  0.7357
 7238TIP3    H245910   1.734   2.253   8.743 -0.6687  0.5405  0.8928
 7239TIP3   OH245911   5.165   1.906   9.568 -0.1855 -0.4745 -0.0150
 7239TIP3    H145912   5.206   1.992   9.555  2.9711 -1.6753  0.8755
 7239TIP3    H245913   5.085   1.909   9.516  1.1086  2.1272 -2.1310
 7240TIP3   OH245914   6.422   3.986  10.887  0.2029  0.2329  0.1258
 7240TIP3    H145915   6.432   3.940  10.970 -2.2204 -1.0829 -0.2369
 7240TIP3    H245916   6.504   3.969  10.840  0.4305 -1.4786  1.0691
 7241TIP3   OH245917   3.252   2.862   8.566  0.5110  0.1024 -0.0605
 7241TIP3    H145918   3.221   2.792   8.509 -1.0828  0.0052  0.8723
 7241TIP3    H245919   3.313   2.819   8.626  0.8434 -0.1364 -0.5666
 7242TIP3   OH245920   2.664   3.522  12.144  0.0368 -0.2542  0.1303
 7242TIP3    H145921   2.628   3.457  12.205  0.9138 -0.1723  0.7671
 7242TIP3    H245922   2.723   3.471  12.088  0.3013 -0.1046  0.2704
 7243TIP3   OH245923   1.812   1.243  10.359 -0.4482  0.3343  0.5397
 7243TIP3    H145924   1.887   1.286  10.319 -0.8879 -0.4946 -1.2550
 7243TIP3    H245925   1.741   1.254  10.296 -1.1042 -1.2596  0.9558
 7244TIP3   OH245926   3.495   2.034  10.209  0.3741 -0.1271  0.6266
 7244TIP3    H145927   3.463   2.059  10.122  1.7666  2.2809  0.7040
 7244TIP3    H245928   3.438   1.962  10.236 -2.3332  1.3051 -0.8404
 7245TIP3   OH245929   3.553   1.159  10.473  0.1024 -0.2185  0.1206
 7245TIP3    H145930   3.539   1.065  10.463 -0.6173  0.0080 -1.1852
 7245TIP3    H245931   3.592   1.186  10.390 -2.1819  1.0568 -0.6304
 7246TIP3   OH245932   5.970   5.813  11.638 -0.6810  0.6507  0.1832
 7246TIP3    H145933   6.041   5.759  11.671 -1.5058  0.3455  1.5040
 7246TIP3    H245934   6.011   5.899  11.622  0.6639 -0.3331 -2.0693
 7247TIP3   OH245935   4.470   3.948   9.638  0.4863  0.0065 -0.2346
 7247TIP3    H145936   4.497   3.884   9.705 -2.2344 -0.8765  0.1458
 7247TIP3    H245937   4.458   4.030   9.686  0.8158 -0.0334 -0.0855
 7248TIP3   OH245938   0.340   1.283   9.107 -0.1702  0.2642 -0.0196
 7248TIP3    H145939   0.373   1.362   9.151 -1.2237  0.4936  0.3738
 7248TIP3    H245940   0.273   1.249   9.166 -1.7323  0.6720 -1.4793
 7249TIP3   OH245941   2.372   0.575  11.609  0.3330 -0.5094  0.2523
 7249TIP3    H145942   2.356   0.483  11.631 -1.0906 -0.3127  0.0887
 7249TIP3    H245943   2.286   0.615  11.607  0.6291  0.1896 -2.5928
 7250TIP3   OH245944   3.704   1.909  10.805 -0.5334 -0.1130  0.4599
 7250TIP3    H145945   3.740   1.997  10.815  0.0091 -0.2782  0.0528
 7250TIP3    H245946   3.652   1.895  10.883  1.3136 -0.3246  1.7174
 7251TIP3   OH245947   1.204   1.753  11.172 -0.4831  0.3380  0.5320
 7251TIP3    H145948   1.278   1.701  11.202  0.1879  0.7295 -0.4198
 7251TIP3    H245949   1.194   1.821  11.238 -0.3508 -0.0448  0.9479
 7252TIP3   OH245950   0.564   2.459   8.222 -0.8563  0.9656  0.4818
 7252TIP3    H145951   0.518   2.382   8.189 -0.5248  0.5597  0.9444
 7252TIP3    H245952   0.517   2.483   8.302 -0.0832  0.3382  1.1482
 7253TIP3   OH245953   1.815   4.194   8.612 -0.1711 -0.1735  0.0156
 7253TIP3    H145954   1.761   4.235   8.544  0.8560 -0.1995 -0.8309
 7253TIP3    H245955   1.782   4.104   8.617  0.8196 -0.6760 -1.6616
 7254TIP3   OH245956   3.969   2.709  11.917  0.5641 -0.6996 -0.0649
 7254TIP3    H145957   3.876   2.724  11.899  0.8680 -0.4027 -1.4675
 7254TIP3    H245958   3.979   2.730  12.010 -0.2718  1.8339 -0.4892
 7255TIP3   OH245959   3.158   0.729  10.688 -0.2027  0.2795 -0.0271
 7255TIP3    H145960   3.080   0.759  10.735 -0.0565  1.9128 -0.7441
 7255TIP3    H245961   3.212   0.808  10.679  0.0754 -0.0927 -2.3187
 7256TIP3   OH245962   2.496   5.086  10.782  0.2181 -0.0906 -0.0060
 7256TIP3    H145963   2.586   5.116  10.766 -0.0687  1.8373  1.6079
 7256TIP3    H245964   2.495   5.060  10.874 -1.2805  1.7097  0.5395
 7257TIP3   OH245965   1.866   2.319   9.780  0.1482  0.2270  0.4227
 7257TIP3    H145966   1.879   2.336   9.873 -0.4948 -0.7019  0.6933
 7257TIP3    H245967   1.827   2.232   9.776  0.8902 -0.0901 -0.7609
 7258TIP3   OH245968   1.367   6.090   8.575 -0.2665 -0.4548  0.4949
 7258TIP3    H145969   1.377   6.141   8.656  0.6097  0.3294 -0.0880
 7258TIP3    H245970   1.376   6.154   8.505 -0.5260 -1.2050 -0.2376
 7259TIP3   OH245971   4.320   5.793   9.036 -0.1828  0.2180 -0.5764
 7259TIP3    H145972   4.280   5.796   9.123  0.7369 -1.3816 -0.0550
 7259TIP3    H245973   4.294   5.708   9.001  0.8691  0.1176 -1.1493
 7260TIP3   OH245974   0.695   6.526  10.189 -0.3377 -0.2168  0.2476
 7260TIP3    H145975   0.697   6.619  10.169 -0.8137 -0.6561 -2.1063
 7260TIP3    H245976   0.602   6.506  10.201 -0.3277 -0.5765 -0.2615
 7261TIP3   OH245977   5.804   1.270  10.713 -0.7977 -0.1019 -0.4161
 7261TIP3    H145978   5.856   1.191  10.728 -0.2801  0.4924  1.1986
 7261TIP3    H245979   5.861   1.328  10.664  0.2315  0.6248  1.5154
 7262TIP3   OH245980   1.881   4.003   9.847 -0.2998  0.4145 -0.0593
 7262TIP3    H145981   1.922   3.919   9.829  2.2365  1.2622  1.2642
 7262TIP3    H245982   1.856   4.036   9.760  1.4279 -0.4074 -0.9223
 7263TIP3   OH245983   6.640   5.748  10.652 -0.2833 -0.5394 -0.2050
 7263TIP3    H145984   6.560   5.696  10.648 -0.1034 -0.7336 -2.1179
 7263TIP3    H245985   6.625   5.820  10.591  0.8381 -0.3507 -0.2784
 7264TIP3   OH245986   3.529   3.678   8.843  0.7782 -0.0508 -0.0229
 7264TIP3    H145987   3.581   3.693   8.922  0.9128  0.1168 -0.1417
 7264TIP3    H245988   3.567   3.737   8.778  2.0331 -1.6577 -0.8255
 7265TIP3   OH245989   2.248   5.771  18.268 -0.1833  0.5063  0.0931
 7265TIP3    H145990   2.207   5.801  18.186 -0.1099  0.8266  0.1727
 7265TIP3    H245991   2.339   5.796  18.260 -0.4956  2.0558  0.9802
 7266TIP3   OH245992   5.524   2.566   9.640 -0.5400 -0.5755  0.3879
 7266TIP3    H145993   5.523   2.474   9.666 -1.3663 -0.5645  0.4162
 7266TIP3    H245994   5.469   2.570   9.562 -1.3572  0.0632  0.9898
 7267TIP3   OH245995   5.606   4.776   9.672 -0.3613  0.0053  0.0464
 7267TIP3    H145996   5.598   4.683   9.652  0.5609  0.0577 -0.6550
 7267TIP3    H245997   5.620   4.818   9.587 -1.7215  0.9122  0.2370
 7268TIP3   OH245998   4.362   0.783  10.169  0.3770  0.2427 -0.7093
 7268TIP3    H145999   4.298   0.854  10.165  1.8483  1.6989  0.5614
 7268TIP3    H246000   4.447   0.826  10.161  1.3291 -1.3053  0.5372
 7269TIP3   OH246001   2.542   6.447   9.983 -0.2515 -0.0394 -0.4023
 7269TIP3    H146002   2.455   6.416   9.958 -1.0611  0.4860  1.5536
 7269TIP3    H246003   2.560   6.519   9.923 -1.1913 -0.1192 -0.7932
 7270TIP3   OH246004   4.858   4.343  11.310 -0.2384 -0.1194 -0.0070
 7270TIP3    H146005   4.908   4.413  11.353 -0.1727 -1.2607  1.8929
 7270TIP3    H246006   4.766   4.364  11.330 -0.3322  0.2927 -0.8390
 7271TIP3   OH246007   0.966   0.416   9.477  0.8801  0.0051  0.0535
 7271TIP3    H146008   0.978   0.340   9.421 -1.3356 -0.1626 -0.2871
 7271TIP3    H246009   0.872   0.417   9.497  1.2176  1.3586  1.9040
 7272TIP3   OH246010   5.624   2.585   9.064  0.9940 -0.1781 -0.0368
 7272TIP3    H146011   5.613   2.608   8.972  0.4238  3.6271  0.8252
 7272TIP3    H246012   5.705   2.629   9.090  0.6613 -0.4213  1.4891
 7273TIP3   OH246013   6.117   3.808   9.089  0.2786  0.8015 -0.8454
 7273TIP3    H146014   6.157   3.794   9.174 -0.1586 -2.3225 -1.0377
 7273TIP3    H246015   6.188   3.843   9.035  0.9611  1.4098  0.3949
 7274TIP3   OH246016   2.428   3.135  10.789  0.7230  0.6273 -0.3416
 7274TIP3    H146017   2.423   3.052  10.837  0.8773 -0.6095 -2.3497
 7274TIP3    H246018   2.470   3.195  10.850  0.6268 -0.7777  1.1704
 7275TIP3   OH246019   4.226   1.802   9.670 -0.2534  0.4621 -0.1525
 7275TIP3    H146020   4.253   1.744   9.741 -2.2397  0.3347  0.5585
 7275TIP3    H246021   4.154   1.756   9.628  0.1979  1.0255 -1.6045
 7276TIP3   OH246022   2.023   4.692  11.165 -0.0978  0.2705  0.0346
 7276TIP3    H146023   2.073   4.768  11.136 -0.4284  1.0239  1.3450
 7276TIP3    H246024   2.049   4.622  11.105  1.3418  1.0253 -0.2757
 7277TIP3   OH246025   6.001   5.872  10.697  0.4688 -0.2454 -0.4092
 7277TIP3    H146026   5.930   5.809  10.715  1.7948 -1.4130  0.9745
 7277TIP3    H246027   6.003   5.928  10.774  0.2881  0.5471 -0.9765
 7278TIP3   OH246028   0.502   4.372   9.990  0.7680  0.5912 -1.3743
 7278TIP3    H146029   0.572   4.307   9.985  1.6735  1.2671  0.9405
 7278TIP3    H246030   0.528   4.429  10.063 -2.2545  0.7977 -0.3140
 7279TIP3   OH246031   1.912   3.252   8.628 -0.2258 -0.0097  0.6157
 7279TIP3    H146032   1.844   3.303   8.672  0.0132  1.2659 -0.4283
 7279TIP3    H246033   1.993   3.300   8.647 -0.1550  0.7924 -1.4306
 7280TIP3   OH246034   6.431   2.349   8.770 -0.0399 -0.0006  0.1769
 7280TIP3    H146035   6.525   2.350   8.790  0.2141 -0.8347 -0.8840
 7280TIP3    H246036   6.418   2.425   8.714  0.0654 -0.0072  0.1418
 7281TIP3   OH246037   1.921   2.976  10.068  0.0847 -0.0494  0.3714
 7281TIP3    H146038   1.872   3.030  10.006 -0.8938 -1.6694 -0.3323
 7281TIP3    H246039   2.012   3.000  10.054 -0.2755  0.9329 -0.3905
 7282TIP3   OH246040   1.682   3.612   9.855  0.0357  0.0925 -0.0839
 7282TIP3    H146041   1.733   3.641   9.931  2.7993 -1.9480 -0.9727
 7282TIP3    H246042   1.687   3.685   9.793  0.9407  0.3682  0.2952
 7283TIP3   OH246043   2.663   5.381  10.457 -0.1945 -0.4515 -0.3233
 7283TIP3    H146044   2.617   5.461  10.485  0.3206 -0.5089  0.7311
 7283TIP3    H246045   2.674   5.392  10.362 -0.9400  0.3004 -0.3406
 7284TIP3   OH246046   0.651   6.049  11.633 -0.3288  0.2275  0.4059
 7284TIP3    H146047   0.608   6.063  11.548 -0.4196 -1.4475  0.1484
 7284TIP3    H246048   0.744   6.050  11.613 -0.3422  0.1816  0.3408
 7285TIP3   OH246049   5.867   1.874   8.887 -0.1144 -0.3471 -0.0896
 7285TIP3    H146050   5.926   1.822   8.942 -0.9574  0.1989  1.3849
 7285TIP3    H246051   5.780   1.837   8.903 -0.6475  1.0689  0.5058
 7286TIP3   OH246052   2.057   6.286   9.406  0.0883 -0.2690  0.0810
 7286TIP3    H146053   2.117   6.266   9.477  0.3392 -1.9554 -0.5483
 7286TIP3    H246054   2.111   6.330   9.340  0.1152  0.2421  0.4408
 7287TIP3   OH246055   1.429   6.286   8.373 -0.1439  0.5476  0.4018
 7287TIP3    H146056   1.368   6.351   8.407  1.0580  1.2339  1.3070
 7287TIP3    H246057   1.412   6.284   8.279 -0.8328  1.4850  0.4908
 7288TIP3   OH246058   2.355   4.050  10.241 -0.6617 -0.6281  0.0739
 7288TIP3    H146059   2.363   3.955  10.252  1.5565 -0.3502  1.7409
 7288TIP3    H246060   2.437   4.076  10.199 -1.0186  0.6131  0.1141
 7289TIP3   OH246061   0.615   3.028   8.882 -0.8823  0.4859  0.3806
 7289TIP3    H146062   0.547   3.091   8.859 -0.8328  0.4789  0.2073
 7289TIP3    H246063   0.591   2.949   8.835 -0.0735  0.8665 -0.7197
 7290TIP3   OH246064   6.172   4.493  10.406 -0.2253 -0.1582 -0.1889
 7290TIP3    H146065   6.181   4.399  10.392  0.9466  0.1401 -1.6301
 7290TIP3    H246066   6.247   4.516  10.461 -1.0868 -0.2085  1.0473
 7291TIP3   OH246067   2.800   4.671  11.087  0.4301 -0.2960  0.2109
 7291TIP3    H146068   2.824   4.727  11.160  0.0809  0.7312 -0.4422
 7291TIP3    H246069   2.848   4.707  11.012 -0.6847 -0.1438 -0.4579
 7292TIP3   OH246070   6.010   2.853  10.133 -0.1282  0.3162 -0.3484
 7292TIP3    H146071   6.099   2.833  10.164 -0.6167  1.8281  2.3145
 7292TIP3    H246072   5.999   2.797  10.055  2.3562 -1.4922  0.4557
 7293TIP3   OH246073   6.390   2.182  11.595  0.2499 -0.0797  0.4439
 7293TIP3    H146074   6.444   2.260  11.588 -0.0390  0.2715  1.8415
 7293TIP3    H246075   6.339   2.195  11.675 -3.6885  0.7171 -1.9142
 7294TIP3   OH246076   3.683   2.795  10.164  0.4025  0.6935  0.3416
 7294TIP3    H146077   3.669   2.837  10.249  0.3723  1.0186  0.1780
 7294TIP3    H246078   3.773   2.817  10.141  0.8764 -0.5606  0.9329
 7295TIP3   OH246079   0.968   2.857   8.573  0.5291 -0.4898  0.1715
 7295TIP3    H146080   0.969   2.836   8.479 -0.2050 -2.1291  0.4855
 7295TIP3    H246081   1.017   2.785   8.614  1.9898  0.8913  0.9660
 7296TIP3   OH246082   2.155   3.971   9.541  0.5299  0.1889 -0.5985
 7296TIP3    H146083   2.112   3.915   9.476  0.8188 -0.2242 -0.4389
 7296TIP3    H246084   2.246   3.975   9.513  0.3866  1.0947 -0.9554
 7297TIP3   OH246085   3.123   0.390   9.140 -0.0291 -0.5949 -0.0799
 7297TIP3    H146086   3.082   0.449   9.204  0.3824  0.6146 -0.9020
 7297TIP3    H246087   3.206   0.366   9.180  1.0496  1.6058 -0.8894
 7298TIP3   OH246088   3.687   5.011  10.360  0.3098 -0.8755 -0.4777
 7298TIP3    H146089   3.659   4.920  10.363  0.0036 -0.7882 -0.6569
 7298TIP3    H246090   3.644   5.047  10.282  1.8386 -1.0546 -1.4501
 7299TIP3   OH246091   1.165   2.649   9.595  0.0155 -0.0147  0.5375
 7299TIP3    H146092   1.214   2.569   9.577  0.5983  0.7335 -1.3947
 7299TIP3    H246093   1.075   2.628   9.571  0.0890 -0.2072  0.4312
 7300TIP3   OH246094   6.370   2.460   9.664 -0.1281 -0.3698  0.0476
 7300TIP3    H146095   6.280   2.473   9.693  0.7030  0.8581  2.3207
 7300TIP3    H246096   6.376   2.366   9.648 -1.5495 -0.6237  0.8042
 7301TIP3   OH246097   4.744   5.013   9.531  0.3329  0.0530  0.2519
 7301TIP3    H146098   4.733   5.029   9.625  2.1311  0.1519  0.4750
 7301TIP3    H246099   4.755   4.918   9.524 -1.3459 -0.1588 -0.0751
 7302TIP3   OH246100   5.586   5.505  11.339 -0.2452  0.2467  0.5436
 7302TIP3    H146101   5.516   5.486  11.277  0.4548 -0.8672  0.0656
 7302TIP3    H246102   5.546   5.488  11.425 -0.4386 -0.8637  0.2567
 7303TIP3   OH246103   2.270   6.652   9.482 -0.2425 -0.4373  0.2185
 7303TIP3    H146104   2.249   6.579   9.424 -0.9332 -0.8212  0.9204
 7303TIP3    H246105   2.345   6.696   9.441  1.6611 -2.8385  0.8736
 7304TIP3   OH246106   0.943   1.845  10.105  0.2877 -0.0845  0.3197
 7304TIP3    H146107   0.895   1.925  10.083  1.2851 -0.0106 -1.8468
 7304TIP3    H246108   0.874   1.782  10.128 -0.6616  0.7593 -0.1167
 7305TIP3   OH246109   3.546   1.489  11.416  0.0230  0.0398  0.1752
 7305TIP3    H146110   3.536   1.449  11.503 -0.1946 -0.2169  0.0329
 7305TIP3    H246111   3.467   1.463  11.369 -0.9697  2.0320  0.6276
 7306TIP3   OH246112   2.088   1.727  11.781  0.5749 -0.6106  0.1548
 7306TIP3    H146113   2.107   1.648  11.832  0.7745 -0.2647  0.6161
 7306TIP3    H246114   2.108   1.799  11.839  1.8285 -0.1924 -0.7441
 7307TIP3   OH246115   2.549   0.094  10.020  0.1119 -0.6160  0.4906
 7307TIP3    H146116   2.550   0.100   9.924  1.7386 -0.8116  0.4542
 7307TIP3    H246117   2.520   0.181  10.049 -1.4049 -0.8794 -0.1648
 7308TIP3   OH246118   1.500   2.673  10.034 -0.7381  0.0077  0.4169
 7308TIP3    H146119   1.440   2.744  10.012  0.9784  1.4403  0.0836
 7308TIP3    H246120   1.486   2.607   9.966  0.0194  1.5905 -1.3846
 7309TIP3   OH246121   3.103   4.582  10.727 -0.8227 -0.4786 -0.0967
 7309TIP3    H146122   3.098   4.486  10.724 -0.9290 -0.5354  1.1580
 7309TIP3    H246123   3.167   4.600  10.796 -1.0178  0.3564 -0.1283
 7310TIP3   OH246124   4.441   1.695   8.604  0.2555  0.0264  0.0541
 7310TIP3    H146125   4.495   1.748   8.545 -0.8051  0.5511 -0.4718
 7310TIP3    H246126   4.454   1.734   8.690 -0.8049  1.4178 -0.3877
 7311TIP3   OH246127   3.078   3.264   9.348  0.4125 -0.2565 -0.0278
 7311TIP3    H146128   3.125   3.315   9.282 -1.3390  3.9891  1.6383
 7311TIP3    H246129   3.147   3.236   9.409  1.5298 -0.5284 -1.3596
 7312TIP3   OH246130   5.646   0.718   9.653 -0.6373 -0.7549  0.0879
 7312TIP3    H146131   5.604   0.793   9.611 -0.6237 -1.6809 -1.7075
 7312TIP3    H246132   5.739   0.728   9.631  0.1061  0.8809  3.4011
 7313TIP3   OH246133   4.223   2.077   9.764  0.1567  0.0747 -0.1222
 7313TIP3    H146134   4.156   2.055   9.828 -0.9316 -0.4481 -1.3857
 7313TIP3    H246135   4.229   2.000   9.708  1.5067  0.2849 -0.3108
 7314TIP3   OH246136   2.578   4.452   9.592 -0.5647 -0.1574 -0.4094
 7314TIP3    H146137   2.648   4.386   9.587 -1.5635 -1.3474  0.6532
 7314TIP3    H246138   2.590   4.492   9.678 -0.1738  0.8513 -0.9135
 7315TIP3   OH246139   3.478   0.503  10.394 -0.6095 -0.1831 -0.2675
 7315TIP3    H146140   3.449   0.502  10.485 -1.6168 -0.0555 -0.5728
 7315TIP3    H246141   3.397   0.500  10.343 -0.0372 -1.2870 -1.1676
 7316TIP3   OH246142   1.583   3.085   8.451  0.2933 -0.3356  0.3124
 7316TIP3    H146143   1.606   3.110   8.362  0.9436 -2.2583 -0.1001
 7316TIP3    H246144   1.632   3.005   8.468  0.9494  0.4894  2.7705
 7317TIP3   OH246145   3.047   5.679  10.062  0.0023  0.0381  0.0087
 7317TIP3    H146146   3.118   5.737  10.091  1.9078 -2.1453 -0.0550
 7317TIP3    H246147   3.064   5.596  10.106 -0.6307 -1.5439 -2.5266
 7318TIP3   OH246148   2.111   2.573  11.976  0.2565 -0.3991 -0.2582
 7318TIP3    H146149   2.204   2.565  11.999  0.0785 -0.2823  0.5151
 7318TIP3    H246150   2.067   2.511  12.034 -0.3197  0.6532  0.4441
 7319TIP3   OH246151   3.458   4.244   9.773  0.0306 -0.0217 -0.0497
 7319TIP3    H146152   3.533   4.186   9.758  0.4958  0.0466  1.7466
 7319TIP3    H246153   3.474   4.318   9.714  1.4214 -0.0001  0.2987
 7320TIP3   OH246154   2.262   4.788  12.079  0.2893  0.4240  0.4153
 7320TIP3    H146155   2.311   4.725  12.131  0.7755  1.0117  0.6855
 7320TIP3    H246156   2.316   4.868  12.081  0.9661  0.1262 -1.9934
 7321TIP3   OH246157   6.260   6.514  10.912  0.0018 -0.6146 -0.0034
 7321TIP3    H146158   6.354   6.494  10.918  0.0642 -1.0543 -1.8749
 7321TIP3    H246159   6.257   6.601  10.874 -0.3328 -1.2532 -1.4903
 7322TIP3   OH246160   1.660   4.906   8.780  0.0089 -0.3424 -0.0123
 7322TIP3    H146161   1.594   4.970   8.804  1.0902  0.8147 -0.0207
 7322TIP3    H246162   1.739   4.957   8.765  1.2607 -1.8095  1.2654
 7323TIP3   OH246163   4.569   2.852  10.372 -0.0800 -0.0734 -0.0387
 7323TIP3    H146164   4.576   2.805  10.289  1.3442 -1.5299  0.8481
 7323TIP3    H246165   4.615   2.797  10.435  0.9067  2.1095  1.2681
 7324TIP3   OH246166   0.095   4.936   8.308  0.5567  0.5341  0.1443
 7324TIP3    H146167   0.041   4.890   8.243  0.0637 -0.3038  1.1186
 7324TIP3    H246168   0.040   5.007   8.340  0.3783  0.2592  0.4519
 7325TIP3   OH246169   3.815   0.987  10.462  0.1682  0.3691 -0.1078
 7325TIP3    H146170   3.726   0.996  10.428  0.1091  2.9535  0.5066
 7325TIP3    H246171   3.871   1.000  10.385  0.0342 -0.0763 -0.2843
 7326TIP3   OH246172   2.767   6.247  11.348  0.3088  0.9433 -0.3027
 7326TIP3    H146173   2.836   6.296  11.303  1.3862  2.5467  2.7698
 7326TIP3    H246174   2.812   6.198  11.416 -1.4843  2.0148  1.8068
 7327TIP3   OH246175   5.216   1.465   8.565  0.1304  0.2418  0.2030
 7327TIP3    H146176   5.283   1.531   8.582 -0.1939  0.5517  0.2864
 7327TIP3    H246177   5.265   1.384   8.550  0.4982  0.3687  0.7236
 7328TIP3   OH246178   6.299   5.008   8.754 -0.4660 -0.0425 -0.0703
 7328TIP3    H146179   6.318   5.013   8.660  0.1047  1.7437  0.0879
 7328TIP3    H246180   6.338   4.926   8.783  0.6742  0.1015 -1.1394
 7329TIP3   OH246181   5.392   2.944   9.273  0.1325 -0.1812  0.5002
 7329TIP3    H146182   5.413   3.037   9.272  2.5954 -0.6714  0.6453
 7329TIP3    H246183   5.409   2.915   9.183  0.6529 -0.7308  0.7688
 7330TIP3   OH246184   2.574   6.519   9.575  0.0236 -0.6846  0.7595
 7330TIP3    H146185   2.525   6.550   9.651  1.5784 -0.6609  1.7728
 7330TIP3    H246186   2.637   6.588   9.556  0.2012 -1.0551 -0.0390
 7331TIP3   OH246187   4.746   2.345  10.552 -0.1498 -0.1376 -0.2990
 7331TIP3    H146188   4.704   2.367  10.469  1.7730  0.5606 -1.1475
 7331TIP3    H246189   4.812   2.414  10.565  0.0041 -0.5637  1.5080
 7332TIP3   OH246190   0.083   4.186  10.520 -0.0468  0.4148  0.2380
 7332TIP3    H146191   0.073   4.178  10.615  0.2843  0.3185  0.2645
 7332TIP3    H246192   0.045   4.271  10.499 -0.2614  0.3697  0.4370
 7333TIP3   OH246193   0.258   3.125   9.086  0.4474  0.1291 -0.6063
 7333TIP3    H146194   0.182   3.123   9.145  0.5011 -2.5397 -0.5039
 7333TIP3    H246195   0.259   3.214   9.051 -4.3554 -0.2993 -2.6756
 7334TIP3   OH246196   4.800   2.301  10.916  0.5040 -0.3622  0.0132
 7334TIP3    H146197   4.847   2.304  10.999 -0.9569  3.0137  0.9227
 7334TIP3    H246198   4.852   2.356  10.857  0.0433 -0.3452 -0.3854
 7335TIP3   OH246199   3.942   6.102   9.173  1.0840 -0.8311  0.2353
 7335TIP3    H146200   3.913   6.059   9.092  0.0215 -0.7752  0.5785
 7335TIP3    H246201   3.890   6.061   9.242 -0.5805  1.5482  0.5066
 7336TIP3   OH246202   4.073   5.340  11.160 -0.2717  0.1411 -0.5944
 7336TIP3    H146203   4.104   5.357  11.249  0.5279  0.4275 -0.9127
 7336TIP3    H246204   4.033   5.254  11.164 -0.8367  0.4281  0.1866
 7337TIP3   OH246205   4.159   0.248   8.874 -0.0558  0.2143 -0.2923
 7337TIP3    H146206   4.235   0.285   8.920  0.0889  0.6650 -0.8852
 7337TIP3    H246207   4.109   0.203   8.942  0.8096 -0.2037  0.0891
 7338TIP3   OH246208   3.637   2.572   9.767 -0.4248  0.0863 -0.4511
 7338TIP3    H146209   3.542   2.584   9.766 -0.4656  0.6736  2.0161
 7338TIP3    H246210   3.672   2.654   9.731 -0.8941  1.4802  2.0088
 7339TIP3   OH246211   4.917   6.303  10.144  0.5084  0.0966 -0.1003
 7339TIP3    H146212   4.859   6.242  10.100  0.1137 -0.2460  0.8692
 7339TIP3    H246213   4.859   6.375  10.172  0.7005  0.1642  0.1245
 7340TIP3   OH246214   3.162   5.728   9.634  0.0511 -0.5587  0.3780
 7340TIP3    H146215   3.176   5.803   9.577 -3.0777  2.1456  2.7431
 7340TIP3    H246216   3.145   5.655   9.575  1.3029  0.9796 -2.0394
 7341TIP3   OH246217   1.224   4.541  10.508 -0.0247 -0.4083 -0.1613
 7341TIP3    H146218   1.147   4.489  10.485  0.3941 -1.3416  0.4796
 7341TIP3    H246219   1.291   4.476  10.531 -0.0251  0.3784  2.3841
 7342TIP3   OH246220   5.759   0.816   9.041  0.3399 -0.3038 -0.4857
 7342TIP3    H146221   5.776   0.730   9.004  1.8984 -1.2848  2.2277
 7342TIP3    H246222   5.678   0.845   8.999 -0.4429 -3.2566 -1.1974
 7343TIP3   OH246223   3.959   1.107   9.135 -0.5416  0.3438 -0.6606
 7343TIP3    H146224   4.043   1.080   9.099 -0.8944 -0.7550 -0.6993
 7343TIP3    H246225   3.915   1.151   9.062  0.6573  2.5420 -0.1606
 7344TIP3   OH246226   3.314   4.952   9.476 -0.4163  0.2416  0.1144
 7344TIP3    H146227   3.258   4.895   9.528 -1.3901 -0.0255 -1.1972
 7344TIP3    H246228   3.397   4.904   9.468 -0.3784  0.1329  1.0878
 7345TIP3   OH246229   0.046   5.521   8.727 -1.1003 -0.3185 -0.0955
 7345TIP3    H146230  -0.003   5.590   8.682 -0.4555 -0.5956 -1.2705
 7345TIP3    H246231   0.036   5.541   8.820  0.3614  2.2959 -0.4027
 7346TIP3   OH246232   5.360   1.230  11.429  0.2300  0.3708 -0.3056
 7346TIP3    H146233   5.435   1.240  11.487  0.3352  0.2665 -0.4217
 7346TIP3    H246234   5.288   1.203  11.485  0.9344 -2.2852 -0.5721
 7347TIP3   OH246235   2.881   2.669   8.917 -0.4484  0.2707  0.0510
 7347TIP3    H146236   2.921   2.610   8.853  0.3961  0.8305  0.0559
 7347TIP3    H246237   2.787   2.658   8.904 -0.2902 -0.3738 -0.5891
 7348TIP3   OH246238   1.487   4.602  11.679  0.0123 -0.7037  0.4721
 7348TIP3    H146239   1.469   4.680  11.732 -1.7784 -0.1936 -0.7946
 7348TIP3    H246240   1.467   4.628  11.590  0.9733 -2.1603 -0.2140
 7349TIP3   OH246241   0.921   1.012  10.090 -0.0267  0.6751  0.1337
 7349TIP3    H146242   0.895   0.920  10.098 -1.0014  0.9262  0.0009
 7349TIP3    H246243   0.875   1.042  10.011  2.6395  0.4941 -1.6213
 7350TIP3   OH246244   4.597   2.740  10.123  0.1541  0.2760  0.0008
 7350TIP3    H146245   4.686   2.750  10.089  0.6885 -1.8155  0.6057
 7350TIP3    H246246   4.543   2.725  10.045  0.6032 -0.0145 -0.2546
 7351TIP3   OH246247   3.433   1.594   9.976  0.1475  0.2452  0.3733
 7351TIP3    H146248   3.378   1.633   9.909 -1.3116 -1.2989  0.6019
 7351TIP3    H246249   3.379   1.593  10.055  0.3250 -1.5805  0.5266
 7352TIP3   OH246250   4.300   4.269  11.508  0.4949  0.0723 -0.2633
 7352TIP3    H146251   4.283   4.177  11.528 -3.1180  1.0749  2.2406
 7352TIP3    H246252   4.335   4.305  11.590 -3.6634  1.9250  0.9850
 7353TIP3   OH246253   2.390   4.406   8.893 -0.0100  0.4330 -0.1844
 7353TIP3    H146254   2.436   4.333   8.851  1.7865  0.8228  0.9848
 7353TIP3    H246255   2.442   4.425   8.971 -1.8843  1.2991  0.9134
 7354TIP3   OH246256   5.119   1.688  11.756  0.2188 -0.0364 -0.4242
 7354TIP3    H146257   5.115   1.629  11.681  0.0675  0.0532 -0.4877
 7354TIP3    H246258   5.116   1.630  11.833 -0.1758 -0.1017 -0.4835
 7355TIP3   OH246259   0.478   0.170   9.536  0.0419  0.0651  0.2060
 7355TIP3    H146260   0.456   0.136   9.622 -0.3883  0.1014  0.1098
 7355TIP3    H246261   0.535   0.104   9.497 -0.9232 -0.6302 -0.0503
 7356TIP3   OH246262   5.980   4.027   9.298 -0.0481 -0.7400 -0.2302
 7356TIP3    H146263   6.033   3.993   9.371 -0.8693 -0.0179  0.7191
 7356TIP3    H246264   6.045   4.053   9.232  0.7463 -0.6270  0.5747
 7357TIP3   OH246265   0.371   2.169  11.235 -0.5069  0.2008 -0.0922
 7357TIP3    H146266   0.414   2.095  11.192 -1.1606  0.6310 -1.5439
 7357TIP3    H246267   0.434   2.241  11.226 -1.6770  1.0133 -2.8177
 7358TIP3   OH246268   0.728   0.813  10.124 -0.5049 -0.7863 -0.9319
 7358TIP3    H146269   0.685   0.854  10.199  1.9264 -0.2813  0.2806
 7358TIP3    H246270   0.692   0.860  10.048 -0.5723  1.0478  0.1537
 7359TIP3   OH246271   4.467   0.694   8.932  0.4737 -0.5277 -0.0326
 7359TIP3    H146272   4.402   0.713   8.999 -0.5864 -1.9654 -0.6008
 7359TIP3    H246273   4.512   0.778   8.918 -2.0371  0.8628 -0.4382
 7360TIP3   OH246274   0.378   5.710  10.421  0.2339  0.0278 -0.3675
 7360TIP3    H146275   0.458   5.750  10.455  0.9257 -0.8178 -0.9359
 7360TIP3    H246276   0.313   5.722  10.490  0.2534  2.5317 -0.6908
 7361TIP3   OH246277   5.161   5.360  10.173  0.1169 -0.2320  0.0548
 7361TIP3    H146278   5.214   5.358  10.252  1.3259  1.7287 -0.6421
 7361TIP3    H246279   5.208   5.419  10.114 -1.7054 -0.1891 -1.4427
 7362TIP3   OH246280   3.313   5.642   9.320 -0.1923  0.4651 -0.0493
 7362TIP3    H146281   3.237   5.658   9.264 -0.1717  0.5915 -0.0418
 7362TIP3    H246282   3.346   5.730   9.340  1.4093  0.3974 -2.0577
 7363TIP3   OH246283   1.115   5.126  11.212  0.6933 -0.2222 -0.2643
 7363TIP3    H146284   1.022   5.117  11.187  0.1711  0.6819  1.2537
 7363TIP3    H246285   1.113   5.167  11.298  2.5380  0.2528 -0.4132
 7364TIP3   OH246286   1.674   3.325   9.807  0.2888  0.4761 -0.1374
 7364TIP3    H146287   1.635   3.302   9.891  0.4959 -0.2907 -0.2365
 7364TIP3    H246288   1.721   3.407   9.824  1.2825 -0.2492  0.8071
 7365TIP3   OH246289   6.216   4.597   9.066  0.0755 -0.0706  0.1705
 7365TIP3    H146290   6.172   4.548   8.996 -0.8903 -0.7182  1.1814
 7365TIP3    H246291   6.147   4.611   9.131  0.7434  1.2516  0.6295
 7366TIP3   OH246292   1.598   0.420   8.780 -0.5361  0.0915 -0.3479
 7366TIP3    H146293   1.524   0.408   8.839  1.3448  0.9139  2.4039
 7366TIP3    H246294   1.645   0.336   8.783  0.2604  0.5470  0.4125
 7367TIP3   OH246295   0.975   5.178  10.035  0.3923  0.1906 -0.0768
 7367TIP3    H146296   1.031   5.107  10.002  1.0854  0.8542 -0.3778
 7367TIP3    H246297   1.006   5.193  10.124 -2.7991 -2.9675  1.8305
 7368TIP3   OH246298   1.478   0.102  10.117  0.1992 -0.4217  0.0997
 7368TIP3    H146299   1.569   0.130  10.118 -0.0663  0.4573  0.7806
 7368TIP3    H246300   1.429   0.179  10.089 -0.2406 -1.2446 -1.5607
 7369TIP3   OH246301   2.805   2.413   9.294  0.2107 -0.4762  0.3692
 7369TIP3    H146302   2.819   2.319   9.295  0.5359 -0.4996 -1.6329
 7369TIP3    H246303   2.843   2.442   9.211 -0.9905  1.2374  0.3604
 7370TIP3   OH246304   2.045   3.169  11.315  0.1937 -0.3370 -0.0788
 7370TIP3    H146305   2.014   3.172  11.224  2.8591 -0.0863 -1.0432
 7370TIP3    H246306   2.020   3.254  11.351  1.1383  0.5189 -1.3372
 7371TIP3   OH246307   2.397   3.901  11.393 -0.1847  0.4350  0.3832
 7371TIP3    H146308   2.446   3.819  11.396 -0.0382  0.5426  1.6518
 7371TIP3    H246309   2.309   3.877  11.423  0.0337  0.8469  1.3730
 7372TIP3   OH246310   6.564   3.953  11.253  0.1980 -0.1732  0.2251
 7372TIP3    H146311   6.568   3.886  11.185  0.9883 -0.7491  0.8358
 7372TIP3    H246312   6.645   3.943  11.303  0.7825  1.8479 -0.2358
 7373TIP3   OH246313   5.341   2.021  11.231 -0.3861 -0.3058  0.3265
 7373TIP3    H146314   5.347   1.931  11.263 -1.8459 -0.3093  0.6648
 7373TIP3    H246315   5.303   2.070  11.304 -1.9518  0.0716 -0.6825
 7374TIP3   OH246316   3.982   1.692  10.344  0.5380  0.4278 -0.3258
 7374TIP3    H146317   3.903   1.724  10.387  0.7273 -0.0120  0.3590
 7374TIP3    H246318   3.958   1.686  10.251 -0.8760 -1.5902  0.1293
 7375TIP3   OH246319   6.644   5.496  10.920 -0.2895  0.7176  0.4534
 7375TIP3    H146320   6.609   5.407  10.928 -2.1070  1.4801  2.1287
 7375TIP3    H246321   6.732   5.491  10.958  0.0986 -0.5628 -0.5454
 7376TIP3   OH246322   4.336   4.229  10.622 -0.1566 -0.1747 -0.6199
 7376TIP3    H146323   4.293   4.144  10.633 -0.1558 -0.2467 -1.1487
 7376TIP3    H246324   4.263   4.291  10.621 -0.1025 -0.0445  0.7959
 7377TIP3   OH246325   5.379   4.491   9.244  0.0740 -0.0868  0.2050
 7377TIP3    H146326   5.357   4.444   9.325 -0.9906 -0.2196 -0.1476
 7377TIP3    H246327   5.339   4.577   9.255 -0.0642 -0.1016 -0.1767
 7378TIP3   OH246328   4.568   0.440  10.605 -0.6246 -0.6457  0.5342
 7378TIP3    H146329   4.483   0.422  10.645  0.1400 -2.9290  1.2956
 7378TIP3    H246330   4.631   0.434  10.677  0.3542 -0.7626 -0.2937
 7379TIP3   OH246331   4.794   5.572  11.482  0.0612  0.7293 -0.0477
 7379TIP3    H146332   4.829   5.525  11.557 -0.4500  0.7660  0.2214
 7379TIP3    H246333   4.794   5.509  11.410 -1.1184  0.1372  0.4423
 7380TIP3   OH246334   2.821   4.405  11.371 -0.5290 -0.3599  0.3534
 7380TIP3    H146335   2.788   4.453  11.448  0.0529  0.7258 -0.0562
 7380TIP3    H246336   2.742   4.383  11.322 -0.8228  0.1024  0.6041
 7381TIP3   OH246337   4.307   1.655  11.924  0.3146  0.3479  0.2389
 7381TIP3    H146338   4.341   1.715  11.857 -0.4487  1.1644  0.5809
 7381TIP3    H246339   4.320   1.568  11.886  2.1432  0.6592  0.0564
 7382TIP3   OH246340   4.571   4.199  11.770  0.5411 -0.2209  0.4042
 7382TIP3    H146341   4.478   4.223  11.767  0.5123 -0.4493 -1.2907
 7382TIP3    H246342   4.615   4.268  11.721  1.2829 -0.1503  1.1443
 7383TIP3   OH246343   1.560   3.010  10.005 -0.2504  0.3928 -0.1381
 7383TIP3    H146344   1.548   2.920  10.035  1.9027  0.4263  1.0128
 7383TIP3    H246345   1.607   3.002   9.922  2.4766  0.4252  1.3108
 7384TIP3   OH246346   5.565   4.517   9.601  0.2184 -0.1807  0.3997
 7384TIP3    H146347   5.621   4.507   9.525  0.0778  0.4460  0.2116
 7384TIP3    H246348   5.479   4.487   9.571 -0.5778  2.7578 -0.6317
 7385TIP3   OH246349   2.174   3.635  10.403 -0.2778  0.0825  0.0470
 7385TIP3    H146350   2.142   3.576  10.335  2.0876 -0.6130 -0.5439
 7385TIP3    H246351   2.196   3.577  10.477  0.9326  0.3252 -0.1002
 7386TIP3   OH246352   3.164   4.339   8.788  0.5031 -0.0511 -0.2109
 7386TIP3    H146353   3.078   4.307   8.815  1.2202 -1.1744  0.8391
 7386TIP3    H246354   3.149   4.375   8.701 -1.0795  0.0320  0.0527
 7387TIP3   OH246355   2.075   4.293  11.529 -0.0834 -0.1702  0.0636
 7387TIP3    H146356   2.113   4.351  11.595 -1.3405 -0.0216  0.6744
 7387TIP3    H246357   2.066   4.348  11.451 -0.1923  0.1257  0.2839
 7388TIP3   OH246358   2.309   3.349  11.300  0.1940  0.0565 -0.2153
 7388TIP3    H146359   2.299   3.349  11.205 -1.1452 -2.3726 -0.1369
 7388TIP3    H246360   2.254   3.422  11.330  1.6980  1.7143 -1.3300
 7389TIP3   OH246361   2.386   1.889   8.994  0.1981 -0.2822  0.5861
 7389TIP3    H146362   2.430   1.968   8.963 -1.4959  0.8454  0.8740
 7389TIP3    H246363   2.354   1.846   8.915 -0.5183  0.3709  0.5013
 7390TIP3   OH246364   1.261   0.776   8.693  0.5861  0.1965  0.0284
 7390TIP3    H146365   1.262   0.827   8.612  1.1032  0.0528 -0.0567
 7390TIP3    H246366   1.172   0.786   8.726  0.1624 -0.2917 -0.9078
 7391TIP3   OH246367   4.743   4.861   8.604 -0.1620  0.6719 -0.6747
 7391TIP3    H146368   4.659   4.905   8.605 -0.4656  0.0973 -0.2488
 7391TIP3    H246369   4.751   4.821   8.690 -0.5657 -1.3191 -1.4889
 7392TIP3   OH246370   3.308   3.403  11.569 -0.9405  0.0001 -0.4451
 7392TIP3    H146371   3.389   3.422  11.616  0.4949  2.1941 -3.4188
 7392TIP3    H246372   3.300   3.307  11.571  1.3439 -0.2233  0.5073
 7393TIP3   OH246373   4.826   6.556  10.596  0.2259  0.2576  0.0335
 7393TIP3    H146374   4.740   6.560  10.638 -1.0264  1.8988 -2.4676
 7393TIP3    H246375   4.845   6.647  10.573  1.5167 -0.3752 -1.5549
 7394TIP3   OH246376   2.741   0.173   9.593 -0.4366  1.1518 -0.4393
 7394TIP3    H146377   2.779   0.185   9.680 -0.6863 -0.1940 -0.1242
 7394TIP3    H246378   2.695   0.256   9.576 -0.1969  1.5233  0.6044
 7395TIP3   OH246379   1.580   0.402   9.712 -0.3638 -0.1031 -0.3452
 7395TIP3    H146380   1.610   0.434   9.626 -1.4301 -1.6806 -1.3477
 7395TIP3    H246381   1.487   0.385   9.700 -0.3265 -1.2974  0.8399
 7396TIP3   OH246382   2.653   0.205  11.842  0.5815 -0.3658 -0.1354
 7396TIP3    H146383   2.566   0.204  11.882  0.0424 -0.5051 -1.2916
 7396TIP3    H246384   2.706   0.148  11.899 -0.1346 -0.4708  0.4387
 7397TIP3   OH246385   4.609   4.378  11.403  0.2302 -0.1344  0.2073
 7397TIP3    H146386   4.591   4.444  11.337  2.0298  1.1149  0.8687
 7397TIP3    H246387   4.601   4.424  11.486 -0.4571 -1.2790  0.8063
 7398TIP3   OH246388   0.822   4.418  10.880  0.5928 -0.2547 -0.4407
 7398TIP3    H146389   0.787   4.371  10.804  2.4639 -0.3958 -1.2567
 7398TIP3    H246390   0.910   4.383  10.891  0.5026  0.0660  1.5659
 7399TIP3   OH246391   2.827   0.914   8.511  0.3276  0.3195 -0.3314
 7399TIP3    H146392   2.907   0.930   8.460 -0.1752  1.4815 -0.8064
 7399TIP3    H246393   2.858   0.873   8.592  1.3761  0.5002 -0.6244
 7400TIP3   OH246394   6.039   3.323  11.381 -0.0072 -0.9442  0.1639
 7400TIP3    H146395   6.033   3.246  11.324  0.2905 -1.5695  0.9390
 7400TIP3    H246396   5.953   3.329  11.422  0.1656 -1.2669  0.5858
 7401TIP3   OH246397   4.298   5.675   8.699 -0.1817  0.2556  0.2517
 7401TIP3    H146398   4.224   5.667   8.639  0.6396  0.4664 -0.8226
 7401TIP3    H246399   4.305   5.768   8.717  0.2028  0.3158 -0.1695
 7402TIP3   OH246400   1.133   4.972   9.651 -0.4528 -0.5116 -0.8834
 7402TIP3    H146401   1.196   5.002   9.716 -0.5005  0.7173 -1.3754
 7402TIP3    H246402   1.176   4.897   9.608 -0.4205 -1.3273  0.5175
 7403TIP3   OH246403   1.327   5.647   9.710  0.2252 -0.2898 -0.3201
 7403TIP3    H146404   1.348   5.739   9.702 -1.3268 -0.0861 -3.3170
 7403TIP3    H246405   1.403   5.601   9.674  0.0833 -0.0628 -0.9192
 7404TIP3   OH246406   1.414   5.700  11.081  0.5846 -0.3901 -0.5181
 7404TIP3    H146407   1.497   5.678  11.122  1.0596  1.4620 -0.3747
 7404TIP3    H246408   1.379   5.771  11.136 -0.7497 -0.6731 -0.9781
 7405TIP3   OH246409   3.525   4.299  11.446  0.1199  0.4478 -0.0170
 7405TIP3    H146410   3.506   4.276  11.538 -1.4451  0.1203 -0.3964
 7405TIP3    H246411   3.518   4.394  11.443  2.1573  0.6729  0.5915
 7406TIP3   OH246412   2.442   2.725  10.499 -0.5749 -0.1741 -1.0004
 7406TIP3    H146413   2.388   2.717  10.421 -0.7211 -0.4633 -0.8689
 7406TIP3    H246414   2.474   2.637  10.517 -0.2617 -0.0509 -0.9303
 7407TIP3   OH246415   2.960   4.397  11.107  0.5331 -0.4044 -0.1967
 7407TIP3    H146416   2.909   4.317  11.099 -0.3098  0.0447  0.5569
 7407TIP3    H246417   2.932   4.436  11.189  2.4777 -0.3912  0.5102
 7408TIP3   OH246418   4.556   6.391  10.421 -0.0728 -0.3218 -0.0105
 7408TIP3    H146419   4.602   6.311  10.447  0.9219 -0.1712 -1.1830
 7408TIP3    H246420   4.469   6.362  10.394  0.2024 -0.9841 -0.2058
 7409TIP3   OH246421   3.417   1.821  11.593  0.2331  0.3183  0.2247
 7409TIP3    H146422   3.472   1.744  11.607  0.5341  0.3473 -0.7207
 7409TIP3    H246423   3.335   1.786  11.559 -0.1649  0.3145  1.1600
 7410TIP3   OH246424   1.122   1.738   9.464  0.2384 -0.7912  0.3690
 7410TIP3    H146425   1.209   1.738   9.425 -0.1974  0.4920 -0.6759
 7410TIP3    H246426   1.132   1.786   9.547  0.2119  1.0339 -0.6251
 7411TIP3   OH246427   2.532   5.962   9.964 -0.1265 -0.1985 -0.3431
 7411TIP3    H146428   2.611   6.004   9.929  0.4175  0.9987  2.1141
 7411TIP3    H246429   2.551   5.868   9.962  0.0569 -0.1698 -2.6506
 7412TIP3   OH246430   1.236   5.478  11.104  0.0355  0.4263  0.3302
 7412TIP3    H146431   1.223   5.432  11.020 -0.9686  1.3067 -0.0194
 7412TIP3    H246432   1.265   5.566  11.079  1.1963  0.2457  0.9709
 7413TIP3   OH246433   4.150   3.904  10.489 -0.3470 -0.4050 -0.1492
 7413TIP3    H146434   4.198   3.824  10.470 -1.6655 -1.4156  0.5825
 7413TIP3    H246435   4.082   3.908  10.422 -1.9737 -1.4040  1.3383
 7414TIP3   OH246436   3.710   5.116   9.188  0.0581 -0.0668  0.1057
 7414TIP3    H146437   3.743   5.036   9.229  0.3461  0.2157  0.4255
 7414TIP3    H246438   3.631   5.088   9.141  0.5804 -0.6823 -0.4200
 7415TIP3   OH246439   5.984   4.331  10.075  0.2375 -0.0810 -0.5880
 7415TIP3    H146440   5.954   4.321  10.165  0.8227  0.2543 -0.3481
 7415TIP3    H246441   5.948   4.255  10.028 -3.3379  1.6348 -0.9796
 7416TIP3   OH246442   5.423   6.570  10.157  0.4638  0.3496  0.0171
 7416TIP3    H146443   5.472   6.586  10.238  0.0033  2.0531  0.0028
 7416TIP3    H246444   5.458   6.634  10.095 -0.0242 -0.1230 -0.7603
 7417TIP3   OH246445   2.868   0.042  10.893  0.4800 -0.0153  0.3015
 7417TIP3    H146446   2.797  -0.014  10.922 -0.8185  1.4603  0.1166
 7417TIP3    H246447   2.908   0.076  10.973 -1.0799  1.5854  0.4742
 7418TIP3   OH246448   1.856   4.726   9.975  0.4442 -0.4061  0.2074
 7418TIP3    H146449   1.906   4.649  10.004  0.6012 -0.9826 -1.4817
 7418TIP3    H246450   1.894   4.748   9.890  0.5125  1.6876  0.7424
 7419TIP3   OH246451   3.979   3.095  12.000 -0.6324  0.5366 -0.4175
 7419TIP3    H146452   3.923   3.056  12.068 -2.8637  0.3631 -2.2360
 7419TIP3    H246453   4.062   3.111  12.045 -1.7763 -0.1361  2.1777
 7420TIP3   OH246454   3.519   0.880  10.872  0.3976  0.4936  0.2749
 7420TIP3    H146455   3.490   0.903  10.960 -2.3865  1.4268 -0.7926
 7420TIP3    H246456   3.473   0.941  10.814 -0.1335 -1.8937 -2.0239
 7421TIP3   OH246457   2.275   6.064   9.942  0.1905 -0.6118  0.6067
 7421TIP3    H146458   2.220   6.018  10.006  0.4826  0.4026  1.6329
 7421TIP3    H246459   2.362   6.028   9.956  0.2899 -0.2521  0.9173
 7422TIP3   OH246460   3.427   2.473   8.760 -0.8652  0.2777 -0.2580
 7422TIP3    H146461   3.452   2.457   8.851 -1.0347 -1.0613 -0.4373
 7422TIP3    H246462   3.472   2.405   8.710 -0.5081  1.1954 -1.2299
 7423TIP3   OH246463   3.106   2.270   9.964  0.2664 -0.1663  0.0484
 7423TIP3    H146464   3.194   2.305   9.951 -0.5089  2.2808  0.9311
 7423TIP3    H246465   3.071   2.257   9.876  0.4413  1.8127 -0.3498
 7424TIP3   OH246466   6.049   4.966   9.204  0.2291 -0.3674  0.3177
 7424TIP3    H146467   6.088   5.054   9.210 -0.9094  0.1734 -0.0358
 7424TIP3    H246468   6.067   4.927   9.289  0.8432  0.1695  0.4478
 7425TIP3   OH246469   3.108   3.976   9.921 -0.0866  0.2177 -0.1197
 7425TIP3    H146470   3.128   3.900   9.976 -0.0959  0.4392  0.1862
 7425TIP3    H246471   3.129   4.052   9.975  0.6945  0.4320 -0.7076
 7426TIP3   OH246472   5.254   6.424   9.363  0.4273 -0.4092 -0.3707
 7426TIP3    H146473   5.291   6.482   9.429 -1.4970 -1.3586  1.6663
 7426TIP3    H246474   5.186   6.475   9.320  0.2778 -0.4256 -0.1567
 7427TIP3   OH246475   2.931   0.774  11.358  0.7847 -0.0488  0.2966
 7427TIP3    H146476   2.837   0.776  11.344  0.6531  0.1214  1.1386
 7427TIP3    H246477   2.963   0.706  11.299  0.1674  0.0457 -0.1513
 7428TIP3   OH246478   5.349   1.887   9.103 -0.2207 -0.5178 -0.6218
 7428TIP3    H146479   5.257   1.880   9.077 -0.8740  1.4642  0.9527
 7428TIP3    H246480   5.387   1.948   9.039 -0.4154 -0.0519 -0.2946
 7429TIP3   OH246481   1.380   4.952   8.479 -0.0005 -0.5135 -0.2256
 7429TIP3    H146482   1.461   4.985   8.441 -0.1017 -0.4698 -0.4020
 7429TIP3    H246483   1.405   4.869   8.519  0.1992 -0.3516 -0.0034
 7430TIP3   OH246484   2.498   1.442  11.916 -0.1513 -0.1424 -0.0890
 7430TIP3    H146485   2.581   1.443  11.963 -0.1671 -0.9655 -0.0364
 7430TIP3    H246486   2.439   1.494  11.971 -0.1756 -1.1104  0.8249
 7431TIP3   OH246487   3.066   0.247  11.748  0.2080 -0.7871  0.3207
 7431TIP3    H146488   3.082   0.174  11.688 -0.5763 -0.1312 -0.7166
 7431TIP3    H246489   3.030   0.205  11.826  0.2252 -1.5611 -0.0738
 7432TIP3   OH246490   5.656   1.726   9.529  0.2684 -0.2218  0.2597
 7432TIP3    H146491   5.750   1.740   9.537  0.4697 -0.7167 -1.0160
 7432TIP3    H246492   5.625   1.801   9.477  0.3674 -1.2383 -1.3391
 7433TIP3   OH246493   4.592   1.816   9.895 -0.3386  0.0313  0.6965
 7433TIP3    H146494   4.544   1.899   9.889  0.5591  0.6200  1.4448
 7433TIP3    H246495   4.633   1.806   9.809  0.9140  1.2294  1.1218
 7434TIP3   OH246496   5.972   6.666   9.101  0.0141 -0.1002  0.0451
 7434TIP3    H146497   5.920   6.744   9.083 -0.1843 -0.5801 -1.6444
 7434TIP3    H246498   6.040   6.696   9.161 -0.7381  1.1017  0.3347
 7435TIP3   OH246499   0.820   0.219   8.234  1.0547 -0.2734  0.3347
 7435TIP3    H146500   0.826   0.144   8.293 -1.1238 -0.5559  0.2543
 7435TIP3    H246501   0.730   0.250   8.243  0.7205 -0.1462 -2.6039
 7436TIP3   OH246502   1.327   1.989  11.566 -0.0392  0.1691 -0.7187
 7436TIP3    H146503   1.320   1.944  11.650 -0.0906 -1.5820 -1.6269
 7436TIP3    H246504   1.378   2.068  11.586 -1.7493  0.8685  1.3382
 7437TIP3   OH246505   2.132   4.748  10.184 -0.0953 -0.0562  0.5155
 7437TIP3    H146506   2.132   4.666  10.135  1.3922  0.9425 -1.2691
 7437TIP3    H246507   2.047   4.749  10.228 -1.0950 -1.4777 -1.2317
 7438TIP3   OH246508   5.903   4.571  10.483  0.3649 -0.1011 -0.0667
 7438TIP3    H146509   5.980   4.548  10.431  1.9577  0.8265  1.7574
 7438TIP3    H246510   5.871   4.488  10.517  1.5189 -0.3607  0.4132
 7439TIP3   OH246511   3.554   1.899  11.036 -0.0662 -0.3699  0.2650
 7439TIP3    H146512   3.590   1.919  11.122 -0.5794 -0.5672  0.5323
 7439TIP3    H246513   3.519   1.810  11.045 -0.9326 -0.0486  0.1209
 7440TIP3   OH246514   5.277   0.598  10.484 -0.6570 -0.2778  0.0061
 7440TIP3    H146515   5.347   0.548  10.527 -1.1737 -0.7180  0.3582
 7440TIP3    H246516   5.307   0.608  10.394  0.3705  0.5254  0.4258
 7441TIP3   OH246517   5.548   5.645  11.017  0.3853  0.1320 -0.0585
 7441TIP3    H146518   5.581   5.677  11.100  1.4986  0.4067 -0.5804
 7441TIP3    H246519   5.533   5.723  10.964 -0.3841 -0.0346 -0.0987
 7442TIP3   OH246520   3.905   5.359   9.153 -0.5049  0.5280 -0.0062
 7442TIP3    H146521   3.931   5.335   9.064 -0.8739  1.8449 -0.4855
 7442TIP3    H246522   3.896   5.275   9.198 -0.0294 -0.1491 -1.1219
 7443TIP3   OH246523   1.566   4.967  11.054  0.2103 -0.0988 -0.2322
 7443TIP3    H146524   1.561   4.974  10.959  0.5903  1.0115 -0.1886
 7443TIP3    H246525   1.640   4.909  11.070  0.5057  0.1704 -0.6096
 7444TIP3   OH246526   3.015   0.770  10.197 -0.9320 -0.2467 -0.1463
 7444TIP3    H146527   2.983   0.684  10.228  0.1008 -0.4972  0.2608
 7444TIP3    H246528   3.008   0.765  10.102 -1.3992 -0.5728 -0.1015
 7445TIP3   OH246529   5.710   3.076   9.033 -0.2588 -0.2432 -0.3903
 7445TIP3    H146530   5.664   3.129   8.967 -0.6508 -0.5765 -0.3875
 7445TIP3    H246531   5.679   3.110   9.117 -0.0844 -0.1073 -0.3793
 7446TIP3   OH246532   4.157   5.580  11.701 -0.4629 -0.1406 -0.2320
 7446TIP3    H146533   4.090   5.538  11.648  0.8049 -1.5019 -0.8179
 7446TIP3    H246534   4.125   5.669  11.715 -2.0880 -0.5876 -0.9884
 7447TIP3   OH246535   6.332   4.728   9.298  0.2264  0.0074 -0.2779
 7447TIP3    H146536   6.268   4.659   9.313 -0.1724 -0.0287 -1.9456
 7447TIP3    H246537   6.280   4.806   9.283  0.5145 -0.0711 -1.8973
 7448TIP3   OH246538   2.005   1.371  10.245  0.0944 -0.1184  0.5482
 7448TIP3    H146539   2.068   1.413  10.303 -0.0826  1.2757 -0.2119
 7448TIP3    H246540   2.032   1.398  10.157 -1.6752  0.7585  0.2243
 7449TIP3   OH246541   4.287   4.514  11.398 -0.1862 -0.1659  0.5956
 7449TIP3    H146542   4.343   4.567  11.455  1.8607 -1.5917  0.0368
 7449TIP3    H246543   4.309   4.423  11.420 -0.1898 -0.7627 -1.5899
 7450TIP3   OH246544   2.224   2.957   8.735  0.0617  0.3412 -0.5433
 7450TIP3    H146545   2.271   3.013   8.673  0.0863 -0.3204 -1.1373
 7450TIP3    H246546   2.168   3.017   8.784  0.0908  0.8813 -1.1619
 7451TIP3   OH246547   0.697   2.976   8.286  0.2539  0.0810  0.5459
 7451TIP3    H146548   0.684   2.910   8.219 -0.7573 -0.0919  0.8970
 7451TIP3    H246549   0.790   2.999   8.279  0.5514 -1.1432  0.2217
 7452TIP3   OH246550   4.890   0.714   9.210  0.2873 -0.1893  0.1093
 7452TIP3    H146551   4.828   0.660   9.160  0.5713 -0.0166 -0.4421
 7452TIP3    H246552   4.883   0.801   9.171  0.5025 -0.0462  0.3864
 7453TIP3   OH246553   2.109   0.355  10.255  0.0010  0.1755  0.1104
 7453TIP3    H146554   2.137   0.263  10.255 -0.8859 -0.1078 -0.4575
 7453TIP3    H246555   2.074   0.369  10.168  0.8580  1.3032 -0.0694
 7454TIP3   OH246556   5.109   1.751  11.134  0.5281  0.1974 -0.0880
 7454TIP3    H146557   5.071   1.839  11.140  0.2138  0.0640 -0.1363
 7454TIP3    H246558   5.172   1.748  11.206  1.4728  0.9173 -0.8639
 7455TIP3   OH246559   1.148   3.217   9.302 -0.3791  0.4087  0.0083
 7455TIP3    H146560   1.193   3.301   9.305  0.1016  0.1915 -0.8482
 7455TIP3    H246561   1.172   3.179   9.217  1.0865 -1.5028  1.2010
 7456TIP3   OH246562   0.179   2.475   8.534 -0.5132  0.0161 -0.3868
 7456TIP3    H146563   0.217   2.388   8.526  1.2884  0.6373  0.6524
 7456TIP3    H246564   0.137   2.475   8.620 -0.3776  0.2036 -0.3180
 7457TIP3   OH246565   4.703   2.741  10.575  0.3834  0.1954  0.0909
 7457TIP3    H146566   4.677   2.672  10.636  1.3837 -1.0043 -0.8036
 7457TIP3    H246567   4.777   2.704  10.527 -0.8829  0.7768 -2.4502
 7458TIP3   OH246568   2.855   5.255  11.724  0.7158 -0.6721  0.2350
 7458TIP3    H146569   2.946   5.234  11.746  0.6577 -1.4634 -0.2182
 7458TIP3    H246570   2.858   5.344  11.689  1.5479 -1.1662 -1.0434
 7459TIP3   OH246571   1.591   5.054  11.626  0.1666 -0.1321  0.1795
 7459TIP3    H146572   1.549   5.076  11.542  1.4698  2.9642  0.2050
 7459TIP3    H246573   1.518   5.047  11.688 -0.7526 -1.6492 -0.9940
 7460TIP3   OH246574   1.771   0.119  10.222 -0.1709  0.3496  0.6010
 7460TIP3    H146575   1.782   0.036  10.269 -0.7343 -0.1273 -0.0982
 7460TIP3    H246576   1.757   0.184  10.292 -0.5596 -0.2778  1.1124
 7461TIP3   OH246577   4.873   4.277   9.584  0.6445  0.3330 -0.0706
 7461TIP3    H146578   4.817   4.232   9.521 -0.7612 -0.0170  1.3663
 7461TIP3    H246579   4.940   4.213   9.607 -1.3197 -1.1418  1.9309
 7462TIP3   OH246580   4.921   0.146  10.913  0.6696  0.2706  0.0006
 7462TIP3    H146581   4.903   0.173  10.823  1.0030  0.0728 -0.1256
 7462TIP3    H246582   4.923   0.228  10.963  0.0670  0.3475 -0.0961
 7463TIP3   OH246583   2.946   3.343  10.342 -0.8146 -0.3205 -0.5709
 7463TIP3    H146584   2.985   3.370  10.259  0.7280 -0.5448  0.0453
 7463TIP3    H246585   2.985   3.257  10.360 -1.6151 -0.5669  0.0875
 7464TIP3   OH246586   0.877   3.985   8.689  0.7120  0.2032  0.0783
 7464TIP3    H146587   0.920   3.900   8.691 -0.8182 -0.6568 -1.0039
 7464TIP3    H246588   0.933   4.040   8.634  2.7484  0.5783  2.3562
 7465TIP3   OH246589   0.255   6.453  10.924  0.4509 -0.4467  0.7109
 7465TIP3    H146590   0.247   6.545  10.948 -0.2401 -0.6009  1.1016
 7465TIP3    H246591   0.254   6.406  11.007 -2.8804 -1.0492  0.4793
 7466TIP3   OH246592   2.605   1.178   9.490 -0.1245  0.3983  0.1526
 7466TIP3    H146593   2.683   1.222   9.524  0.0118  0.2932 -0.0220
 7466TIP3    H246594   2.535   1.202   9.552  0.2264 -0.1986  0.7852
 7467TIP3   OH246595   4.629   6.071  10.882  0.6803 -0.1135 -0.7118
 7467TIP3    H146596   4.721   6.046  10.887  0.9397  1.0153  0.7095
 7467TIP3    H246597   4.630   6.162  10.853  0.0892  0.2454  0.3323
 7468TIP3   OH246598   2.408   2.666   9.928 -0.0370  0.3716 -0.2097
 7468TIP3    H146599   2.448   2.696  10.010  0.8545 -0.7317 -0.2056
 7468TIP3    H246600   2.478   2.616   9.885 -1.0271 -0.4976 -0.8462
 7469TIP3   OH246601   2.044   5.000   9.192  0.2171  0.0541  0.2875
 7469TIP3    H146602   2.066   5.092   9.183 -0.8947  0.2298 -0.8944
 7469TIP3    H246603   1.982   4.983   9.122  2.2521 -2.2093 -1.1472
 7470TIP3   OH246604   0.255   3.053  11.935 -0.0123 -0.0328  0.1963
 7470TIP3    H146605   0.267   2.966  11.899  2.9580  0.1183  0.5883
 7470TIP3    H246606   0.177   3.046  11.990  1.2597 -3.0464  1.8659
 7471TIP3   OH246607   1.177   2.918   9.347 -0.1813 -0.2393  0.4311
 7471TIP3    H146608   1.264   2.936   9.384  0.3534 -1.4951 -0.1301
 7471TIP3    H246609   1.145   3.003   9.318  2.2879 -0.0561 -2.3282
 7472TIP3   OH246610   5.095   6.210  11.249  0.0296  0.5638 -0.9565
 7472TIP3    H146611   5.081   6.303  11.265 -1.1503  0.0790  1.1480
 7472TIP3    H246612   5.007   6.174  11.240  0.2331 -0.8279  1.6360
 7473TIP3   OH246613   5.820   3.392  11.519  0.0209 -0.1865 -0.3695
 7473TIP3    H146614   5.745   3.436  11.480 -0.6135 -2.4918 -1.9431
 7473TIP3    H246615   5.786   3.350  11.598  0.4239  1.2942  0.6348
 7474TIP3   OH246616   3.800   4.396   9.512  0.4767  0.6317  0.6567
 7474TIP3    H146617   3.741   4.453   9.561 -0.2554 -0.3124  0.9112
 7474TIP3    H246618   3.875   4.384   9.570  0.4783  1.0498  0.7425
 7475TIP3   OH246619   4.814   5.613  10.523 -0.2619 -0.0924 -0.4899
 7475TIP3    H146620   4.769   5.672  10.463 -1.1714 -1.3584 -1.1128
 7475TIP3    H246621   4.904   5.609  10.490 -0.0358  1.3257 -0.1149
 7476TIP3   OH246622   6.232   4.364   8.887 -0.8057 -0.1924 -0.0556
 7476TIP3    H146623   6.155   4.327   8.931 -2.4126  0.3615 -2.2429
 7476TIP3    H246624   6.243   4.310   8.809 -0.2090  0.9407 -0.7835
 7477TIP3   OH246625   3.474   3.837  10.930  0.2879 -0.2319  0.1503
 7477TIP3    H146626   3.387   3.876  10.929  0.1044 -0.5661  1.4765
 7477TIP3    H246627   3.489   3.810  10.839 -0.1380  1.6433 -0.5173
 7478TIP3   OH246628   2.277   2.926  11.647  0.8156  0.1108  0.0527
 7478TIP3    H146629   2.325   3.008  11.654 -0.5885  1.1292 -1.4458
 7478TIP3    H246630   2.255   2.902  11.737  0.7600  1.6906  0.4791
 7479TIP3   OH246631   2.596   0.429  18.833  0.1229  0.4757  0.6631
 7479TIP3    H146632   2.534   0.447  18.903  1.6746  1.1944  1.9002
 7479TIP3    H246633   2.615   0.335  18.842 -0.4436  0.3458  0.5468
 7480TIP3   OH246634   3.249   4.671   8.556 -0.6839 -0.4247  0.3541
 7480TIP3    H146635   3.280   4.759   8.531 -1.0963 -0.9510 -2.2428
 7480TIP3    H246636   3.157   4.670   8.532 -0.3308 -2.0364 -1.0878
 7481TIP3   OH246637   6.652   4.933  10.249 -0.0985 -0.4152  0.1290
 7481TIP3    H146638   6.646   5.028  10.259 -3.5641 -0.4399 -0.3886
 7481TIP3    H246639   6.720   4.921  10.182  0.4936  1.6648  0.2727
 7482TIP3   OH246640   0.337   5.181   8.827  0.0046  0.0795 -0.1615
 7482TIP3    H146641   0.261   5.221   8.785 -0.1629  0.0214  0.0814
 7482TIP3    H246642   0.407   5.186   8.762  0.1918  1.4422  0.1308
 7483TIP3   OH246643   1.401   3.174  10.177 -0.2738 -0.0444  0.0056
 7483TIP3    H146644   1.432   3.112  10.112  1.0994  0.1297  0.4548
 7483TIP3    H246645   1.317   3.139  10.207 -0.5084 -0.5641 -1.2300
 7484TIP3   OH246646   2.409   0.758  11.393 -0.7626 -0.2020  0.3524
 7484TIP3    H146647   2.408   0.672  11.437 -1.3606 -0.1270  0.4936
 7484TIP3    H246648   2.373   0.741  11.307 -1.4115  0.0064  0.5767
 7485TIP3   OH246649   1.543   4.194  10.866 -0.1917  0.0070 -0.0756
 7485TIP3    H146650   1.451   4.220  10.855  0.0016  0.3787 -0.8928
 7485TIP3    H246651   1.546   4.151  10.952 -0.9105  0.9311  0.4281
 7486TIP3   OH246652   2.749   6.029   9.285  0.0160 -0.5418  0.1605
 7486TIP3    H146653   2.797   6.111   9.270 -0.6876  0.1978  1.6710
 7486TIP3    H246654   2.724   6.000   9.198  1.7625 -0.0793 -0.5467
 7487TIP3   OH246655   6.067   0.395   9.904 -0.0306 -0.2516  0.0378
 7487TIP3    H146656   5.975   0.393   9.877 -0.3167 -0.4004  0.9618
 7487TIP3    H246657   6.099   0.480   9.874 -0.2421 -0.5179 -0.9771
 7488TIP3   OH246658   1.602   3.259  10.990  0.8198  0.0093  0.3529
 7488TIP3    H146659   1.508   3.248  10.976  1.0099 -1.6741  0.2543
 7488TIP3    H246660   1.637   3.282  10.904  0.9225 -2.6973 -0.4187
 7489TIP3   OH246661   2.086   4.446  10.938  0.0550  0.2990 -0.4135
 7489TIP3    H146662   2.075   4.524  10.884  0.4883 -2.1934 -4.4814
 7489TIP3    H246663   2.176   4.419  10.923  0.0176 -0.8293  1.1797
 7490TIP3   OH246664   2.089   3.758  11.769 -0.1954 -0.4028  0.2123
 7490TIP3    H146665   1.997   3.758  11.795 -0.8326  0.8411 -1.8279
 7490TIP3    H246666   2.116   3.666  11.774 -2.1535 -1.0937 -1.1057
 7491TIP3   OH246667   2.870   4.040   9.803 -0.2352  0.5045  0.5214
 7491TIP3    H146668   2.932   4.055   9.731 -0.9958  0.7895 -0.0835
 7491TIP3    H246669   2.923   4.000   9.872  0.5444  0.3901 -0.1309
 7492TIP3   OH246670   5.816   5.523  11.205  0.1405  0.3006 -0.5968
 7492TIP3    H146671   5.722   5.512  11.186 -0.3061  0.4278  1.3503
 7492TIP3    H246672   5.820   5.538  11.299  2.1812 -0.2121 -0.5527
 7493TIP3   OH246673   6.039   1.523  11.093 -0.2070 -0.4707 -0.2220
 7493TIP3    H146674   6.023   1.554  11.003  0.4039 -1.7922 -0.8088
 7493TIP3    H246675   6.058   1.430  11.083 -1.8364 -1.0395  1.4752
 7494TIP3   OH246676   2.900   3.693  11.055  0.2010 -0.5656 -0.5068
 7494TIP3    H146677   2.822   3.660  11.099  0.9803  0.2795  1.6132
 7494TIP3    H246678   2.972   3.642  11.092  0.7686 -0.8420 -1.9111
 7495TIP3   OH246679   4.530   1.431   8.627  0.4416 -0.1748  0.5946
 7495TIP3    H146680   4.561   1.405   8.541 -2.3677  0.6593 -0.7827
 7495TIP3    H246681   4.489   1.517   8.613 -0.8520 -0.4067  2.5439
 7496TIP3   OH246682   3.819   1.270   9.667 -0.4578  0.6597  0.1079
 7496TIP3    H146683   3.737   1.265   9.617 -0.5641  0.7689  0.2702
 7496TIP3    H246684   3.883   1.224   9.613 -1.2836 -2.1155  1.3124
 7497TIP3   OH246685   1.057   3.433   8.665 -0.4552 -0.3798 -0.4474
 7497TIP3    H146686   1.075   3.372   8.737 -0.1185  0.8645  0.5805
 7497TIP3    H246687   0.979   3.398   8.622 -1.0908 -0.8055  0.9781
 7498TIP3   OH246688   1.670   6.215   8.506  0.2054 -0.2383  0.4427
 7498TIP3    H146689   1.586   6.254   8.479  0.1200  0.1094  1.1823
 7498TIP3    H246690   1.645   6.135   8.553  0.3485 -0.7918 -0.4040
 7499TIP3   OH246691   3.348   3.484   8.560  0.4520 -0.3580  0.2619
 7499TIP3    H146692   3.297   3.565   8.556  0.2059 -0.2358  3.6503
 7499TIP3    H246693   3.355   3.457   8.468 -0.4041  2.8590 -0.9000
 7500TIP3   OH246694   4.492   3.941  11.695  0.0911  0.4342 -0.0603
 7500TIP3    H146695   4.574   3.905  11.661  0.1147  0.2370  0.1966
 7500TIP3    H246696   4.517   4.025  11.734  0.3609 -0.0647  0.8971
 7501TIP3   OH246697   2.903   3.136   8.397  0.2265 -0.2289  0.7063
 7501TIP3    H146698   2.860   3.085   8.465  1.7720 -0.0856  1.8463
 7501TIP3    H246699   2.880   3.227   8.417  2.0682 -0.0218  2.1558
 7502TIP3   OH246700   4.692   5.257  10.724  0.2931  0.1049 -0.3039
 7502TIP3    H146701   4.683   5.324  10.792  0.5590 -0.6452  0.4904
 7502TIP3    H246702   4.617   5.271  10.666 -1.2302 -0.6302  1.3900
 7503TIP3   OH246703   2.638   0.743  10.699  0.3438  0.4090 -0.2034
 7503TIP3    H146704   2.558   0.710  10.658  2.2248 -1.9306 -2.2891
 7503TIP3    H246705   2.646   0.692  10.780  0.4399 -0.4438 -0.7317
 7504TIP3   OH246706   6.239   2.768  10.336  0.2834  0.2773  0.1923
 7504TIP3    H146707   6.161   2.795  10.384  0.0058  0.1650 -0.1931
 7504TIP3    H246708   6.267   2.687  10.379 -1.2005 -1.0190 -1.1348
 7505TIP3   OH246709   2.859   4.442   8.779  0.2633 -0.1978  0.0548
 7505TIP3    H146710   2.868   4.509   8.846  2.3254 -0.9943  0.6478
 7505TIP3    H246711   2.839   4.362   8.829  2.8081 -1.0054 -0.0957
 7506TIP3   OH246712   4.717   4.529  11.070  0.6247 -0.7057  0.1081
 7506TIP3    H146713   4.726   4.590  11.143 -0.3247 -0.3917 -0.0187
 7506TIP3    H246714   4.770   4.566  11.001  0.3263 -0.1992  0.1473
 7507TIP3   OH246715   3.288   5.976  10.506  0.0045  0.4701  0.5659
 7507TIP3    H146716   3.291   6.014  10.594  0.0401 -1.0081  1.2288
 7507TIP3    H246717   3.363   6.016  10.461  0.0367  1.1839  1.2146
 7508TIP3   OH246718   2.115   3.857  11.516  0.0864  0.1111 -0.1358
 7508TIP3    H146719   2.094   3.811  11.597  0.5923  0.6646  0.3143
 7508TIP3    H246720   2.061   3.936  11.519  0.2954  0.2585 -0.2167
 7509TIP3   OH246721   3.823   6.610  10.048 -0.3129 -0.0143 -0.0446
 7509TIP3    H146722   3.893   6.646   9.992  1.7762 -1.3629  1.5316
 7509TIP3    H246723   3.808   6.678  10.113 -1.1775  0.6548 -0.9097
 7510TIP3   OH246724   1.667   4.478  11.365  0.3020 -0.1699 -0.0531
 7510TIP3    H146725   1.752   4.521  11.380  0.3130  0.1056 -0.8572
 7510TIP3    H246726   1.651   4.490  11.272 -1.0003  0.4872  0.2359
 7511TIP3   OH246727   0.726   2.075   9.629  0.4504  0.3276  0.0140
 7511TIP3    H146728   0.697   2.145   9.688 -0.6737 -1.2235  1.3794
 7511TIP3    H246729   0.794   2.028   9.678 -0.6316 -1.0964  0.2038
 7512TIP3   OH246730   0.463   2.734   9.604 -0.2626 -0.1016 -0.0618
 7512TIP3    H146731   0.369   2.723   9.619  0.1040 -1.1965  1.7924
 7512TIP3    H246732   0.498   2.758   9.690  1.3162 -1.0043 -0.4072
 7513TIP3   OH246733   4.537   6.069  11.878  0.0083  0.0674 -0.7572
 7513TIP3    H146734   4.502   6.153  11.849  0.4536  0.3947 -0.3757
 7513TIP3    H246735   4.470   6.033  11.937 -0.6098 -0.3022 -1.6660
 7514TIP3   OH246736   3.724   4.591   8.525  0.7028  0.1142 -0.1762
 7514TIP3    H146737   3.794   4.593   8.460  0.7856  0.8486 -0.0776
 7514TIP3    H246738   3.769   4.600   8.609  0.5660 -0.4401 -0.0428
 7515TIP3   OH246739   4.577   4.391   9.975 -0.4288 -0.2214 -0.2419
 7515TIP3    H146740   4.643   4.438  10.026  0.8828 -1.7140 -0.4779
 7515TIP3    H246741   4.512   4.363  10.040 -0.5504  0.7713  0.0809
 7516TIP3   OH246742   5.767   0.192   9.022 -0.2365 -0.5030 -0.1455
 7516TIP3    H146743   5.755   0.258   9.089  0.1197  0.3643 -0.9064
 7516TIP3    H246744   5.702   0.125   9.041 -1.6813  0.8236 -0.2679
 7517TIP3   OH246745   0.399   1.564  10.004  0.2693  0.3902 -0.0618
 7517TIP3    H146746   0.392   1.641  10.060 -0.9291  0.5492 -0.4117
 7517TIP3    H246747   0.364   1.593   9.920 -1.3869 -0.8837  0.1547
 7518TIP3   OH246748   0.036   2.616  10.658 -0.2106  0.0119 -0.6036
 7518TIP3    H146749   0.120   2.617  10.612  0.7123 -0.8581  0.9471
 7518TIP3    H246750  -0.016   2.550  10.613  1.1262 -1.7401  0.2682
 7519TIP3   OH246751   1.453   0.897  10.402 -0.3917  0.3873 -0.2388
 7519TIP3    H146752   1.436   0.884  10.308 -0.5831 -0.0972 -0.1350
 7519TIP3    H246753   1.541   0.862  10.416 -0.6444 -0.2004 -0.0958
 7520TIP3   OH246754   2.353   4.498  11.230  0.8066 -0.7663  0.4794
 7520TIP3    H146755   2.395   4.566  11.178 -2.6324  0.8912 -0.4585
 7520TIP3    H246756   2.312   4.546  11.303 -3.1820 -1.3362 -1.1411
 7521TIP3   OH246757   1.021   2.336  11.573  0.2962 -0.0015  0.4143
 7521TIP3    H146758   1.099   2.369  11.617 -0.0100  1.4703 -0.0964
 7521TIP3    H246759   0.967   2.301  11.643  0.0628  1.8005  1.1935
 7522TIP3   OH246760   0.483   4.256   8.784 -0.1911 -0.2640 -0.6299
 7522TIP3    H146761   0.524   4.296   8.861  0.2733  0.4072 -1.2157
 7522TIP3    H246762   0.557   4.231   8.729 -0.5088 -1.1246 -0.6849
 7523TIP3   OH246763   3.726   0.541  10.586  0.4579  0.5032 -0.2424
 7523TIP3    H146764   3.707   0.530  10.680  0.8064 -3.6442 -0.4776
 7523TIP3    H246765   3.650   0.589  10.552 -1.3487 -0.8395  1.6352
 7524TIP3   OH246766   4.880   1.502  10.220  0.4380  0.0817 -0.7159
 7524TIP3    H146767   4.819   1.574  10.234  1.5324  0.8306  0.3832
 7524TIP3    H246768   4.824   1.424  10.213 -0.5800  0.5026  1.8613
 7525TIP3   OH246769   3.883   4.599   8.764  0.3097  0.0972  0.2041
 7525TIP3    H146770   3.829   4.590   8.843 -0.2529 -0.4776 -0.2386
 7525TIP3    H246771   3.972   4.578   8.793 -0.1473 -1.8505  0.3425
 7526TIP3   OH246772   3.321   5.340  11.895 -0.2729  0.2658  0.0975
 7526TIP3    H146773   3.394   5.329  11.956  0.6137  0.8890 -0.8164
 7526TIP3    H246774   3.264   5.405  11.937  1.1211  1.8793 -0.3870
 7527TIP3   OH246775   4.253   6.555  10.163 -0.2232 -0.1176  0.3959
 7527TIP3    H146776   4.334   6.514  10.134 -0.1340 -0.5532  1.2287
 7527TIP3    H246777   4.240   6.522  10.252 -0.1191  1.7053  1.1287
 7528TIP3   OH246778   1.077   4.614   9.549  0.5499 -0.1259 -0.2100
 7528TIP3    H146779   1.103   4.526   9.575 -1.3845 -0.7536 -0.2213
 7528TIP3    H246780   1.122   4.629   9.466  0.7364 -1.1933 -0.3121
 7529TIP3   OH246781   1.743   0.179   8.853 -0.3077 -0.0055 -0.0521
 7529TIP3    H146782   1.789   0.101   8.822 -1.2709 -0.5125 -0.2366
 7529TIP3    H246783   1.651   0.154   8.855 -0.5460  0.8710  0.6804
 7530TIP3   OH246784   4.158   5.115   9.831 -0.2766  0.8607 -0.2435
 7530TIP3    H146785   4.164   5.025   9.800 -1.0737  0.4445  0.7492
 7530TIP3    H246786   4.172   5.168   9.752  2.3423 -0.0480 -0.5144
 7531TIP3   OH246787   3.048   3.075   9.150  0.8137  0.0479 -0.2861
 7531TIP3    H146788   3.076   2.992   9.188  2.1475  1.0812  1.1020
 7531TIP3    H246789   3.062   3.140   9.219 -0.8238  1.3506 -1.0968
 7532TIP3   OH246790   4.435   2.121  10.900 -0.4650  0.5619 -0.1442
 7532TIP3    H146791   4.483   2.139  10.819 -1.6879  0.0103 -1.0143
 7532TIP3    H246792   4.453   2.196  10.956  2.2870 -0.0852  0.0045
 7533TIP3   OH246793   3.231   4.571   9.202  0.3716  0.6901 -0.9172
 7533TIP3    H146794   3.200   4.481   9.199  5.0559 -1.2190 -2.7560
 7533TIP3    H246795   3.292   4.572   9.277 -1.4621  3.2140  0.6810
 7534TIP3   OH246796   4.790   4.163  10.182  0.2864 -0.0138 -0.3728
 7534TIP3    H146797   4.820   4.077  10.210 -1.2535 -0.4713 -0.0855
 7534TIP3    H246798   4.800   4.162  10.087  0.4901 -0.4205 -0.3493
 7535TIP3   OH246799   0.954   6.480  11.099 -0.4877  0.0864  0.3278
 7535TIP3    H146800   0.992   6.452  11.182  1.2932  0.7780 -0.2199
 7535TIP3    H246801   1.029   6.497  11.042 -1.6504  0.4617 -1.1557
 7536TIP3   OH246802   2.590   3.300  10.976 -0.3522 -0.1452  0.0990
 7536TIP3    H146803   2.615   3.378  11.025  0.8894 -0.3348 -0.2068
 7536TIP3    H246804   2.673   3.259  10.952 -0.9660 -0.8847 -0.8293
 7537TIP3   OH246805   5.398   0.216  10.735  0.3111 -0.1869  0.0096
 7537TIP3    H146806   5.333   0.241  10.800  0.5117 -0.4931  0.3375
 7537TIP3    H246807   5.366   0.133  10.700  0.1553  0.0263 -0.3470
 7538TIP3   OH246808   1.025   1.330   9.775  0.4560 -0.2639 -0.3408
 7538TIP3    H146809   0.977   1.380   9.841 -0.1619 -1.6515  0.2926
 7538TIP3    H246810   1.107   1.378   9.764 -0.1897  0.9864  0.0938
 7539TIP3   OH246811   5.625   1.361  11.640  0.2006 -0.3584  0.0449
 7539TIP3    H146812   5.610   1.267  11.647 -1.2336 -0.2108 -0.6516
 7539TIP3    H246813   5.585   1.398  11.719 -1.7880 -0.1149 -1.0132
 7540TIP3   OH246814   4.767   5.086  11.523 -0.1901  0.4504  0.0348
 7540TIP3    H146815   4.735   5.081  11.433  0.1081  3.0216 -0.2870
 7540TIP3    H246816   4.693   5.058  11.576  0.1406 -2.6991 -0.9982
 7541TIP3   OH246817   5.780   1.792  11.920  0.0036 -0.0799  0.0558
 7541TIP3    H146818   5.713   1.859  11.927 -0.5430 -0.4674 -1.1392
 7541TIP3    H246819   5.733   1.709  11.927  0.4719 -0.3451  0.1031
 7542TIP3   OH246820   3.173   3.527   9.626 -0.6795  0.4753  0.3259
 7542TIP3    H146821   3.124   3.609   9.628 -2.0034 -0.0433 -3.3629
 7542TIP3    H246822   3.106   3.459   9.637  0.0478 -0.1908  0.8186
 7543TIP3   OH246823   5.210   5.100  11.209 -0.0523  0.1538 -0.3992
 7543TIP3    H146824   5.127   5.071  11.170 -0.9858  0.9313  0.9182
 7543TIP3    H246825   5.271   5.102  11.136 -1.5683  0.9580 -1.7081
 7544TIP3   OH246826   5.861   6.453   9.921 -0.1692 -0.3043  0.2952
 7544TIP3    H146827   5.932   6.516   9.928  0.1444 -0.5721 -0.3822
 7544TIP3    H246828   5.781   6.506   9.928  0.0930  0.0656  0.5050
 7545TIP3   OH246829   5.307   5.810   8.618 -0.0428 -0.1686 -0.2827
 7545TIP3    H146830   5.362   5.882   8.647 -1.9381  0.5427  1.8157
 7545TIP3    H246831   5.368   5.738   8.601  1.5174  0.0088  3.5688
 7546TIP3   OH246832   2.827   6.288   9.200  0.0029  0.7251  0.1343
 7546TIP3    H146833   2.865   6.335   9.126 -0.8833 -1.7345 -2.0775
 7546TIP3    H246834   2.733   6.290   9.184 -0.1546 -0.4477  0.7654
 7547TIP3   OH246835   3.164   0.585   9.731 -0.1134  0.4121 -0.1349
 7547TIP3    H146836   3.184   0.606   9.822 -0.5080 -0.3586  0.1422
 7547TIP3    H246837   3.081   0.537   9.736  0.3128 -0.4085 -0.8144
 7548TIP3   OH246838   0.638   3.993   9.029 -0.6837  0.1608  0.2783
 7548TIP3    H146839   0.696   3.918   9.015  0.2832  0.8685  0.3749
 7548TIP3    H246840   0.697   4.068   9.031 -1.6632  0.9511 -0.0473
 7549TIP3   OH246841   2.740   2.825   9.873  0.2547 -0.0022  0.3145
 7549TIP3    H146842   2.666   2.876   9.842 -1.3584 -1.2178  1.9871
 7549TIP3    H246843   2.782   2.793   9.793 -0.1442  1.8477 -0.6918
 7550TIP3   OH246844   0.346   0.039  10.859 -0.4898  0.7773  0.5388
 7550TIP3    H146845   0.335   0.134  10.855 -0.0195  0.8114 -0.2626
 7550TIP3    H246846   0.441   0.026  10.854 -0.4849  0.2933  1.6091
 7551TIP3   OH246847   1.109   5.091  10.655  0.5058  0.0380 -0.1517
 7551TIP3    H146848   1.113   4.998  10.677  0.2740 -0.0743 -0.5690
 7551TIP3    H246849   1.111   5.135  10.740 -1.3343 -0.4212  0.1733
 7552TIP3   OH246850   0.521   4.210  10.277  0.4411  0.5633  0.2600
 7552TIP3    H146851   0.572   4.161  10.341  1.4451  2.1497  0.7200
 7552TIP3    H246852   0.540   4.167  10.193  0.4986 -0.4335  0.7753
 7553TIP3   OH246853   4.886   3.221  10.953 -0.5076  0.3981  0.5580
 7553TIP3    H146854   4.795   3.231  10.981 -0.4224  1.6055  0.4611
 7553TIP3    H246855   4.924   3.308  10.963  0.0905  0.4126 -1.3200
 7554TIP3   OH246856   1.263   6.216  11.619 -0.0071 -0.0921  0.6988
 7554TIP3    H146857   1.205   6.271  11.672 -2.5403 -0.0866 -1.8220
 7554TIP3    H246858   1.223   6.129  11.624 -0.3004 -0.0938 -1.0993
 7555TIP3   OH246859   0.117   0.106   9.730  0.2818  0.2087 -0.0345
 7555TIP3    H146860   0.086   0.015   9.726 -1.1989  0.7005 -0.2308
 7555TIP3    H246861   0.182   0.105   9.801 -0.1701 -0.8738  0.4063
 7556TIP3   OH246862   6.500   6.327   9.686  0.4422 -0.2852 -0.2973
 7556TIP3    H146863   6.479   6.235   9.696 -2.8895  0.3506 -0.2263
 7556TIP3    H246864   6.515   6.338   9.592  1.7551 -0.9959 -0.1943
 7557TIP3   OH246865   4.689   4.195  10.996 -0.4878  0.2461 -0.4844
 7557TIP3    H146866   4.656   4.211  11.085 -1.1076 -0.2249 -0.6259
 7557TIP3    H246867   4.639   4.254  10.941  1.7355  2.5486 -0.2480
 7558TIP3   OH246868   0.208   2.442   9.517 -0.3059 -0.4217 -0.0406
 7558TIP3    H146869   0.160   2.522   9.538  0.5294 -0.2023  1.1155
 7558TIP3    H246870   0.141   2.375   9.511 -1.2203  0.5823 -2.5384
 7559TIP3   OH246871   4.939   6.510   9.925  0.0480 -0.2839  0.0442
 7559TIP3    H146872   4.972   6.441   9.981 -0.3147 -0.9765 -0.5765
 7559TIP3    H246873   5.001   6.583   9.936  1.7379 -1.4990 -1.0338
 7560TIP3   OH246874   1.914   0.881   9.505 -0.3621  0.0695 -0.3019
 7560TIP3    H146875   1.896   0.822   9.578 -2.3655 -0.5295 -1.1880
 7560TIP3    H246876   1.931   0.965   9.545  0.9802 -0.7533  0.9295
 7561TIP3   OH246877   2.016   4.999   8.271  0.1050  0.5052 -0.1018
 7561TIP3    H146878   2.068   4.934   8.317 -0.6980  0.0708  0.2070
 7561TIP3    H246879   2.034   5.082   8.316 -0.8042  0.0620  1.1204
 7562TIP3   OH246880   1.608   3.097  10.367 -0.2361 -0.2623  0.5279
 7562TIP3    H146881   1.610   3.096  10.463 -2.1964 -1.5884  0.6034
 7562TIP3    H246882   1.521   3.130  10.345  0.4055  0.6089 -0.8420
 7563TIP3   OH246883   1.464   2.137   8.765 -0.0971 -0.1860  0.3560
 7563TIP3    H146884   1.555   2.165   8.777  0.2096 -0.3279 -1.3988
 7563TIP3    H246885   1.452   2.135   8.670 -2.0558  0.1989  0.5615
 7564TIP3   OH246886   2.441   5.096   9.195 -0.4079  0.0319  0.3405
 7564TIP3    H146887   2.422   5.184   9.163 -1.2765  0.4297  1.8768
 7564TIP3    H246888   2.477   5.050   9.119 -0.6671  1.4718 -0.6842
 7565TIP3   OH246889   1.946   3.027   9.169  0.0656  0.3547  0.1399
 7565TIP3    H146890   1.890   2.955   9.198  0.1996 -0.7470 -2.1096
 7565TIP3    H246891   1.886   3.100   9.155 -0.3397  0.1540  0.8083
 7566TIP3   OH246892   3.878   2.549  11.515 -0.3423  0.3484  0.3225
 7566TIP3    H146893   3.871   2.551  11.611 -1.2376  0.1225  0.2755
 7566TIP3    H246894   3.962   2.590  11.496 -0.7925  1.6894  1.1385
 7567TIP3   OH246895   2.080   6.564  10.604 -0.3648  0.4494  0.3430
 7567TIP3    H146896   2.170   6.556  10.571 -0.1857  1.5608  0.5369
 7567TIP3    H246897   2.089   6.608  10.689 -1.2355  2.4306 -0.5418
 7568TIP3   OH246898   0.206   0.434  10.652  0.1343  0.4946  0.0728
 7568TIP3    H146899   0.243   0.445  10.565  1.4442  0.3864  0.6030
 7568TIP3    H246900   0.274   0.391  10.703 -0.9349 -0.2590  0.9280
 7569TIP3   OH246901   4.183   3.953   9.563  0.6344  0.1336 -0.0925
 7569TIP3    H146902   4.277   3.967   9.556  0.5272  1.3881  0.7264
 7569TIP3    H246903   4.167   3.938   9.656 -0.2405  2.2117  0.1388
 7570TIP3   OH246904   2.206   6.402  10.337  0.5040  0.4618 -0.0627
 7570TIP3    H146905   2.265   6.412  10.263  1.0514  0.4655  0.3741
 7570TIP3    H246906   2.123   6.374  10.297  0.6039  1.0889 -0.7316
 7571TIP3   OH246907   1.397   2.257  11.597 -0.1392 -0.3596 -0.2435
 7571TIP3    H146908   1.377   2.257  11.691  1.9351  1.5869  0.2664
 7571TIP3    H246909   1.352   2.335  11.563  0.3617 -0.2108 -0.5677
 7572TIP3   OH246910   2.595   2.511  11.467  0.2819  0.4416 -0.5584
 7572TIP3    H146911   2.660   2.563  11.419  0.1836 -0.0927 -1.2820
 7572TIP3    H246912   2.560   2.571  11.532 -0.5678  1.6043 -2.0326
 7573TIP3   OH246913   3.827   3.853  10.746  0.4330 -0.3469 -0.8295
 7573TIP3    H146914   3.774   3.932  10.758 -0.4454 -0.7229 -2.0681
 7573TIP3    H246915   3.886   3.853  10.822 -0.8723  0.4358  0.2473
 7574TIP3   OH246916   2.408   1.280   8.746 -0.1969  0.0858  0.4279
 7574TIP3    H146917   2.502   1.280   8.764 -0.2236 -0.3457  0.5807
 7574TIP3    H246918   2.400   1.321   8.660  0.1303  0.1247  0.4153
 7575TIP3   OH246919   2.888   1.860   8.344  0.1949  0.1840 -0.9287
 7575TIP3    H146920   2.885   1.952   8.370  1.8732 -0.2420  1.0354
 7575TIP3    H246921   2.960   1.856   8.281 -0.1980  0.2727 -1.3915
 7576TIP3   OH246922   4.503   1.164  10.306 -0.2688 -0.6790 -0.4465
 7576TIP3    H146923   4.437   1.111  10.351 -0.0720 -0.6339 -0.0992
 7576TIP3    H246924   4.461   1.250  10.296  0.2022 -0.2566  0.9549
 7577TIP3   OH246925   3.385   3.829   8.315 -0.0423  0.4043  0.1873
 7577TIP3    H146926   3.352   3.784   8.237 -0.9632  0.2120  0.6870
 7577TIP3    H246927   3.317   3.818   8.380  0.8007  0.4174  1.0907
 7578TIP3   OH246928   1.367   1.376  10.148  0.2976  0.2875  0.2170
 7578TIP3    H146929   1.388   1.452  10.094  1.2180  0.3618  0.6564
 7578TIP3    H246930   1.277   1.391  10.178 -0.5146 -0.0888 -1.8284
 7579TIP3   OH246931   1.590   3.478   9.590  0.1801  0.3340 -0.2708
 7579TIP3    H146932   1.621   3.412   9.528  0.9592  1.2200 -0.8616
 7579TIP3    H246933   1.574   3.430   9.670  2.9633 -0.2643  0.0261
 7580TIP3   OH246934   3.579   5.006   9.997 -0.0582  0.1513  0.1810
 7580TIP3    H146935   3.577   4.935  10.061 -1.1632 -1.0786 -1.1798
 7580TIP3    H246936   3.649   4.981   9.936 -1.7494 -0.8466 -1.4370
 7581TIP3   OH246937   6.556   5.763   8.823 -0.9581 -0.1232 -0.6490
 7581TIP3    H146938   6.473   5.775   8.868 -1.0004 -0.6401 -0.5909
 7581TIP3    H246939   6.622   5.789   8.888 -1.1337  4.1862 -1.8849
 7582TIP3   OH246940   3.987   4.239  10.470 -0.0031 -0.7222 -0.4603
 7582TIP3    H146941   3.927   4.273  10.404 -1.9287  0.9542  2.0085
 7582TIP3    H246942   4.070   4.283  10.451 -1.3037  2.1255 -0.0188
 7583TIP3   OH246943   5.892   6.370  10.912 -0.6011 -0.6902  0.3006
 7583TIP3    H146944   5.956   6.345  10.844 -1.0013 -1.3812  0.1697
 7583TIP3    H246945   5.869   6.461  10.890 -1.7496 -1.3144 -1.3363
 7584TIP3   OH246946   0.652   1.971  11.605  0.4847  0.0946 -0.7548
 7584TIP3    H146947   0.616   1.942  11.521  1.7898  0.0798 -1.3414
 7584TIP3    H246948   0.635   2.065  11.608 -0.7418 -0.1186 -0.4069
 7585TIP3   OH246949   1.863   5.274   9.763 -0.0347  0.5510  0.0276
 7585TIP3    H146950   1.825   5.343   9.708 -0.1679  0.8890  0.5464
 7585TIP3    H246951   1.851   5.194   9.711 -2.4574  0.4639  0.6244
 7586TIP3   OH246952   3.938   3.205   8.988 -0.6500  0.1648 -0.6322
 7586TIP3    H146953   3.903   3.292   9.008  1.7775  1.7706 -2.7736
 7586TIP3    H246954   4.032   3.218   8.980  0.6580 -3.6682  3.7058
 7587TIP3   OH246955   2.872   5.762  10.678  0.3318 -0.2653  0.0544
 7587TIP3    H146956   2.895   5.672  10.653  1.3879  0.1223 -0.4621
 7587TIP3    H246957   2.903   5.770  10.769  0.5264 -0.3307 -0.0042
 7588TIP3   OH246958   6.048   0.997  11.637  0.1467 -0.1785  0.5800
 7588TIP3    H146959   5.957   0.988  11.607  0.3673 -1.7688  0.3144
 7588TIP3    H246960   6.098   0.937  11.582  1.8092  2.4066 -0.9832
 7589TIP3   OH246961   1.080   0.437  10.468  0.3890  0.0781 -0.1359
 7589TIP3    H146962   1.158   0.384  10.457  0.9601  0.3242  2.1795
 7589TIP3    H246963   1.022   0.384  10.523  0.4226  1.2691  1.1109
 7590TIP3   OH246964   1.939   6.055   9.555  0.0623  0.5512  0.1565
 7590TIP3    H146965   1.910   6.128   9.501  1.1969 -0.8355 -2.4951
 7590TIP3    H246966   2.034   6.052   9.541  0.1407 -0.9388  0.8477
 7591TIP3   OH246967   4.880   5.007  11.814 -0.5347 -0.2239 -0.3917
 7591TIP3    H146968   4.796   5.027  11.774  0.0828  0.9019 -1.2132
 7591TIP3    H246969   4.927   4.956  11.748  0.1564  0.8758 -0.7779
 7592TIP3   OH246970   4.966   5.512   8.831  0.4939  0.5208 -0.1610
 7592TIP3    H146971   4.906   5.522   8.756  0.2970 -0.1101 -0.0978
 7592TIP3    H246972   4.992   5.601   8.853  0.9560  0.6870 -1.3087
 7593TIP3   OH246973   3.044   6.564  10.016  0.5410  0.2503  0.2267
 7593TIP3    H146974   3.021   6.544   9.925  0.7920 -0.5237  0.3206
 7593TIP3    H246975   2.967   6.609  10.051 -1.8277 -3.9348  1.0810
 7594TIP3   OH246976   4.878   0.437   9.471  0.1030 -0.4682 -0.0994
 7594TIP3    H146977   4.916   0.401   9.392  1.2053  0.4322 -0.0002
 7594TIP3    H246978   4.953   0.460   9.526 -0.5776  0.8625  0.3209
 7595TIP3   OH246979   2.188   4.160   9.747 -0.4299  0.2959 -0.2309
 7595TIP3    H146980   2.134   4.107   9.689  0.5171 -1.1868  0.1774
 7595TIP3    H246981   2.256   4.197   9.690  0.2719 -0.8482 -0.1781
 7596TIP3   OH246982   5.018   2.732   9.343 -0.2813  0.2184  0.0381
 7596TIP3    H146983   5.051   2.662   9.287  2.2364  0.3801  1.2150
 7596TIP3    H246984   5.011   2.808   9.285  0.8706  0.0024 -0.4064
 7597TIP3   OH246985   5.295   3.533  11.070 -0.0753 -0.2113 -0.0374
 7597TIP3    H146986   5.223   3.494  11.118  0.0728  0.1051  0.4468
 7597TIP3    H246987   5.286   3.499  10.981 -0.7319 -0.2924  0.0573
 7598TIP3   OH246988   0.627   1.687  11.691  0.1092 -0.2969  0.0348
 7598TIP3    H146989   0.720   1.681  11.668  0.5707  1.2647  1.3173
 7598TIP3    H246990   0.590   1.749  11.629  0.5059  0.9820  1.0359
 7599TIP3   OH246991   1.691   5.926  11.057  0.4875  0.0532 -0.1403
 7599TIP3    H146992   1.771   5.875  11.044 -0.5815 -1.8484  0.3412
 7599TIP3    H246993   1.697   5.958  11.147  0.8498  0.1795 -0.2096
 7600TIP3   OH246994   2.478   2.547  10.788 -0.2385 -0.5889  0.0268
 7600TIP3    H146995   2.430   2.623  10.821 -0.4743 -0.8758  0.3527
 7600TIP3    H246996   2.533   2.519  10.862 -0.0372 -0.6410 -0.1410
 7601TIP3   OH246997   3.197   0.678   9.990  0.1692 -0.6156  0.3251
 7601TIP3    H146998   3.182   0.653  10.081 -0.2984  0.7102  0.6390
 7601TIP3    H246999   3.275   0.733   9.993 -0.0080 -0.3448 -0.0274
 7602TIP3   OH247000   2.086   1.365  11.517 -0.1510  0.5451 -0.1029
 7602TIP3    H147001   2.062   1.295  11.456 -2.8149  0.5398  0.7984
 7602TIP3    H247002   2.131   1.320  11.589 -0.1129  0.0438 -0.4350
 7603TIP3   OH247003   4.674   0.287   9.162 -0.1140  0.5819 -0.7389
 7603TIP3    H147004   4.766   0.293   9.191 -0.7828 -0.6001  1.9968
 7603TIP3    H247005   4.668   0.202   9.120 -0.3819 -0.3908  1.1583
 7604TIP3   OH247006   2.871   4.443  10.389 -0.5115 -0.2341 -0.0075
 7604TIP3    H147007   2.788   4.488  10.404 -0.0036  0.5307  0.5901
 7604TIP3    H247008   2.917   4.499  10.326  0.0860  0.0432  0.6649
 7605TIP3   OH247009   2.916   3.623   9.894 -0.3227  0.2270  0.4528
 7605TIP3    H147010   2.916   3.669   9.810 -0.5717  0.9532  0.8473
 7605TIP3    H247011   2.995   3.569   9.892 -0.9353 -0.6685 -0.7377
 7606TIP3   OH247012   0.634   5.583   8.890  0.0756  0.2893  0.0691
 7606TIP3    H147013   0.674   5.517   8.833  0.1859  0.8120 -0.4828
 7606TIP3    H247014   0.640   5.547   8.978  1.4186  0.1722 -0.0501
 7607TIP3   OH247015   0.868   4.739  10.120  0.0429  0.1905 -0.1447
 7607TIP3    H147016   0.855   4.728  10.026 -0.9165 -2.1681  0.2090
 7607TIP3    H247017   0.781   4.761  10.154  0.6275  2.4755  0.1035
 7608TIP3   OH247018   5.848   2.711   8.747  0.5654 -0.6756 -0.1353
 7608TIP3    H147019   5.883   2.799   8.764  1.3406 -1.1007  0.5345
 7608TIP3    H247020   5.776   2.726   8.686  1.2062  0.3473 -0.6762
 7609TIP3   OH247021   6.340   0.575  10.875 -0.0336  0.5789  0.1026
 7609TIP3    H147022   6.396   0.652  10.869  0.7143 -0.0231 -0.9929
 7609TIP3    H247023   6.384   0.509  10.821  0.1820 -1.1436  2.2578
 7610TIP3   OH247024   2.599   2.487  11.034  0.1179  0.4223 -0.3754
 7610TIP3    H147025   2.658   2.548  11.078 -0.6685  1.7135 -1.0345
 7610TIP3    H247026   2.511   2.515  11.061 -0.2741 -0.1846 -0.9894
 7611TIP3   OH247027   0.841   5.694  11.003  0.4884  0.3670 -0.1515
 7611TIP3    H147028   0.909   5.725  11.063  0.3171 -0.2736  0.3803
 7611TIP3    H247029   0.889   5.644  10.936  0.4811 -0.7130  0.6321
 7612TIP3   OH247030   4.615   5.670  10.720  0.4243 -0.4118 -0.4067
 7612TIP3    H147031   4.687   5.664  10.657  0.2394  2.9370 -1.1247
 7612TIP3    H247032   4.560   5.740  10.686 -1.7008 -0.9839  1.6115
 7613TIP3   OH247033   6.616   3.435   8.335  0.5326  0.0450  0.1416
 7613TIP3    H147034   6.679   3.502   8.361  0.5741 -0.1273  0.4892
 7613TIP3    H247035   6.664   3.353   8.340  0.6894  0.0578 -0.9913
 7614TIP3   OH247036   5.281   4.715   9.567 -0.3278  1.1821 -0.0091
 7614TIP3    H147037   5.316   4.804   9.566  1.1725  0.6151  0.2722
 7614TIP3    H247038   5.300   4.682   9.654  0.0361  0.2440 -0.4328
 7615TIP3   OH247039   4.114   0.193   8.612 -0.4711  0.0921 -0.6779
 7615TIP3    H147040   4.098   0.099   8.605  0.2255 -0.0011 -1.0428
 7615TIP3    H247041   4.138   0.207   8.704 -0.7004 -0.0591 -0.5928
 7616TIP3   OH247042   2.269   5.993  11.052 -0.4536  0.0156  0.0851
 7616TIP3    H147043   2.293   6.075  11.009 -0.2403  0.4973  1.0968
 7616TIP3    H247044   2.284   5.925  10.985 -2.1420  0.9287 -1.3045
 7617TIP3   OH247045   2.225   2.247  11.129  0.3801 -0.6902  0.6010
 7617TIP3    H147046   2.147   2.281  11.174  1.8909  3.6333  0.4044
 7617TIP3    H247047   2.284   2.221  11.200 -0.0413 -1.0736  0.8210
 7618TIP3   OH247048   3.412   4.819  11.103 -0.2338 -0.0442 -0.5424
 7618TIP3    H147049   3.453   4.904  11.118 -2.7052  1.1212  0.0237
 7618TIP3    H247050   3.482   4.755  11.120  0.9403  1.7383  1.8398
 7619TIP3   OH247051   3.373   1.052   8.694  0.4982 -0.2518 -0.7698
 7619TIP3    H147052   3.312   1.005   8.637  1.8976 -1.8193 -1.0681
 7619TIP3    H247053   3.455   1.003   8.687  0.8762 -0.2496  2.2049
 7620TIP3   OH247054   4.847   3.660   9.890 -0.0735  0.1638  0.1652
 7620TIP3    H147055   4.790   3.727   9.929 -0.5024  2.0549 -3.3233
 7620TIP3    H247056   4.790   3.613   9.829  1.2660 -0.4550 -0.6422
 7621TIP3   OH247057   5.674   1.034  11.062 -0.1123 -0.3675 -0.3947
 7621TIP3    H147058   5.750   1.032  11.004  0.9691 -2.8092  0.9635
 7621TIP3    H247059   5.711   1.048  11.150 -1.6365  2.4035 -0.0790
 7622TIP3   OH247060   4.143   4.217   9.578  0.3443 -0.1484 -0.3093
 7622TIP3    H147061   4.211   4.233   9.512  1.4861 -1.6356  0.4507
 7622TIP3    H247062   4.131   4.122   9.577 -0.6160 -0.0487  0.6493
 7623TIP3   OH247063   6.396   2.206   9.586 -0.1006 -0.3393  0.1638
 7623TIP3    H147064   6.428   2.161   9.507  0.9956 -1.6038  1.2760
 7623TIP3    H247065   6.330   2.148   9.621 -0.0401 -0.1492  0.5925
 7624TIP3   OH247066   4.116   1.740  10.605  0.1686  0.3536  0.5373
 7624TIP3    H147067   4.068   1.687  10.669  0.1162  0.3803  0.5195
 7624TIP3    H247068   4.074   1.721  10.522  1.8300 -1.6490  0.0706
 7625TIP3   OH247069   0.370   4.392  10.566  0.1015 -0.2798  0.2530
 7625TIP3    H147070   0.323   4.396  10.483  1.3762  1.0756 -0.4696
 7625TIP3    H247071   0.323   4.328  10.618 -0.5416 -1.4116 -1.6367
 7626TIP3   OH247072   5.646   0.208  10.889 -0.2748 -0.0704 -0.1157
 7626TIP3    H147073   5.565   0.168  10.859  0.7101 -2.2368 -0.1045
 7626TIP3    H247074   5.621   0.259  10.966 -1.6289 -0.6849 -0.1303
 7627TIP3   OH247075   3.904   0.817   9.165 -0.0469 -0.5268 -0.1667
 7627TIP3    H147076   3.969   0.871   9.209  0.1342 -0.8598 -0.0156
 7627TIP3    H247077   3.893   0.856   9.078 -2.4282  1.8086  1.0543
 7628TIP3   OH247078   1.140   0.059   9.575  0.3709 -0.2672 -0.2975
 7628TIP3    H147079   1.229   0.032   9.555  1.0474  0.9930  0.7897
 7628TIP3    H247080   1.101  -0.016   9.619  2.4170  0.5533  3.3307
 7629TIP3   OH247081   3.590   6.625   9.002  0.5479  0.3005  0.1140
 7629TIP3    H147082   3.495   6.619   9.016  0.3888  0.5090 -0.8455
 7629TIP3    H247083   3.605   6.579   8.920  1.1888  0.8416 -0.0776
 7630TIP3   OH247084   0.221   5.473  11.042  0.3469 -0.4143 -0.2570
 7630TIP3    H147085   0.241   5.405  10.979  0.0043 -0.7201 -0.0446
 7630TIP3    H247086   0.299   5.479  11.098  1.0258  0.5154 -1.2772
 7631TIP3   OH247087   4.004   5.272   9.658  0.1165 -0.2473  0.1872
 7631TIP3    H147088   3.967   5.193   9.619  0.5074  0.5643 -1.9840
 7631TIP3    H247089   3.956   5.344   9.617  0.5895  0.6856  1.2167
 7632TIP3   OH247090   4.309   3.661   9.696 -0.3597  0.7500  0.0554
 7632TIP3    H147091   4.224   3.641   9.659  0.0229  0.0638 -0.4775
 7632TIP3    H247092   4.345   3.576   9.721 -0.3302  1.1353  1.4113
 7633TIP3   OH247093   2.274   5.303  10.297  0.6570  0.9084 -0.6986
 7633TIP3    H147094   2.304   5.250  10.224 -0.2664 -0.2982 -0.2395
 7633TIP3    H247095   2.267   5.242  10.371 -1.8000  1.3048 -0.5127
 7634TIP3   OH247096   5.780   5.508  10.447 -0.4313  0.0984  0.0599
 7634TIP3    H147097   5.861   5.464  10.473  1.2250  2.2364 -1.1460
 7634TIP3    H247098   5.751   5.461  10.369 -0.4111 -0.7207  0.5362
 7635TIP3   OH247099   4.414   6.081  11.153  0.3205 -0.3745 -0.4291
 7635TIP3    H147100   4.478   6.138  11.111  0.8227 -0.0608  0.7222
 7635TIP3    H247101   4.364   6.140  11.209  0.5843 -1.0000  0.4750
 7636TIP3   OH247102   3.245   1.017   9.383  0.0219 -0.0419 -0.3488
 7636TIP3    H147103   3.162   1.063   9.374  0.8102  1.3879 -0.6461
 7636TIP3    H247104   3.295   1.068   9.446  0.5164 -1.1392  0.1769
 7637TIP3   OH247105   1.920   3.421  11.367  0.3647  0.6143 -0.4371
 7637TIP3    H147106   1.883   3.495  11.415  0.7076  0.4360  0.1202
 7637TIP3    H247107   2.002   3.455  11.330  0.7626  0.3931  0.2179
 7638TIP3   OH247108   5.327   0.379  10.114  0.1939  0.4561 -0.2963
 7638TIP3    H147109   5.245   0.350  10.074  0.1325  0.0178  0.1467
 7638TIP3    H247110   5.314   0.473  10.130 -0.3429  0.3250  0.0699
 7639TIP3   OH247111   3.034   0.370   8.881  0.3354  0.2197  0.1229
 7639TIP3    H147112   3.060   0.382   8.972  3.2930 -2.6820 -0.1821
 7639TIP3    H247113   2.991   0.285   8.879 -2.6360  1.5985 -0.7950
 7640TIP3   OH247114   5.617   2.964   8.759 -0.1258 -0.6856  0.1105
 7640TIP3    H147115   5.649   3.050   8.788  1.1327 -1.0682 -0.1010
 7640TIP3    H247116   5.571   2.983   8.677 -0.7956 -0.0756  0.6076
 7641TIP3   OH247117   1.641   4.152   9.339  0.2933 -0.2037  0.5683
 7641TIP3    H147118   1.702   4.224   9.356 -0.4862  1.1079 -1.8497
 7641TIP3    H247119   1.561   4.177   9.384  0.6000 -0.4935  1.2878
 7642TIP3   OH247120   4.928   1.578  11.305 -0.0899 -0.5968 -0.0955
 7642TIP3    H147121   4.993   1.533  11.358  1.0764 -0.8755 -1.6812
 7642TIP3    H247122   4.978   1.638  11.250 -1.3558  0.5185 -0.0912
 7643TIP3   OH247123   1.905   4.200   8.300  0.1635 -0.1049 -0.0715
 7643TIP3    H147124   1.835   4.253   8.339  1.4234  0.5171  1.4730
 7643TIP3    H247125   1.975   4.263   8.282  1.6052 -1.1534  1.5758
 7644TIP3   OH247126   1.985   1.581   8.592 -0.1985 -0.2335 -0.9815
 7644TIP3    H147127   1.937   1.572   8.674 -0.2698  1.2055 -0.8458
 7644TIP3    H247128   1.960   1.667   8.558  0.4846 -0.4483 -2.0904
 7645TIP3   OH247129   1.909   2.623  11.064 -0.6241  0.2697 -0.0276
 7645TIP3    H147130   1.846   2.657  11.127  0.0667 -1.9604  2.0341
 7645TIP3    H247131   1.994   2.636  11.105 -0.0073  0.0747 -1.1836
 7646TIP3   OH247132   1.071   0.293   9.682 -0.2707  0.0472 -0.1587
 7646TIP3    H147133   1.064   0.360   9.614  1.7040  0.0693 -0.4024
 7646TIP3    H247134   1.097   0.214   9.636 -0.3821 -0.3217  0.3932
 7647TIP3   OH247135   1.349   4.516   8.782 -0.0566 -0.3616  0.0826
 7647TIP3    H147136   1.365   4.537   8.874 -1.2601  0.0604  0.2154
 7647TIP3    H247137   1.254   4.517   8.774 -0.1371 -3.2263 -0.5143
 7648TIP3   OH247138   0.049   4.088   9.243 -0.1886 -0.1448  0.1561
 7648TIP3    H147139   0.118   4.113   9.182 -0.1069 -0.4172  0.1326
 7648TIP3    H247140   0.088   4.099   9.330 -0.3272  0.3053  0.1593
 7649TIP3   OH247141   2.525   0.468  10.154  0.2096  0.2813 -0.4169
 7649TIP3    H147142   2.548   0.411  10.227  0.1061  1.5828  0.6595
 7649TIP3    H247143   2.443   0.432  10.120  1.2901 -1.5410 -1.2372
 7650TIP3   OH247144   5.521   1.838  10.635  0.3059 -0.8448 -0.2823
 7650TIP3    H147145   5.469   1.874  10.563 -2.5502 -0.9126  1.5892
 7650TIP3    H247146   5.575   1.911  10.664 -0.5924  0.0053 -0.7044
 7651TIP3   OH247147   2.020   2.886  11.309 -0.1443 -0.0918 -0.1672
 7651TIP3    H147148   2.035   2.981  11.307  0.9123 -0.2473 -0.2764
 7651TIP3    H247149   1.928   2.876  11.286 -0.4141  0.9411  0.4017
 7652TIP3   OH247150   0.369   3.417   9.027  0.2914  0.0398  0.1663
 7652TIP3    H147151   0.418   3.496   9.002 -0.8116  0.6714 -0.1202
 7652TIP3    H247152   0.350   3.429   9.120 -1.3199  0.9828 -0.2357
 7653TIP3   OH247153   0.386   5.651   8.762 -0.2677  0.3932  0.1033
 7653TIP3    H147154   0.324   5.611   8.824  0.1243 -0.4669 -0.0535
 7653TIP3    H247155   0.472   5.620   8.791 -0.1996 -1.4442 -1.8983
 7654TIP3   OH247156   4.411   0.214  11.251  0.5067  0.5511  0.2930
 7654TIP3    H147157   4.433   0.187  11.162  2.3837 -1.0351  1.1753
 7654TIP3    H247158   4.457   0.297  11.263 -0.0016  0.9271 -0.2918
 7655TIP3   OH247159   2.017   3.987   8.083 -0.3013 -0.6137 -0.0312
 7655TIP3    H147160   1.988   4.016   7.997 -0.6112  2.3610  0.9565
 7655TIP3    H247161   1.963   4.036   8.145  1.9625 -0.3005  1.8647
 7656TIP3   OH247162   2.742   5.790   8.575  0.4394 -0.1531  0.3744
 7656TIP3    H147163   2.779   5.876   8.593 -2.2290  0.8953  1.3977
 7656TIP3    H247164   2.808   5.728   8.607  2.1765  1.4874  0.1284
 7657TIP3   OH247165   2.567   2.198  11.536  0.3303  0.7336  0.3503
 7657TIP3    H147166   2.607   2.278  11.501 -0.3097  0.5811 -0.7807
 7657TIP3    H247167   2.629   2.129  11.513  0.1171  0.6919 -0.1016
 7658TIP3   OH247168   4.638   5.936   8.719 -0.3377 -0.0179 -0.0409
 7658TIP3    H147169   4.579   5.998   8.762  0.4320  0.4530  0.3394
 7658TIP3    H247170   4.713   5.929   8.777 -0.1029 -0.7853 -0.4181
 7659TIP3   OH247171   5.733   3.661   8.678 -0.0903 -0.1246  0.7647
 7659TIP3    H147172   5.821   3.622   8.679  0.6935  1.5448  0.3072
 7659TIP3    H247173   5.742   3.740   8.625 -2.0376 -0.2337  0.1839
 7660TIP3   OH247174   4.216   3.230   8.970 -0.3277 -0.2068 -0.1036
 7660TIP3    H147175   4.197   3.137   8.969 -0.1964 -0.2398  0.3643
 7660TIP3    H247176   4.307   3.237   8.942 -0.3861 -0.2020 -0.2985
 7661TIP3   OH247177   4.617   6.229   9.296 -0.1243 -0.1653 -0.0847
 7661TIP3    H147178   4.685   6.236   9.362 -1.9356  1.9665  1.7120
 7661TIP3    H247179   4.662   6.195   9.218  2.7687  0.3816  1.2380
 7662TIP3   OH247180   4.957   0.289  10.685  0.6086  1.2661  0.4029
 7662TIP3    H147181   4.976   0.378  10.654 -2.5802  1.8317 -0.2859
 7662TIP3    H247182   4.983   0.233  10.612  1.5540  1.7200  0.3745
 7663TIP3   OH247183   4.826   3.950  11.118  0.1372  0.1502  0.0728
 7663TIP3    H147184   4.821   3.948  11.213  0.8622 -2.0126  0.1251
 7663TIP3    H247185   4.745   3.994  11.090  0.6746  2.2974  1.6660
 7664TIP3   OH247186   4.623   2.723  11.123 -0.0425  0.0677 -0.0734
 7664TIP3    H147187   4.685   2.790  11.149  0.2208 -0.5542  0.9720
 7664TIP3    H247188   4.653   2.694  11.037  1.7839 -0.9583  0.8432
 7665TIP3   OH247189   5.644   3.444  11.848 -0.3974 -0.0995 -0.3625
 7665TIP3    H147190   5.721   3.387  11.847  0.0476  0.4585 -2.4277
 7665TIP3    H247191   5.569   3.383  11.849  0.0459 -0.6532  0.6338
 7666TIP3   OH247192   4.892   1.497   9.120  0.1750  0.2558  0.1184
 7666TIP3    H147193   4.919   1.533   9.035  1.7148  1.4193  1.0483
 7666TIP3    H247194   4.970   1.504   9.175 -0.3987 -1.6905  1.2795
 7667TIP3   OH247195   1.009   6.264   8.943 -0.0365 -0.3784 -0.2212
 7667TIP3    H147196   0.953   6.211   8.887 -1.1937  2.6140 -2.1925
 7667TIP3    H247197   0.954   6.337   8.970  1.0694 -0.6669  3.3851
 7668TIP3   OH247198   2.590   1.734   8.958 -0.1523 -0.2530  0.1772
 7668TIP3    H147199   2.508   1.781   8.972  0.2939  1.8935 -3.2087
 7668TIP3    H247200   2.579   1.691   8.873  1.6674 -1.2690  0.4133
 7669TIP3   OH247201   6.451   6.069  11.420 -0.3669 -0.1260  0.2479
 7669TIP3    H147202   6.500   6.094  11.498 -1.0799  0.3250  0.5690
 7669TIP3    H247203   6.426   5.978  11.435  0.0875 -0.2542  0.2308
 7670TIP3   OH247204   5.424   1.752  11.895  0.0356  0.1681  0.0983
 7670TIP3    H147205   5.459   1.804  11.823 -0.7601  1.0438  0.3158
 7670TIP3    H247206   5.477   1.778  11.971  0.5937 -0.4376 -0.0759
 7671TIP3   OH247207   4.302   5.302  11.025  0.5323  0.3645 -0.0080
 7671TIP3    H147208   4.229   5.323  11.084  0.1875 -0.0277 -0.2906
 7671TIP3    H247209   4.269   5.323  10.938  0.0562 -1.5886 -0.3425
 7672TIP3   OH247210   2.623   0.913  11.065 -0.1570  0.3880 -0.2258
 7672TIP3    H147211   2.599   0.868  10.984 -1.2397  1.0118 -0.2779
 7672TIP3    H247212   2.577   0.997  11.060  0.9345  1.0512  0.3678
 7673TIP3   OH247213   5.568   2.180  11.275 -0.4426  0.0773 -0.3913
 7673TIP3    H147214   5.495   2.123  11.253  1.3236 -2.4544 -0.1305
 7673TIP3    H247215   5.555   2.202  11.367 -1.2766  0.3057 -0.5601
 7674TIP3   OH247216   3.523   0.198  10.580  0.6039  0.3074 -0.1280
 7674TIP3    H147217   3.557   0.153  10.503 -0.3906  0.3538 -0.6130
 7674TIP3    H247218   3.446   0.245  10.549 -0.2080 -0.1939  1.0087
 7675TIP3   OH247219   5.464   3.707   9.280  0.5943  0.0109  0.6432
 7675TIP3    H147220   5.391   3.722   9.221  1.4503 -1.1959 -0.7813
 7675TIP3    H247221   5.445   3.624   9.322  1.7681 -1.0413 -0.7977
 7676TIP3   OH247222   1.608   4.123   9.722 -0.4122 -0.5713  0.1025
 7676TIP3    H147223   1.684   4.142   9.667 -1.8413  1.5374 -1.2927
 7676TIP3    H247224   1.624   4.172   9.802  0.0165 -0.7179  0.1110
 7677TIP3   OH247225   3.529   3.095  10.388  0.2540 -0.2727  0.3268
 7677TIP3    H147226   3.496   3.105  10.477 -0.0817 -0.8970  0.2720
 7677TIP3    H247227   3.605   3.153  10.384  1.3267 -1.5441  1.5598
 7678TIP3   OH247228   5.362   6.631   9.531 -0.1570  0.0608 -0.0048
 7678TIP3    H147229   5.316   6.705   9.572 -1.3700  0.2825 -1.6664
 7678TIP3    H247230   5.419   6.671   9.466  0.5031 -0.3813  0.2896
 7679TIP3   OH247231   5.411   3.288  11.862 -0.1020 -0.0847 -0.4208
 7679TIP3    H147232   5.402   3.310  11.770  0.2309  2.5669  0.0979
 7679TIP3    H247233   5.357   3.353  11.908 -0.5415 -1.5502  1.2658
 7680TIP3   OH247234   0.528   1.667   8.495 -0.1621 -0.6451 -0.3441
 7680TIP3    H147235   0.544   1.577   8.467 -1.3098 -0.5785 -1.2682
 7680TIP3    H247236   0.470   1.659   8.570  0.8681 -0.7143  0.4682
 7681TIP3   OH247237   5.285   6.453   9.934 -0.0499  0.1905 -0.7625
 7681TIP3    H147238   5.331   6.371   9.918  0.5807  0.4594 -0.3562
 7681TIP3    H247239   5.314   6.481  10.021  2.5057  2.6181 -2.2136
 7682TIP3   OH247240   2.217   5.001   8.549  0.4156  0.4688 -0.0753
 7682TIP3    H147241   2.239   4.909   8.532 -2.3213 -0.2028 -0.5296
 7682TIP3    H247242   2.183   5.002   8.639  1.8825  1.3847  0.5073
 7683TIP3   OH247243   6.460   3.451  11.108  0.1632  0.9064  0.3548
 7683TIP3    H147244   6.499   3.438  11.194  0.3101 -1.0398  0.0351
 7683TIP3    H247245   6.439   3.363  11.077  0.3780  1.5357 -1.7373
 7684TIP3   OH247246   1.951   6.478   8.980  0.5389  0.0150  0.1958
 7684TIP3    H147247   1.906   6.485   9.064 -1.4952  0.1931 -0.8391
 7684TIP3    H247248   1.991   6.391   8.981 -1.9006 -1.1869  0.2463
 7685TIP3   OH247249   2.865   0.466   9.699 -0.1507 -0.3678 -0.2025
 7685TIP3    H147250   2.794   0.421   9.745 -0.4501  1.5326  1.2833
 7685TIP3    H247251   2.888   0.406   9.628 -2.2988 -1.6664  0.0876
 7686TIP3   OH247252   1.688   2.682  11.277  0.2751  0.5815 -0.4935
 7686TIP3    H147253   1.703   2.775  11.259 -1.4549  0.7060 -1.4855
 7686TIP3    H247254   1.598   2.666  11.250  0.7483 -1.5601 -1.0546
 7687TIP3   OH247255   3.698   0.345  10.312 -0.5718  0.0089 -0.3012
 7687TIP3    H147256   3.619   0.382  10.352 -0.2297  0.7511 -0.3077
 7687TIP3    H247257   3.739   0.418  10.268  0.2553 -0.3271 -0.0963
 7688TIP3   OH247258   6.546   3.100   8.235 -0.1635 -0.2951  0.5634
 7688TIP3    H147259   6.529   3.120   8.327 -0.0649 -0.7266  0.6742
 7688TIP3    H247260   6.638   3.076   8.232 -0.0049  0.3144  0.2472
 7689TIP3   OH247261   1.882   3.623  10.068 -0.3821 -0.4224  0.5898
 7689TIP3    H147262   1.929   3.705  10.083 -0.5673 -0.0986 -0.4976
 7689TIP3    H247263   1.940   3.555  10.102  0.0051  0.1189  1.0253
 7690TIP3   OH247264   6.605   5.996   8.661  0.0782  0.3251  0.0391
 7690TIP3    H147265   6.665   5.972   8.591 -0.0629 -0.6557  0.2369
 7690TIP3    H247266   6.610   5.922   8.722  1.1041  1.6529  1.6707
 7691TIP3   OH247267   1.899   0.806   9.245 -0.3357 -0.4575 -0.1716
 7691TIP3    H147268   1.890   0.838   9.335 -0.1638  0.7608 -0.5561
 7691TIP3    H247269   1.994   0.803   9.230 -0.3207  1.7822 -1.0656
 7692TIP3   OH247270   0.307   3.472   9.634 -0.0313 -0.1136 -0.0086
 7692TIP3    H147271   0.269   3.518   9.708  1.2272 -1.5076  1.5639
 7692TIP3    H247272   0.357   3.400   9.672 -0.1412 -1.4910 -2.2590
 7693TIP3   OH247273   4.729   1.109  19.363 -0.0796 -0.0712  0.1316
 7693TIP3    H147274   4.728   1.187  19.307 -0.4833 -0.6755 -0.7179
 7693TIP3    H247275   4.652   1.119  19.419 -0.8982 -0.4945 -0.8854
 7694TIP3   OH247276   3.954   6.559  12.340  0.7134  0.7823  0.0647
 7694TIP3    H147277   3.900   6.528  12.267 -1.1393 -0.1919  1.7487
 7694TIP3    H247278   4.028   6.604  12.298 -1.0519  1.6247 -2.3811
 7695TIP3   OH247279   6.655   0.773   9.994  0.0751 -0.4675 -0.4137
 7695TIP3    H147280   6.643   0.680   9.974 -0.4800 -0.5721  0.3687
 7695TIP3    H247281   6.732   0.776  10.051 -0.4411 -0.5522  0.2994
 7696TIP3   OH247282   2.358   4.335  11.700  0.3051 -0.4556 -0.1960
 7696TIP3    H147283   2.327   4.293  11.780 -0.9339  0.4389 -0.1803
 7696TIP3    H247284   2.295   4.406  11.684  1.6761  0.6739 -0.8358
 7697TIP3   OH247285   3.701   4.092  10.846  0.2208 -0.1530 -0.2498
 7697TIP3    H147286   3.615   4.099  10.803 -0.1379 -4.2014 -0.5078
 7697TIP3    H247287   3.685   4.121  10.936 -1.1177  0.1784 -0.5637
 7698TIP3   OH247288   0.503   1.622   8.976 -0.3198 -0.2639  0.0534
 7698TIP3    H147289   0.541   1.611   9.063 -0.2019 -0.2713  0.0024
 7698TIP3    H247290   0.409   1.609   8.988 -0.3786  0.3602  0.2894
 7699TIP3   OH247291   3.371   5.304   9.724  0.0218 -0.0009  0.0866
 7699TIP3    H147292   3.284   5.288   9.687 -0.3512  2.3244 -0.1812
 7699TIP3    H247293   3.355   5.361   9.799  1.4116  2.1057 -1.1189
 7700TIP3   OH247294   6.107   5.185   8.694  0.2530 -0.1917  0.1412
 7700TIP3    H147295   6.044   5.139   8.638  2.5853 -0.6357 -2.3459
 7700TIP3    H247296   6.177   5.120   8.709  0.7025  0.6266  1.8437
 7701TIP3   OH247297   5.912   0.722  11.151  0.3567  0.2572  0.3074
 7701TIP3    H147298   5.829   0.685  11.122  1.4056 -1.6444 -0.4834
 7701TIP3    H247299   5.936   0.671  11.228  0.9160  0.6294  0.3899
 7702TIP3   OH247300   5.778   0.482   9.917 -0.1491  0.2428 -0.2403
 7702TIP3    H147301   5.731   0.500   9.835 -0.2081 -0.6890 -0.4156
 7702TIP3    H247302   5.733   0.535   9.982 -0.8650  0.0717 -0.5828
 7703TIP3   OH247303   5.364   4.831  11.238  0.3194  0.0849  0.3675
 7703TIP3    H147304   5.436   4.848  11.299 -0.5986 -0.3639  1.6088
 7703TIP3    H247305   5.334   4.918  11.212 -0.1527  0.3185  1.6277
 7704TIP3   OH247306   4.458   0.815   9.348  0.4016 -0.2994  0.4002
 7704TIP3    H147307   4.547   0.843   9.369 -0.2471  2.2300  0.1785
 7704TIP3    H247308   4.465   0.773   9.262  1.2284  1.1068 -0.2614
 7705TIP3   OH247309   0.063   4.569  10.053  0.1243 -0.5965 -0.4218
 7705TIP3    H147310  -0.018   4.531  10.087 -0.1643  0.4624  0.1559
 7705TIP3    H247311   0.035   4.651  10.012  0.8587 -0.3946 -0.5312
 7706TIP3   OH247312   1.410   0.761  11.269  0.0848 -0.1072  0.4251
 7706TIP3    H147313   1.430   0.827  11.335 -1.2361 -0.1803  0.9297
 7706TIP3    H247314   1.316   0.746  11.278 -0.0679 -0.3477 -1.2847
 7707TIP3   OH247315   3.500   3.565  11.252 -0.0964  0.6082  0.7110
 7707TIP3    H147316   3.484   3.659  11.249 -0.4536  0.5322  0.1877
 7707TIP3    H247317   3.590   3.555  11.220 -0.5092  0.6661 -0.5179
 7708TIP3   OH247318   2.956   0.821  10.843  0.6970  0.2894  0.0025
 7708TIP3    H147319   2.936   0.868  10.924  3.0953  0.1435  0.7572
 7708TIP3    H247320   2.915   0.735  10.854 -1.5572  1.2643 -0.3027
 7709TIP3   OH247321   4.042   5.574   9.422  0.3326 -0.0182 -0.6842
 7709TIP3    H147322   3.960   5.525   9.431  0.7302 -0.5872 -0.0628
 7709TIP3    H247323   4.085   5.536   9.345  1.2343 -1.5568  0.5386
 7710TIP3   OH247324   6.140   1.582  10.160 -0.2078 -0.2382 -0.1486
 7710TIP3    H147325   6.092   1.602  10.080 -2.5836  0.7622  1.4213
 7710TIP3    H247326   6.225   1.625  10.149  0.2056 -1.5363 -2.7600
 7711TIP3   OH247327   5.180   5.363   8.723 -0.1899  0.0128 -0.0856
 7711TIP3    H147328   5.120   5.418   8.775  1.9307  1.9571  0.4466
 7711TIP3    H247329   5.162   5.388   8.633 -0.7294 -0.0093  0.0088
 7712TIP3   OH247330   2.669   0.281  11.008  0.0097 -0.0365 -0.5317
 7712TIP3    H147331   2.589   0.268  10.956 -0.0201 -0.9558 -0.2786
 7712TIP3    H247332   2.641   0.337  11.081 -0.6863 -1.2498  0.1637
 7713TIP3   OH247333   6.591   5.954  11.215  0.1640  0.0440  0.1401
 7713TIP3    H147334   6.530   5.979  11.285  1.2979  0.8373  0.8692
 7713TIP3    H247335   6.648   6.030  11.204  0.7407 -0.5076 -0.8586
 7714TIP3   OH247336   3.394   6.279   9.999  0.7715  0.2065  0.4155
 7714TIP3    H147337   3.313   6.232  10.018  0.4943  1.3113  2.1968
 7714TIP3    H247338   3.366   6.359   9.955  0.9421  0.3480  0.5647
 7715TIP3   OH247339   2.115   6.662  11.355 -0.3536  0.7200 -0.2325
 7715TIP3    H147340   2.172   6.618  11.418  2.6018  1.5903 -2.1155
 7715TIP3    H247341   2.102   6.749  11.392  0.9779  1.0716 -0.5468
 7716TIP3   OH247342   6.417   2.614   8.683  0.0264  0.0206  0.0684
 7716TIP3    H147343   6.331   2.629   8.722 -0.2962 -0.5572 -0.3947
 7716TIP3    H247344   6.401   2.614   8.588  0.4133 -0.7636 -0.0073
 7717TIP3   OH247345   0.657   4.540  10.148  0.1500  0.1743  0.4133
 7717TIP3    H147346   0.700   4.505  10.226 -1.1560  0.9070  1.4945
 7717TIP3    H247347   0.631   4.629  10.173 -1.6318 -0.0974 -0.3240
 7718TIP3   OH247348   3.796   2.366   9.780  0.0606  0.2747  0.1154
 7718TIP3    H147349   3.849   2.381   9.702  1.3855  1.1315  1.1334
 7718TIP3    H247350   3.732   2.437   9.780 -0.7290 -0.4147 -0.7994
 7719TIP3   OH247351   5.710   1.812   8.503 -0.5651 -0.2289  0.2776
 7719TIP3    H147352   5.726   1.906   8.508 -0.5505 -0.2960  2.4035
 7719TIP3    H247353   5.640   1.803   8.439 -0.0632  1.1476 -0.5169
 7720TIP3   OH247354   0.984   1.912   9.219 -0.1195 -0.0597  0.0376
 7720TIP3    H147355   1.044   1.854   9.265  1.8306  0.6924 -1.4502
 7720TIP3    H247356   1.001   1.999   9.255 -2.2750 -0.1638  1.5020
 7721TIP3   OH247357   4.799   4.762   9.641 -0.3731  0.3364 -0.4737
 7721TIP3    H147358   4.825   4.811   9.719 -0.9315  0.7450 -0.5406
 7721TIP3    H247359   4.880   4.752   9.592 -0.0133  0.0828  0.1509
 7722TIP3   OH247360   3.775   1.682  11.050 -0.5651 -0.0895  0.7021
 7722TIP3    H147361   3.787   1.663  11.142 -1.2497  0.9680  1.0370
 7722TIP3    H247362   3.686   1.651  11.031 -0.4530 -0.2393  0.4213
 7723TIP3   OH247363   3.186   4.008  10.377 -0.0215  0.2890  0.5667
 7723TIP3    H147364   3.130   3.967  10.443  1.0567 -0.7531  0.8634
 7723TIP3    H247365   3.265   3.954  10.375  0.3043  0.7629 -1.0084
 7724TIP3   OH247366   1.455   0.201  11.014 -0.1516 -0.0866 -0.2653
 7724TIP3    H147367   1.548   0.206  11.035 -0.3094  0.6150  0.3081
 7724TIP3    H247368   1.413   0.187  11.099 -0.5898 -0.1467 -0.4912
 7725TIP3   OH247369   2.488   0.542  10.528  0.0211  0.3398  0.2896
 7725TIP3    H147370   2.565   0.512  10.576  0.7387  0.9639 -0.4365
 7725TIP3    H247371   2.436   0.464  10.513  0.3808 -0.0485  1.0209
 7726TIP3   OH247372   1.563   2.381   9.161  0.0410 -0.3123  0.2951
 7726TIP3    H147373   1.511   2.410   9.086  1.5948  1.0062 -0.3393
 7726TIP3    H247374   1.513   2.409   9.237 -1.1997 -0.9941 -0.2472
 7727TIP3   OH247375   5.802   3.729  11.074 -0.5002 -0.1257  0.3581
 7727TIP3    H147376   5.879   3.757  11.123 -0.4967  2.6659 -1.0477
 7727TIP3    H247377   5.737   3.709  11.141  1.0339 -1.3641  1.5417
 7728TIP3   OH247378   0.492   0.660   9.570  0.2546 -0.5224 -0.1923
 7728TIP3    H147379   0.458   0.743   9.537 -0.6990 -0.3733  1.1047
 7728TIP3    H247380   0.415   0.603   9.578  0.0854 -0.0494  3.1830
 7729TIP3   OH247381   3.811   5.578  11.426 -0.6414 -0.0584  0.0710
 7729TIP3    H147382   3.865   5.656  11.439  0.6485 -0.4642 -2.1848
 7729TIP3    H247383   3.726   5.612  11.397 -0.5796  0.5300  0.5566
 7730TIP3   OH247384   6.173   1.022   9.492  0.2129  0.0962  0.4139
 7730TIP3    H147385   6.262   1.036   9.461 -0.0527  1.6718  0.2433
 7730TIP3    H247386   6.169   0.929   9.514  0.1885 -1.5751 -5.1400
 7731TIP3   OH247387   2.442   2.120  10.027  0.0950  0.4769  0.0851
 7731TIP3    H147388   2.391   2.098  10.104  0.4028  0.0573  0.1690
 7731TIP3    H247389   2.422   2.212  10.010 -0.3142  0.4445  0.3994
 7732TIP3   OH247390   4.523   3.140  11.560  0.1902  0.0205  0.5369
 7732TIP3    H147391   4.602   3.160  11.609  1.6393  0.9391 -1.9497
 7732TIP3    H247392   4.546   3.063  11.508 -0.8907 -0.2824  0.4874
 7733TIP3   OH247393   3.989   2.258   9.222 -0.1442  0.0527 -0.0675
 7733TIP3    H147394   4.008   2.280   9.130  1.7538  0.5362  0.4065
 7733TIP3    H247395   4.027   2.171   9.234 -1.7607 -0.7041 -0.1132
 7734TIP3   OH247396   5.836   4.720  11.065 -0.2637  0.2566 -0.7469
 7734TIP3    H147397   5.776   4.676  11.005  0.0858 -0.1638 -0.7918
 7734TIP3    H247398   5.810   4.690  11.152 -0.2308  0.2072 -0.7534
 7735TIP3   OH247399   4.283   3.006   8.775  0.2117 -0.4799  0.4209
 7735TIP3    H147400   4.349   3.010   8.845 -0.4579 -0.0316  1.0328
 7735TIP3    H247401   4.258   2.914   8.771 -0.3857 -0.3774  1.3915
 7736TIP3   OH247402   1.580   0.784  12.073 -0.7743  0.1381 -0.0411
 7736TIP3    H147403   1.623   0.706  12.109  1.5283  0.4115 -1.9416
 7736TIP3    H247404   1.617   0.857  12.122  0.2232  0.2918 -0.9734
 7737TIP3   OH247405   3.224   0.417  12.331  0.4074 -0.2496  0.1175
 7737TIP3    H147406   3.283   0.492  12.327  0.0203  0.0920  0.5668
 7737TIP3    H247407   3.204   0.408  12.425 -1.6422  0.7659 -0.1678
 7738TIP3   OH247408   6.133   6.165   8.928  0.1848  0.2432 -0.0787
 7738TIP3    H147409   6.156   6.244   8.976  0.0565  0.8166 -0.9441
 7738TIP3    H247410   6.213   6.140   8.881  0.0850  0.1393 -0.1959
 7739TIP3   OH247411   2.008   5.957  11.459  0.1555  0.5574  0.1711
 7739TIP3    H147412   2.067   5.919  11.394 -2.5485 -1.9375 -1.0278
 7739TIP3    H247413   2.021   5.904  11.538  1.4656  1.8456  0.8723
 7740TIP3   OH247414   2.530   2.640   9.612  0.5808 -0.8449 -0.9029
 7740TIP3    H147415   2.464   2.695   9.569  0.0363 -2.1901 -1.8561
 7740TIP3    H247416   2.606   2.697   9.621 -0.6398  0.7328  0.1630
 7741TIP3   OH247417   4.960   5.102   8.723  0.0751  0.0300  0.2209
 7741TIP3    H147418   4.979   5.144   8.807  0.8477  0.2216 -0.0383
 7741TIP3    H247419   4.878   5.055   8.737  0.2677 -0.0455  1.1244
 7742TIP3   OH247420   0.915   0.846   9.481  0.5639  0.0803  0.3930
 7742TIP3    H147421   0.975   0.814   9.414 -1.2800 -1.5488 -0.5910
 7742TIP3    H247422   0.965   0.843   9.562  2.3368  0.5284 -0.6413
 7743TIP3   OH247423   5.186   0.967  10.183  0.6964  0.9345 -0.3995
 7743TIP3    H147424   5.180   0.919  10.265  0.1721  2.4785  0.4996
 7743TIP3    H247425   5.200   0.899  10.117 -2.2118 -0.7094  0.4942
 7744TIP3   OH247426   6.532   0.215  10.899 -0.0163  0.2709  0.5629
 7744TIP3    H147427   6.549   0.295  10.848  1.5250 -0.5460 -0.2687
 7744TIP3    H247428   6.581   0.147  10.854 -0.9896 -1.0961  1.4837
 7745TIP3   OH247429   1.123   2.383  11.130  0.3078  0.0090  0.1801
 7745TIP3    H147430   1.219   2.389  11.138  0.2539 -0.4627  1.4843
 7745TIP3    H247431   1.091   2.421  11.212 -0.5131 -2.9028  1.3039
 7746TIP3   OH247432   5.775   3.727  10.572  0.1017 -0.3417 -0.2617
 7746TIP3    H147433   5.856   3.755  10.614  0.5402 -1.5662 -0.2743
 7746TIP3    H247434   5.802   3.698  10.485 -0.2926 -1.1506 -0.1181
 7747TIP3   OH247435   0.954   5.377   9.819 -0.3574  0.0758  0.0196
 7747TIP3    H147436   0.952   5.339   9.731  0.5850  2.0696 -0.9257
 7747TIP3    H247437   0.962   5.302   9.878  0.4303 -1.2385 -1.6793
 7748TIP3   OH247438   6.328   3.046  10.387 -0.1494 -0.1355  0.1738
 7748TIP3    H147439   6.328   2.956  10.418  2.6450 -0.0310  0.7336
 7748TIP3    H247440   6.328   3.099  10.467  0.2499  0.2970 -0.1074
 7749TIP3   OH247441   6.668   5.203  10.247  0.8815 -0.3644 -0.2583
 7749TIP3    H147442   6.722   5.222  10.324 -1.9665  0.0928  1.8376
 7749TIP3    H247443   6.646   5.289  10.211 -0.4584 -0.3490  0.5139
 7750TIP3   OH247444   6.051   0.919  11.317  0.2600 -0.3584  0.2037
 7750TIP3    H147445   5.989   0.856  11.280 -0.4774  0.2942  0.2967
 7750TIP3    H247446   6.028   1.002  11.275  1.2341 -0.1501  0.0648
 7751TIP3   OH247447   5.851   3.556  10.172  0.0611 -0.4646  0.3473
 7751TIP3    H147448   5.923   3.565  10.110  0.8532  1.6172  1.4893
 7751TIP3    H247449   5.892   3.528  10.254 -0.8026 -1.8408  0.3535
 7752TIP3   OH247450   6.264   6.297   9.235 -0.4331  0.5621 -0.1293
 7752TIP3    H147451   6.278   6.313   9.141 -0.9518  1.3654 -0.0724
 7752TIP3    H247452   6.305   6.371   9.279 -1.9587  1.2627  0.1751
 7753TIP3   OH247453   2.990   0.865   8.750 -0.4760  0.4951  0.3553
 7753TIP3    H147454   3.051   0.902   8.815  0.6756  0.9953 -0.9641
 7753TIP3    H247455   2.933   0.808   8.802 -0.0396  1.3975  1.9149
 7754TIP3   OH247456   0.088   4.324   8.877  0.2887  0.3658 -0.5505
 7754TIP3    H147457   0.128   4.324   8.964  0.9938  1.7295 -0.8577
 7754TIP3    H247458   0.063   4.415   8.862  0.0658  0.1214 -1.7284
 7755TIP3   OH247459   3.186   0.115  11.486  0.0364  0.1478  0.0626
 7755TIP3    H147460   3.254   0.168  11.443 -0.6811  1.3157  0.3277
 7755TIP3    H247461   3.235   0.052  11.539  0.9172  0.2005 -0.6552
 7756TIP3   OH247462   3.469   4.561  11.368  0.5341 -0.3670 -0.0284
 7756TIP3    H147463   3.515   4.621  11.426 -0.4652  0.6083 -0.2030
 7756TIP3    H247464   3.500   4.583  11.280  0.3505 -0.2729 -0.0703
 7757TIP3   OH247465   5.722   3.825   9.933 -0.5100 -0.1235 -0.3938
 7757TIP3    H147466   5.679   3.905   9.964 -1.4169 -1.2540  1.4599
 7757TIP3    H247467   5.812   3.832   9.967 -1.1371 -0.7472  1.5611
 7758TIP3   OH247468   0.011   5.528   9.006  0.0749  0.6152  0.1794
 7758TIP3    H147469  -0.073   5.487   8.987  0.8391 -0.6640 -0.5742
 7758TIP3    H247470  -0.010   5.599   9.067 -1.6416  0.8060 -0.5632
 7759TIP3   OH247471   1.705   1.674  10.469 -0.1596 -0.3661  0.7216
 7759TIP3    H147472   1.738   1.635  10.387  0.5194  0.0277  0.7981
 7759TIP3    H247473   1.614   1.696  10.450 -0.5382 -1.8756  0.6363
 7760TIP3   OH247474   1.709   1.945  11.468 -0.4835  0.2567 -0.1391
 7760TIP3    H147475   1.683   1.937  11.560 -2.5238  1.1691 -0.5735
 7760TIP3    H247476   1.760   1.865  11.450 -1.1635 -0.5754  1.4285
 7761TIP3   OH247477   5.310   1.529   8.954  0.0552  0.0970 -0.6732
 7761TIP3    H147478   5.233   1.585   8.964 -0.2516 -0.3955 -0.2537
 7761TIP3    H247479   5.335   1.508   9.044 -1.5963 -2.8597 -0.8002
 7762TIP3   OH247480   0.685   6.180  10.616 -0.0845  0.3241 -0.1367
 7762TIP3    H147481   0.679   6.246  10.685  0.4718 -1.9273  2.2086
 7762TIP3    H247482   0.602   6.188  10.568 -0.0298  2.6522  0.0349
 7763TIP3   OH247483   0.380   2.420   9.049  0.2931 -0.1303  0.7013
 7763TIP3    H147484   0.315   2.490   9.054  0.4127  0.6298 -3.6619
 7763TIP3    H247485   0.392   2.406   8.955  4.6376 -1.9495  1.2718
 7764TIP3   OH247486   5.119   5.624  10.862  0.1634  0.3812  0.1573
 7764TIP3    H147487   5.039   5.598  10.817  0.2165  0.9585 -0.2883
 7764TIP3    H247488   5.141   5.550  10.918  0.7477 -0.8922 -1.6478
 7765TIP3   OH247489   0.565   0.967  10.298 -0.5966 -0.1393 -0.2095
 7765TIP3    H147490   0.511   0.965  10.377 -0.9814  0.1813 -0.4580
 7765TIP3    H247491   0.512   1.015  10.234  0.5319  1.3853 -0.0610
 7766TIP3   OH247492   0.356   6.498   8.819 -0.1250  0.1484  0.1451
 7766TIP3    H147493   0.427   6.456   8.771 -0.1502 -1.4922  1.4711
 7766TIP3    H247494   0.374   6.592   8.809  2.1995 -0.2034  0.3546
 7767TIP3   OH247495   3.449   5.999  10.935  0.6782  0.0950  1.2951
 7767TIP3    H147496   3.512   5.927  10.938 -0.5003 -0.9819  1.2904
 7767TIP3    H247497   3.458   6.043  11.019  1.0983 -0.3383  1.4811
 7768TIP3   OH247498   1.852   4.348  11.077  0.3624  0.1603 -0.0916
 7768TIP3    H147499   1.875   4.255  11.083  1.4162  0.3932 -0.3516
 7768TIP3    H247500   1.923   4.387  11.027  0.4888  1.3031  0.9397
 7769TIP3   OH247501   1.877   2.750   9.865 -0.7471 -0.4797  0.5279
 7769TIP3    H147502   1.897   2.825   9.921  0.2319  0.0966 -0.5602
 7769TIP3    H247503   1.946   2.686   9.886  0.3932  0.2336 -0.8842
 7770TIP3   OH247504   3.123   3.801   8.988 -0.6864  0.5718  0.1324
 7770TIP3    H147505   3.180   3.749   9.045 -1.7648  0.1347  0.8470
 7770TIP3    H247506   3.037   3.759   8.995 -0.9972  0.9126 -1.3118
 7771TIP3   OH247507   2.797   2.334   8.166 -0.1209  0.0839  0.5756
 7771TIP3    H147508   2.812   2.395   8.239  0.9003  0.1699  0.2986
 7771TIP3    H247509   2.798   2.389   8.088 -1.6381  0.0570  0.4978
 7772TIP3   OH247510   3.066   2.009  11.599 -0.4566  0.3396 -0.2300
 7772TIP3    H147511   3.020   2.077  11.649  1.0369  0.2622  1.3787
 7772TIP3    H247512   3.130   2.057  11.546 -2.2687  0.4487 -2.4575
 7773TIP3   OH247513   2.402   4.945   8.871  0.6334  0.3717  0.3552
 7773TIP3    H147514   2.306   4.952   8.873  0.6553  0.9681 -0.3766
 7773TIP3    H247515   2.419   4.851   8.869  0.0024  0.2593 -1.2793
 7774TIP3   OH247516   6.274   4.076  10.646 -0.1481  0.0326  0.1831
 7774TIP3    H147517   6.289   4.087  10.740 -1.6829 -1.0789  0.5959
 7774TIP3    H247518   6.330   4.003  10.621  1.7592  1.5403 -0.2469
 7775TIP3   OH247519   5.406   3.995  11.031  0.2483  0.0266 -0.4124
 7775TIP3    H147520   5.381   3.903  11.022 -2.5597  0.5331  0.9851
 7775TIP3    H247521   5.485   3.992  11.085  0.0647 -1.5601 -0.1578
 7776TIP3   OH247522   6.363   2.757   9.656  0.1227 -0.2027  1.1365
 7776TIP3    H147523   6.269   2.748   9.671  0.1517 -0.6677  1.0340
 7776TIP3    H247524   6.398   2.669   9.669  0.0685 -0.8601 -2.4100
 7777TIP3   OH247525   3.755   3.238  10.406  0.6157 -0.1316 -0.3170
 7777TIP3    H147526   3.789   3.263  10.492  1.5132 -1.0170 -0.4004
 7777TIP3    H247527   3.823   3.266  10.345 -0.2349  0.9331 -0.8007
 7778TIP3   OH247528   5.663   0.401  11.547  0.1913  0.6694  0.0099
 7778TIP3    H147529   5.756   0.384  11.565  0.0562 -0.4949 -0.2931
 7778TIP3    H247530   5.624   0.415  11.634  0.2436 -1.1489  0.3675
 7779TIP3   OH247531   6.485   1.397   9.489 -0.3295  0.1451 -0.4670
 7779TIP3    H147532   6.535   1.447   9.553  0.0432 -0.5932 -0.1767
 7779TIP3    H247533   6.401   1.380   9.533 -0.6733  0.9813 -0.7790
 7780TIP3   OH247534   2.080   4.919  10.629  0.0115 -0.0951 -0.1880
 7780TIP3    H147535   2.001   4.972  10.642  1.1154  1.8774 -1.0969
 7780TIP3    H247536   2.051   4.847  10.574 -1.3976 -0.1037  0.5007
 7781TIP3   OH247537   0.951   4.198  10.477  0.4672  0.1537  0.1668
 7781TIP3    H147538   0.993   4.175  10.394  2.8031 -0.0801  1.3312
 7781TIP3    H247539   0.880   4.135  10.486  1.5635 -1.2496 -0.6299
 7782TIP3   OH247540   1.362   0.019  10.816 -0.1532  0.1726  0.5901
 7782TIP3    H147541   1.427  -0.051  10.820 -0.9596 -0.6111  0.2657
 7782TIP3    H247542   1.400   0.089  10.870  1.2722  0.0156 -0.1471
 7783TIP3   OH247543   0.284   5.563   9.066 -0.6416 -0.1416  0.0286
 7783TIP3    H147544   0.200   5.559   9.021 -1.0367 -2.3820  0.8597
 7783TIP3    H247545   0.264   5.600   9.152 -0.9126 -1.2218  0.4451
 7784TIP3   OH247546   1.852   3.957   9.354  0.1503 -0.1650 -0.3677
 7784TIP3    H147547   1.867   3.881   9.410  1.9490 -0.5279 -1.2527
 7784TIP3    H247548   1.760   3.952   9.329 -0.0810 -1.3063  0.6371
 7785TIP3   OH247549   3.188   4.135  10.720 -0.1988  0.4582 -0.2244
 7785TIP3    H147550   3.195   4.168  10.810 -0.8876  0.7699 -0.2771
 7785TIP3    H247551   3.134   4.200  10.675  0.6085  0.5965 -1.0182
 7786TIP3   OH247552   2.666   0.806  11.313 -0.3962 -0.2521  0.1192
 7786TIP3    H147553   2.595   0.775  11.368 -0.1864  0.7693  0.9989
 7786TIP3    H247554   2.623   0.840  11.234 -0.9256  0.7107  0.8113
 7787TIP3   OH247555   1.867   1.833   8.532  0.4218 -0.4661  0.2314
 7787TIP3    H147556   1.912   1.912   8.559 -0.4412 -0.1756  0.8597
 7787TIP3    H247557   1.774   1.858   8.528  0.0911 -1.5239  0.8015
 7788TIP3   OH247558   0.904   3.798  10.406 -0.6473 -0.2443  0.5746
 7788TIP3    H147559   0.847   3.872  10.429 -0.0222  0.1268  0.9514
 7788TIP3    H247560   0.843   3.727  10.386 -1.2472 -0.1364  1.9045
 7789TIP3   OH247561   3.046   4.386  11.617  0.0071 -0.2406  0.0004
 7789TIP3    H147562   3.066   4.448  11.547  0.8248  1.3021  1.5199
 7789TIP3    H247563   3.131   4.367  11.656 -0.2276 -2.3685 -0.4174
 7790TIP3   OH247564   6.568   6.091  10.067  0.2857  0.1268  0.1853
 7790TIP3    H147565   6.504   6.157  10.094  0.1585 -0.1735  0.6315
 7790TIP3    H247566   6.653   6.135  10.076  0.2329  0.0998  0.9115
 7791TIP3   OH247567   1.571   2.664  11.576  0.6820 -0.4302  0.2715
 7791TIP3    H147568   1.658   2.703  11.576  1.2719 -1.3096 -3.7406
 7791TIP3    H247569   1.517   2.725  11.525 -1.0377 -0.1431  2.2769
 7792TIP3   OH247570   3.655   0.547  11.173  0.2517 -0.2286 -0.0817
 7792TIP3    H147571   3.655   0.519  11.082  1.2441 -1.5113  0.2943
 7792TIP3    H247572   3.562   0.559  11.194 -0.0070 -0.3401 -1.1201
 7793TIP3   OH247573   1.861   6.550  10.074  0.4084 -0.8477 -0.1727
 7793TIP3    H147574   1.779   6.518  10.037 -0.7772 -0.1977  1.7536
 7793TIP3    H247575   1.895   6.611  10.008 -1.3961 -0.0612 -0.4220
 7794TIP3   OH247576   4.763   5.929   9.403 -0.1059 -0.0009  0.0591
 7794TIP3    H147577   4.796   6.018   9.413  1.0836  0.1443 -3.5336
 7794TIP3    H247578   4.668   5.940   9.395 -0.0822  0.8053  0.8145
 7795TIP3   OH247579   2.244   3.750   9.891  0.2214  0.1853  0.4778
 7795TIP3    H147580   2.319   3.789   9.846  0.4408 -2.0345 -1.2848
 7795TIP3    H247581   2.274   3.662   9.915 -0.7487  0.4163  2.8299
 7796TIP3   OH247582   5.020   4.458   9.903 -0.3960 -0.0112 -0.1440
 7796TIP3    H147583   5.013   4.362   9.908 -0.9865  0.0546  0.4787
 7796TIP3    H247584   5.035   4.485   9.993 -0.7824  0.5221 -0.2346
 7797TIP3   OH247585   0.926   1.295   9.274  0.0359  0.2349 -0.1391
 7797TIP3    H147586   0.972   1.378   9.287  1.1332 -0.2729 -0.6305
 7797TIP3    H247587   0.893   1.272   9.361 -1.0197  1.5832 -0.1553
 7798TIP3   OH247588   4.843   5.478   9.698  0.1918 -0.2393 -0.1330
 7798TIP3    H147589   4.817   5.406   9.641 -1.9007 -0.1980  0.6970
 7798TIP3    H247590   4.847   5.554   9.641 -1.2473 -0.3216 -0.3744
 7799TIP3   OH247591   2.568   2.218  10.981 -0.2199  0.1153 -0.1679
 7799TIP3    H147592   2.642   2.211  10.922  0.7459 -0.9212  1.0941
 7799TIP3    H247593   2.562   2.311  11.002 -0.1413  0.3921 -1.3164
 7800TIP3   OH247594   3.188   3.095   8.697  0.6449 -0.4953 -0.9167
 7800TIP3    H147595   3.196   3.054   8.611 -0.7747 -1.1861 -0.7502
 7800TIP3    H247596   3.264   3.063   8.746  0.2998 -1.8489 -1.2300
 7801TIP3   OH247597   5.810   5.842  11.051 -0.2878 -0.0667 -0.0318
 7801TIP3    H147598   5.803   5.925  11.003 -1.5360 -0.5332 -0.6908
 7801TIP3    H247599   5.898   5.810  11.031  0.4579  1.3922  0.7396
 7802TIP3   OH247600   5.582   4.064   9.988 -0.2034  0.5125  0.1761
 7802TIP3    H147601   5.503   4.074   9.935 -0.5548  0.1609  0.6397
 7802TIP3    H247602   5.562   4.109  10.070  0.8745  2.3891 -0.5159
 7803TIP3   OH247603   5.091   4.676   8.814 -0.3938 -0.3057  0.3553
 7803TIP3    H147604   5.108   4.766   8.841  0.3831 -0.2312 -0.3275
 7803TIP3    H247605   5.027   4.644   8.876 -1.5586  1.0903 -0.0671
 7804TIP3   OH247606   0.650   5.870  11.094 -0.3903  0.3012 -0.0188
 7804TIP3    H147607   0.711   5.801  11.069 -0.2790  0.4367 -0.1202
 7804TIP3    H247608   0.594   5.883  11.017 -2.1777 -1.5342  0.8552
 7805TIP3   OH247609   4.922   2.104   9.235 -0.0947 -0.6347  0.4679
 7805TIP3    H147610   4.984   2.172   9.209  0.6771 -1.3478  0.4179
 7805TIP3    H247611   4.836   2.141   9.215  0.3214  0.2739  0.3246
 7806TIP3   OH247612   4.450   1.468  10.291  0.5360  0.0553 -0.5599
 7806TIP3    H147613   4.512   1.525  10.335 -2.2949  3.1529 -0.1785
 7806TIP3    H247614   4.406   1.419  10.361  3.5872 -3.7226 -0.9203
 7807TIP3   OH247615   6.414   0.602  10.585  0.3787 -0.1652  0.1208
 7807TIP3    H147616   6.334   0.645  10.613  0.7847  1.1457 -0.6634
 7807TIP3    H247617   6.433   0.639  10.499  1.4256 -1.0061 -0.0387
 7808TIP3   OH247618   2.167   1.552  11.240  0.0804  0.4408  0.3661
 7808TIP3    H147619   2.191   1.531  11.330  0.2138 -0.4079  0.1391
 7808TIP3    H247620   2.107   1.482  11.214  0.9407  0.0420 -0.5802
 7809TIP3   OH247621   6.454   1.312  12.150 -0.4426  0.4035  0.1851
 7809TIP3    H147622   6.510   1.300  12.072 -2.3513 -1.5515 -1.0016
 7809TIP3    H247623   6.484   1.245  12.211  0.1452  1.0449  0.6251
 7810TIP3   OH247624   4.145   2.725   9.639 -1.0799 -0.3457 -0.4089
 7810TIP3    H147625   4.144   2.766   9.552 -0.5811  0.9682  0.1780
 7810TIP3    H247626   4.089   2.647   9.629 -1.9754  0.4053 -1.5988
 7811TIP3   OH247627   1.864   1.594  11.002  0.2733  0.4747  0.0797
 7811TIP3    H147628   1.881   1.605  10.908  1.6113  2.4983  0.4939
 7811TIP3    H247629   1.918   1.519  11.026  0.8649  0.6753 -0.5611
 7812TIP3   OH247630   0.473   1.225  11.275  0.5057 -0.5321  0.2127
 7812TIP3    H147631   0.395   1.173  11.252  0.6441 -0.5107 -0.3211
 7812TIP3    H247632   0.450   1.268  11.358  0.5726 -1.8297  0.9260
 7813TIP3   OH247633   1.576   3.606  11.406  0.0471 -0.2343  0.4698
 7813TIP3    H147634   1.551   3.691  11.369  0.7803  0.0690  0.6475
 7813TIP3    H247635   1.554   3.543  11.337  2.0065  0.3940 -0.8250
 7814TIP3   OH247636   2.611   5.387   9.528 -0.1426  0.0614  0.2430
 7814TIP3    H147637   2.632   5.326   9.598 -0.3055  0.2932  0.4990
 7814TIP3    H247638   2.654   5.351   9.451  0.6709  0.2032  0.6202
 7815TIP3   OH247639   2.757   2.638  12.236  0.2268 -0.5406  0.0322
 7815TIP3    H147640   2.711   2.657  12.154 -0.2124 -0.5708  0.2709
 7815TIP3    H247641   2.719   2.556  12.267  0.4765 -0.5917  0.2071
 7816TIP3   OH247642   3.103   5.476  11.993 -0.3867 -0.2816 -0.2062
 7816TIP3    H147643   3.030   5.529  12.024  0.8476  0.6001  1.3200
 7816TIP3    H247644   3.143   5.440  12.072  0.6897 -0.9426 -1.0152
 7817TIP3   OH247645   2.393   3.528   9.955  0.0787  0.3980 -0.4903
 7817TIP3    H147646   2.482   3.564   9.960  0.7587 -0.3690 -4.1015
 7817TIP3    H247647   2.403   3.437   9.982  0.9396 -0.2531 -2.7159
 7818TIP3   OH247648   3.932   3.411   9.439  0.4766 -0.4892 -0.6183
 7818TIP3    H147649   3.904   3.436   9.351  3.3968  2.0912 -0.9907
 7818TIP3    H247650   3.990   3.336   9.425  1.0821  0.0273 -0.9716
 7819TIP3   OH247651   1.319   2.805  11.733 -0.0661 -0.0966 -0.1807
 7819TIP3    H147652   1.257   2.863  11.689  0.2697  0.3443 -0.0752
 7819TIP3    H247653   1.351   2.856  11.807 -1.4707 -1.2164  1.2905
 7820TIP3   OH247654   5.704   5.800   8.643  0.5595 -0.1231  0.6701
 7820TIP3    H147655   5.710   5.811   8.738  1.9931  0.9074  0.4935
 7820TIP3    H247656   5.743   5.880   8.608 -0.6101 -0.1584 -0.8040
 7821TIP3   OH247657   2.614   4.663  11.578  0.8706  0.1894 -0.1413
 7821TIP3    H147658   2.624   4.590  11.639 -1.0249  0.4971  0.6192
 7821TIP3    H247659   2.560   4.628  11.508  1.8628  0.2466 -0.9552
 7822TIP3   OH247660   2.432   0.373   8.568 -0.0838  0.0791  0.5503
 7822TIP3    H147661   2.400   0.462   8.582 -1.0479 -0.0197 -0.8998
 7822TIP3    H247662   2.353   0.318   8.571  0.1665 -0.4037 -1.1430
 7823TIP3   OH247663   5.177   5.321  10.865 -0.2637 -0.3257  0.5657
 7823TIP3    H147664   5.214   5.235  10.884 -0.5490 -0.4898  0.3988
 7823TIP3    H247665   5.252   5.379  10.856 -0.0177 -0.7758 -0.3625
 7824TIP3   OH247666   2.255   4.497   9.750  0.1178 -0.2176  0.0623
 7824TIP3    H147667   2.235   4.575   9.697  3.3680 -0.4097 -1.7225
 7824TIP3    H247668   2.287   4.433   9.687  0.1147 -2.0576  1.8267
 7825TIP3   OH247669   0.057   2.879   9.807  0.5004  0.6201  0.0555
 7825TIP3    H147670  -0.011   2.941   9.779  0.4394  0.8972  0.7946
 7825TIP3    H247671   0.014   2.825   9.873  0.2128 -0.9722 -1.3466
 7826TIP3   OH247672   3.399   4.260   8.924  0.9733  0.1010 -0.1352
 7826TIP3    H147673   3.408   4.165   8.935  0.1988  0.0926  0.4998
 7826TIP3    H247674   3.309   4.272   8.891  0.3703  0.7429  1.6496
 7827TIP3   OH247675   3.145   2.137  10.901 -0.4441 -0.0754 -0.3206
 7827TIP3    H147676   3.221   2.088  10.870 -0.7293  0.0612 -1.2743
 7827TIP3    H247677   3.101   2.166  10.821 -1.9002 -0.7654  0.1946
 7828TIP3   OH247678   1.936   6.102   8.744 -0.1401 -0.4500  0.4819
 7828TIP3    H147679   1.857   6.063   8.710  0.4830 -1.1411 -0.1926
 7828TIP3    H247680   1.976   6.034   8.798  0.3101 -0.3194  0.3214
 7829TIP3   OH247681   6.068   4.555  11.340  0.4892  0.5386 -0.2488
 7829TIP3    H147682   6.105   4.583  11.256  1.3166 -2.1854 -0.8903
 7829TIP3    H247683   6.122   4.599  11.406  0.8085  1.5140 -1.1329
 7830TIP3   OH247684   1.231   2.167   9.307 -0.1084  0.1382  0.6838
 7830TIP3    H147685   1.179   2.170   9.227 -0.6884 -1.1529  0.9897
 7830TIP3    H247686   1.279   2.250   9.307 -0.7462  0.5376 -0.5536
 7831TIP3   OH247687   6.643   3.127   9.013  0.1944 -0.2383 -0.4822
 7831TIP3    H147688   6.560   3.087   8.986  0.1273 -0.1719 -0.3765
 7831TIP3    H247689   6.644   3.117   9.108  0.6120 -0.8245 -0.5401
 7832TIP3   OH247690   4.892   6.490   8.835 -0.0604  0.7714  0.7934
 7832TIP3    H147691   4.817   6.467   8.890  0.5075  2.0743  2.1753
 7832TIP3    H247692   4.909   6.411   8.784 -1.2789 -0.1347  1.7354
 7833TIP3   OH247693   1.310   5.761  10.339  0.8090 -0.0782  0.2713
 7833TIP3    H147694   1.286   5.851  10.363 -1.3113 -0.4590 -0.2013
 7833TIP3    H247695   1.267   5.747  10.255  0.9310 -1.6169  0.4444
 7834TIP3   OH247696   1.051   2.503  12.161 -0.2674 -0.4686  0.0680
 7834TIP3    H147697   1.122   2.562  12.133  0.2547 -0.7315  0.8147
 7834TIP3    H247698   1.080   2.416  12.135 -1.4129 -0.3406 -1.7821
 7835TIP3   OH247699   3.871   0.910   8.890 -0.5105 -0.3461  0.1938
 7835TIP3    H147700   3.871   0.833   8.833  0.3457 -1.6572  1.9080
 7835TIP3    H247701   3.918   0.976   8.839 -1.5934 -0.7585 -1.4643
 7836TIP3   OH247702   1.915   1.023  11.081  0.4604  0.2637  0.2669
 7836TIP3    H147703   1.850   1.066  11.025  1.9791 -0.5557 -2.2729
 7836TIP3    H247704   1.984   1.088  11.092  0.3335  0.2948  0.8778
 7837TIP3   OH247705   6.417   1.085   9.390  0.2463 -0.5612  0.0694
 7837TIP3    H147706   6.424   1.174   9.358  0.6142 -0.5327  0.2204
 7837TIP3    H247707   6.458   1.031   9.322 -1.2411 -0.7664 -0.6806
 7838TIP3   OH247708   6.264   3.764  10.449 -0.3481 -0.6489 -0.4573
 7838TIP3    H147709   6.319   3.785  10.524 -0.1883  1.4856 -1.1270
 7838TIP3    H247710   6.296   3.679  10.419  1.0143 -0.5276  0.5670
 7839TIP3   OH247711   1.542   6.508  10.889  0.0132 -0.0750  0.1135
 7839TIP3    H147712   1.582   6.486  10.805  0.6981  0.0769  0.3953
 7839TIP3    H247713   1.544   6.427  10.939  2.0524  0.4616  0.9584
 7840TIP3   OH247714   2.482   3.663   8.146  0.1690  0.3696  0.0253
 7840TIP3    H147715   2.431   3.583   8.142  0.2946  0.3232 -1.3731
 7840TIP3    H247716   2.419   3.733   8.130 -0.1666  0.6956  2.4835
 7841TIP3   OH247717   2.048   0.936   9.886  0.0519 -0.1975 -0.8424
 7841TIP3    H147718   2.125   0.879   9.882  0.2613  0.1665 -2.3063
 7841TIP3    H247719   2.058   0.985   9.967  2.8102  1.8460 -2.2870
 7842TIP3   OH247720   1.382   1.535  10.613  0.3974  0.5600  0.0951
 7842TIP3    H147721   1.329   1.607  10.579 -0.8439 -0.5342 -0.3498
 7842TIP3    H247722   1.414   1.567  10.697  0.4355  1.8836 -0.3980
 7843TIP3   OH247723   1.951   0.507  10.468 -0.2784 -0.3762 -0.3693
 7843TIP3    H147724   1.873   0.531  10.418  0.1032 -1.6136 -1.6288
 7843TIP3    H247725   1.997   0.444  10.412  1.6902  0.4106  0.2830
 7844TIP3   OH247726   1.219   0.274   9.353 -0.0907 -0.2709 -0.4208
 7844TIP3    H147727   1.177   0.189   9.341  1.1750 -0.7298 -1.9631
 7844TIP3    H247728   1.313   0.255   9.355  0.1883  0.7312  2.7676
 7845TIP3   OH247729   3.409   1.564  10.354  0.5378 -0.0525  0.2138
 7845TIP3    H147730   3.325   1.549  10.396  0.0405 -0.4319 -0.8869
 7845TIP3    H247731   3.468   1.587  10.426 -0.1122 -1.3737  1.2037
 7846TIP3   OH247732   1.245   0.533  11.383  0.1845  0.7226  0.1352
 7846TIP3    H147733   1.217   0.602  11.323  0.0082 -0.2383 -0.8934
 7846TIP3    H247734   1.333   0.509  11.354 -0.0421  0.0031  0.0327
 7847TIP3   OH247735   0.388   6.136   8.904 -0.4172  0.0921 -0.0613
 7847TIP3    H147736   0.299   6.149   8.874 -0.6678  1.3608  1.1252
 7847TIP3    H247737   0.400   6.041   8.904 -2.4671 -0.2446  1.6422
 7848TIP3   OH247738   0.718   4.144   8.258 -0.3326  0.1531 -0.1619
 7848TIP3    H147739   0.671   4.118   8.179  0.5891  0.4221 -0.8041
 7848TIP3    H247740   0.703   4.071   8.319 -0.2651 -0.5080 -0.9132
 7849TIP3   OH247741   0.807   2.679  10.317  0.5318 -0.4768  0.5924
 7849TIP3    H147742   0.874   2.747  10.326  0.5388 -0.4644  0.4382
 7849TIP3    H247743   0.766   2.674  10.404  0.0916  0.1803  0.4322
 7850TIP3   OH247744   0.045   1.335  11.327 -0.8337 -0.0985  0.6561
 7850TIP3    H147745  -0.040   1.341  11.285 -0.1044  0.5941 -0.7801
 7850TIP3    H247746   0.094   1.272  11.275  0.0496  0.6938  0.4992
 7851TIP3   OH247747   2.826   0.440  11.952  0.8262 -0.1195  0.1898
 7851TIP3    H147748   2.809   0.491  11.872 -0.6517 -0.2924  0.3631
 7851TIP3    H247749   2.856   0.355  11.919  1.9724  0.3907 -0.1272
 7852TIP3   OH247750   4.372   5.208   9.580 -0.1580 -0.2683 -0.3933
 7852TIP3    H147751   4.385   5.171   9.667 -2.3096  0.4794  0.3003
 7852TIP3    H247752   4.427   5.154   9.523  1.8397 -0.3630  1.4737
 7853TIP3   OH247753   3.694   1.782  11.520 -0.1581  0.3000  0.1214
 7853TIP3    H147754   3.673   1.721  11.590  1.5721 -2.0886 -1.2776
 7853TIP3    H247755   3.789   1.777  11.511 -0.1733  1.7608 -1.3288
 7854TIP3   OH247756   2.982   3.737   9.647 -0.5020 -0.1384  0.4652
 7854TIP3    H147757   3.004   3.742   9.555 -2.4686 -0.4123 -0.0790
 7854TIP3    H247758   2.914   3.804   9.659  0.6710  0.8264  2.0400
 7855TIP3   OH247759   3.013   6.636  11.338  0.6538  0.6486  0.4107
 7855TIP3    H147760   3.056   6.696  11.399  1.0908  2.6382 -1.7004
 7855TIP3    H247761   3.085   6.601  11.286  0.3424 -1.4455  1.3102
 7856TIP3   OH247762   1.073   2.742  11.213  0.3727  0.4278  0.0693
 7856TIP3    H147763   0.992   2.734  11.164 -0.1248  0.4336  0.8645
 7856TIP3    H247764   1.080   2.660  11.261  1.0924  0.2316 -0.3629
 7857TIP3   OH247765   2.486   0.840  11.723 -0.2579  0.4755 -0.0303
 7857TIP3    H147766   2.450   0.781  11.657  1.4251 -2.2020  1.2781
 7857TIP3    H247767   2.424   0.912  11.727 -1.8000 -0.5785 -2.6037
 7858TIP3   OH247768   3.725   3.399   9.862  0.4732  0.1267 -0.3201
 7858TIP3    H147769   3.727   3.463   9.790  0.1859 -2.4840 -2.8669
 7858TIP3    H247770   3.648   3.421   9.913  0.9893  2.4147 -0.4441
 7859TIP3   OH247771   6.355   3.782   8.263 -0.1906 -0.2486 -0.5692
 7859TIP3    H147772   6.401   3.867   8.262 -0.5609  0.0354  1.5617
 7859TIP3    H247773   6.404   3.730   8.326 -2.4353 -0.1098  1.4114
 7860TIP3   OH247774   1.472   2.909  11.429 -0.0654 -0.2479 -0.1671
 7860TIP3    H147775   1.448   2.840  11.368  0.7058 -0.0481 -0.7083
 7860TIP3    H247776   1.390   2.956  11.445 -0.3902 -0.6674 -0.5834
 7861TIP3   OH247777   5.084   2.442   8.648  0.0619  0.3605 -0.2333
 7861TIP3    H147778   5.044   2.528   8.659  0.5419  0.6806 -0.9385
 7861TIP3    H247779   5.010   2.382   8.642 -0.2699  0.6560  0.7242
 7862TIP3   OH247780   2.381   2.543   9.226  0.0248 -0.0126 -0.0009
 7862TIP3    H147781   2.463   2.588   9.247  0.3874 -0.5506 -0.2506
 7862TIP3    H247782   2.385   2.461   9.275  0.3024 -0.7000 -1.1416
 7863TIP3   OH247783   2.500   3.274  10.088  0.1786 -0.7204 -0.3598
 7863TIP3    H147784   2.512   3.179  10.090 -1.8210 -1.0181  2.0920
 7863TIP3    H247785   2.506   3.301  10.179  2.4929  1.8639 -1.1332
 7864TIP3   OH247786   4.955   4.558   9.232  0.2515 -0.3048 -0.2863
 7864TIP3    H147787   4.895   4.579   9.304  1.0123  2.6793 -0.3683
 7864TIP3    H247788   5.038   4.538   9.275  0.9065  2.1964 -0.2200
 7865TIP3   OH247789   6.290   0.356  10.076 -0.2237  0.4732  0.1530
 7865TIP3    H147790   6.254   0.401  10.000  0.3237  0.8747  0.1251
 7865TIP3    H247791   6.215   0.316  10.119 -0.6427  0.9734 -0.1177
 7866TIP3   OH247792   0.746   0.868  10.544  0.4696 -0.3072  0.5483
 7866TIP3    H147793   0.809   0.923  10.497  0.3471 -1.6169 -1.2601
 7866TIP3    H247794   0.762   0.780  10.511 -2.7118 -0.6039 -0.5031
 7867TIP3   OH247795   1.620   1.383  11.477  0.3229 -0.0739 -0.3947
 7867TIP3    H147796   1.711   1.412  11.475  0.4163 -0.3523 -0.2525
 7867TIP3    H247797   1.589   1.405  11.564  0.6490 -1.1435  0.0149
 7868TIP3   OH247798   3.714   2.211  11.135 -0.2308  0.0746  0.0758
 7868TIP3    H147799   3.714   2.129  11.185 -0.7732  1.2659  2.1087
 7868TIP3    H247800   3.806   2.238  11.133  0.2315 -1.3467 -2.0582
 7869TIP3   OH247801   3.322   6.600   9.327  0.0275  0.5206  0.2459
 7869TIP3    H147802   3.401   6.572   9.374  0.5511  1.4379 -0.0496
 7869TIP3    H247803   3.282   6.519   9.296  1.8035  0.1130 -1.0953
 7870TIP3   OH247804   2.630   3.960  12.229 -0.3178 -0.4199 -0.3188
 7870TIP3    H147805   2.560   4.025  12.228  0.0944  0.4403  4.2764
 7870TIP3    H247806   2.585   3.876  12.243 -0.5907 -0.0186  1.4525
 7871TIP3   OH247807   0.119   3.454  11.096 -0.0676 -0.0521 -0.4827
 7871TIP3    H147808   0.206   3.454  11.136 -0.8208 -1.8467  1.3371
 7871TIP3    H247809   0.079   3.536  11.126  0.2054 -0.3039  0.5949
 7872TIP3   OH247810   1.650   4.364  11.631  0.4561 -0.0007 -0.6302
 7872TIP3    H147811   1.585   4.344  11.698  0.9087 -2.4101 -0.8229
 7872TIP3    H247812   1.605   4.421  11.569 -0.8516 -0.0855  0.2235
 7873TIP3   OH247813   2.937   5.053  11.201 -0.4912  0.1393 -0.4563
 7873TIP3    H147814   2.927   4.988  11.131  1.4881  1.2060 -1.8412
 7873TIP3    H247815   2.869   5.118  11.183 -2.7721 -1.6084  1.1866
 7874TIP3   OH247816   4.243   5.937   8.794 -0.3923 -0.0270 -0.1303
 7874TIP3    H147817   4.311   6.005   8.792  0.5730 -0.9597  0.1180
 7874TIP3    H247818   4.250   5.898   8.881 -0.7967 -0.5756 -0.3353
 7875TIP3   OH247819   1.541   6.669   9.783 -0.5937  0.0292 -0.3890
 7875TIP3    H147820   1.607   6.724   9.742 -1.1311  2.8886  2.2092
 7875TIP3    H247821   1.583   6.638   9.864 -1.9085  0.8480  0.6552
 7876TIP3   OH247822   1.404   3.214   8.625 -0.1177 -0.1988 -0.7741
 7876TIP3    H147823   1.406   3.310   8.627  0.6018 -0.2078 -0.6119
 7876TIP3    H247824   1.464   3.190   8.554  0.9645 -0.5499  0.2293
 7877TIP3   OH247825   5.718   4.475  10.021 -0.1840  0.1482 -0.9798
 7877TIP3    H147826   5.778   4.400  10.020 -1.1411 -0.6570 -0.0048
 7877TIP3    H247827   5.639   4.443   9.978 -0.8702  0.3506  0.0894
 7878TIP3   OH247828   3.626   5.256   8.944  0.0540 -0.6534 -0.1192
 7878TIP3    H147829   3.701   5.229   8.996 -0.0779 -0.2160  0.3043
 7878TIP3    H247830   3.655   5.249   8.854  0.2712 -1.4652  0.0048
 7879TIP3   OH247831   6.453   1.501  11.021 -0.1490  0.2684  0.0348
 7879TIP3    H147832   6.438   1.590  11.050  0.5845  0.4282 -0.0571
 7879TIP3    H247833   6.476   1.452  11.100 -1.3115 -0.0236  0.2099
 7880TIP3   OH247834   4.922   4.842  10.794  0.2740 -0.1218 -0.1999
 7880TIP3    H147835   4.960   4.772  10.847  1.0651  0.6134  0.2301
 7880TIP3    H247836   4.828   4.837  10.812  0.5440  0.2960  1.5597
 7881TIP3   OH247837   3.921   4.798   8.261 -0.0897  0.3748 -0.4399
 7881TIP3    H147838   3.948   4.788   8.170 -2.4777 -0.6434 -1.1168
 7881TIP3    H247839   3.924   4.709   8.297 -0.0249  0.6357  0.2228
 7882TIP3   OH247840   2.603   5.794  10.683  0.1599  0.4609  0.2316
 7882TIP3    H147841   2.698   5.782  10.683  0.5391  2.4581 -2.6838
 7882TIP3    H247842   2.569   5.725  10.627 -0.2112 -0.4765  1.5626
 7883TIP3   OH247843   4.391   3.973  10.344  0.0155  0.5231 -0.3758
 7883TIP3    H147844   4.478   3.977  10.385 -0.3614 -2.5399  0.9575
 7883TIP3    H247845   4.332   4.006  10.411 -0.0477  1.2790 -0.7823
 7884TIP3   OH247846   3.337   3.224   9.855 -0.0584  0.8872 -0.3818
 7884TIP3    H147847   3.308   3.192   9.940 -0.7270 -0.0539 -0.9480
 7884TIP3    H247848   3.431   3.205   9.853  0.1070  1.5423  0.4052
 7885TIP3   OH247849   5.982   2.286  10.301  0.2382  0.0095 -0.9176
 7885TIP3    H147850   6.012   2.376  10.316 -1.7840  0.7966 -1.3333
 7885TIP3    H247851   5.930   2.265  10.378  1.4703 -1.2098 -0.3653
 7886TIP3   OH247852   3.203   4.633   8.930 -0.4309  0.2425  0.3287
 7886TIP3    H147853   3.238   4.563   8.875 -0.7494 -0.0964  0.5552
 7886TIP3    H247854   3.213   4.602   9.019 -2.7213 -0.5666  0.3711
 7887TIP3   OH247855   5.588   0.889   9.431  0.4298  0.3150  0.1206
 7887TIP3    H147856   5.556   0.939   9.356  1.8529  0.9325 -0.1085
 7887TIP3    H247857   5.683   0.887   9.419  0.6465  0.0783  1.7011
 7888TIP3   OH247858   4.614   1.979   9.063  0.6372 -0.4764  0.0131
 7888TIP3    H147859   4.654   2.061   9.094 -0.2416  0.0224 -0.1357
 7888TIP3    H247860   4.561   1.949   9.136  1.4609 -1.2752  0.2995
 7889TIP3   OH247861   5.567   6.321  11.101  0.2959 -0.3184  0.4367
 7889TIP3    H147862   5.635   6.311  11.169  0.4781 -0.4384  0.2379
 7889TIP3    H247863   5.501   6.378  11.142  0.7955  0.2868  0.4250
 7890TIP3   OH247864   6.007   1.318  10.110  0.1198  0.7360  0.0572
 7890TIP3    H147865   5.914   1.336  10.094 -0.4920 -0.2810  2.0288
 7890TIP3    H247866   6.034   1.388  10.170  0.3911  0.5743  0.1237
 7891TIP3   OH247867   0.851   2.275  11.360 -1.0102 -0.2003 -0.3816
 7891TIP3    H147868   0.910   2.303  11.430 -1.5373  1.0179 -0.3900
 7891TIP3    H247869   0.858   2.180  11.359 -0.6208 -0.2157  1.0033
 7892TIP3   OH247870   6.306   0.092   8.804  0.2734 -0.1083 -0.0661
 7892TIP3    H147871   6.380   0.035   8.780 -0.7940 -1.1892 -0.9697
 7892TIP3    H247872   6.293   0.077   8.897  0.1819 -1.1994 -0.2339
 7893TIP3   OH247873   6.401   5.529  10.752  0.0416 -0.0398 -0.0142
 7893TIP3    H147874   6.393   5.440  10.717 -0.3115  0.4239 -1.1377
 7893TIP3    H247875   6.477   5.525  10.810 -0.1982 -1.1649  0.2477
 7894TIP3   OH247876   1.351   5.761  10.735  0.1227  0.3214 -0.0770
 7894TIP3    H147877   1.338   5.692  10.669  1.2277  0.0131  0.0058
 7894TIP3    H247878   1.351   5.842  10.685 -2.3789  0.4054 -0.0410
 7895TIP3   OH247879   3.626   1.105  10.023  0.1971 -0.0542  0.5571
 7895TIP3    H147880   3.574   1.090   9.944 -1.4080 -0.5790  1.6583
 7895TIP3    H247881   3.619   1.023  10.072 -0.8805  1.0216  2.3375
 7896TIP3   OH247882   1.267   3.905   9.625 -0.1546  0.4052 -0.1275
 7896TIP3    H147883   1.270   3.946   9.712 -2.2192  0.4146 -0.0167
 7896TIP3    H247884   1.332   3.835   9.630 -2.2571 -1.6142  2.5692
 7897TIP3   OH247885   1.982   2.435  10.062 -0.2488 -0.1884 -0.1948
 7897TIP3    H147886   2.058   2.492  10.055 -0.1208 -0.4721 -1.4508
 7897TIP3    H247887   1.908   2.494  10.072 -0.2568  0.3317 -2.6650
 7898TIP3   OH247888   6.304   4.965  10.016  0.0340  0.1337 -0.4092
 7898TIP3    H147889   6.351   5.004   9.942 -0.0251  0.4533 -0.2776
 7898TIP3    H247890   6.260   4.888   9.978 -1.7116  1.4461 -1.2172
 7899TIP3   OH247891   6.216   4.591   8.701 -0.6114 -0.5159 -0.0646
 7899TIP3    H147892   6.211   4.533   8.777  1.2261  1.1061  1.4095
 7899TIP3    H247893   6.153   4.661   8.720  2.8449  2.3286  2.4089
 7900TIP3   OH247894   3.796   5.743   8.762  0.4436 -0.4497  0.0026
 7900TIP3    H147895   3.851   5.686   8.815 -0.0381  0.9143  2.1092
 7900TIP3    H247896   3.742   5.684   8.711  1.1427 -1.8431  0.8229
 7901TIP3   OH247897   5.347   1.355   9.587  0.3730  0.6525 -0.2825
 7901TIP3    H147898   5.425   1.375   9.535  0.9415 -0.6073  0.0491
 7901TIP3    H247899   5.362   1.399   9.671 -0.4146  2.4495 -1.0299
 7902TIP3   OH247900   4.600   1.449   8.884  0.1264  0.0557 -0.2747
 7902TIP3    H147901   4.646   1.524   8.921 -1.2749  0.3426  0.9844
 7902TIP3    H247902   4.596   1.468   8.790 -1.1347  2.1663  0.1190
 7903TIP3   OH247903   2.329   2.349   8.468  0.5980  0.6532  0.0171
 7903TIP3    H147904   2.379   2.268   8.455 -0.0212  0.4267 -1.1387
 7903TIP3    H247905   2.354   2.380   8.555  0.4041 -1.1112  0.7448
 7904TIP3   OH247906   6.606   3.154  10.367 -0.5244  0.0631 -0.3112
 7904TIP3    H147907   6.552   3.086  10.326  0.2759 -1.0678  0.4552
 7904TIP3    H247908   6.563   3.171  10.451 -0.2251 -0.1549 -0.1117
 7905TIP3   OH247909   4.903   5.773   9.784  0.3414 -0.3831 -0.4925
 7905TIP3    H147910   4.873   5.725   9.707  0.2309 -1.2600  0.0900
 7905TIP3    H247911   4.995   5.792   9.765  0.8278 -2.1627 -0.0960
 7906TIP3   OH247912   3.889   4.171   9.402  0.1048 -0.3247 -0.4231
 7906TIP3    H147913   3.872   4.259   9.435  2.7888  0.0901  0.1198
 7906TIP3    H247914   3.943   4.130   9.470  1.0049 -1.4865 -1.7792
 7907TIP3   OH247915   4.387   5.231  17.788 -0.4878 -0.0564  0.0814
 7907TIP3    H147916   4.436   5.261  17.711  1.4320 -0.1194  1.2326
 7907TIP3    H247917   4.448   5.239  17.861 -2.8160  1.7337  1.9886
 7908TIP3   OH247918   0.762   3.570  10.367  0.7288  0.5330  0.0734
 7908TIP3    H147919   0.780   3.529  10.452  0.7355  0.0708 -0.1436
 7908TIP3    H247920   0.723   3.500  10.315 -0.5949  1.1882  0.1480
 7909TIP3   OH247921   6.098   1.625  11.925 -0.3025  0.3141 -0.0794
 7909TIP3    H147922   6.037   1.551  11.927  1.1508 -0.9277  1.4211
 7909TIP3    H247923   6.059   1.691  11.982 -1.5561  0.6992 -1.3374
 7910TIP3   OH247924   0.315   3.843  10.602  0.6339 -0.0198 -0.2959
 7910TIP3    H147925   0.389   3.843  10.540  0.7331  1.1465 -0.1904
 7910TIP3    H247926   0.348   3.890  10.678  0.4317 -1.2549  0.5799
 7911TIP3   OH247927   4.444   5.548   9.904  0.4529 -0.2373  0.0919
 7911TIP3    H147928   4.391   5.566   9.826 -2.2975 -0.5507  1.7512
 7911TIP3    H247929   4.499   5.626   9.914 -0.5103  0.6394 -1.1215
 7912TIP3   OH247930   2.148   3.039   9.414  0.1045  0.3443  0.3518
 7912TIP3    H147931   2.099   2.972   9.366 -0.3954  0.3407  0.8454
 7912TIP3    H247932   2.121   3.122   9.375 -0.6873  0.3787  0.9318
 7913TIP3   OH247933   4.400   5.042  11.117 -0.2863  0.1842  0.6170
 7913TIP3    H147934   4.479   5.043  11.063  0.6785 -0.0322  1.9721
 7913TIP3    H247935   4.353   5.121  11.091  0.4049  0.3606 -0.1586
 7914TIP3   OH247936   0.478   2.423   9.560  0.4499 -0.9094 -0.4038
 7914TIP3    H147937   0.510   2.513   9.555  0.4077 -0.8187  0.7331
 7914TIP3    H247938   0.383   2.431   9.546  0.0690 -0.4572  2.0246
 7915TIP3   OH247939   5.613   3.970  10.604  0.0758  0.3446  0.3862
 7915TIP3    H147940   5.661   3.972  10.688 -0.1185 -0.7374  0.5383
 7915TIP3    H247941   5.641   3.888  10.563 -1.0683  0.0741  0.1315
 7916TIP3   OH247942   2.701   6.295   9.516 -0.4483  0.2933 -0.3589
 7916TIP3    H147943   2.637   6.364   9.533 -0.3617  0.4054 -0.4883
 7916TIP3    H247944   2.659   6.215   9.547 -0.6317  0.3739 -0.3999
 7917TIP3   OH247945   3.748   0.218   9.910  0.4836 -0.5300 -0.8240
 7917TIP3    H147946   3.743   0.182   9.821  0.3025 -2.2053 -0.1836
 7917TIP3    H247947   3.657   0.219   9.940  0.3683  1.3663 -1.1182
 7918TIP3   OH247948   5.979   0.952   9.774  0.4757 -0.4726  0.1127
 7918TIP3    H147949   5.987   0.895   9.698 -0.3473 -0.2010 -0.1866
 7918TIP3    H247950   5.936   0.898   9.841  1.6820 -0.8819  0.5852
 7919TIP3   OH247951   6.218   2.433  11.446  0.2363 -0.0923  0.0692
 7919TIP3    H147952   6.224   2.380  11.366  0.8467 -0.5331  0.3973
 7919TIP3    H247953   6.301   2.419  11.490  0.8305  1.9439 -0.3043
 7920TIP3   OH247954   1.711   0.401  10.076 -0.2567 -0.3264  0.5535
 7920TIP3    H147955   1.628   0.365  10.047  0.1544  0.0816 -1.2683
 7920TIP3    H247956   1.690   0.490  10.104 -0.4143 -0.1423 -0.1294
 7921TIP3   OH247957   2.236   6.223  10.886 -0.2502 -0.6855 -0.6047
 7921TIP3    H147958   2.248   6.284  10.959 -0.6935 -0.7412 -0.4832
 7921TIP3    H247959   2.149   6.244  10.851 -0.9622 -2.0705  0.2348
 7922TIP3   OH247960   4.458   3.378  12.120 -0.2812  0.1226 -0.5107
 7922TIP3    H147961   4.364   3.395  12.118 -0.4993 -0.7774  1.0906
 7922TIP3    H247962   4.471   3.319  12.193  1.2751 -1.5450 -2.0403
 7923TIP3   OH247963   5.637   3.687  11.675  0.2136  0.0921 -0.8127
 7923TIP3    H147964   5.567   3.753  11.676 -0.6570 -0.7980 -1.3555
 7923TIP3    H247965   5.613   3.626  11.745  1.2404  0.5627 -0.0309
 7924TIP3   OH247966   0.716   2.613   9.357 -0.2858 -0.1807 -0.1591
 7924TIP3    H147967   0.693   2.538   9.302  0.7240 -0.3896 -0.3231
 7924TIP3    H247968   0.738   2.683   9.294  2.2570 -0.8379 -0.1258
 7925TIP3   OH247969   3.377   0.047   8.114  0.2654 -0.6187  0.6127
 7925TIP3    H147970   3.421   0.069   8.033 -0.1123  0.6878  0.7409
 7925TIP3    H247971   3.302   0.107   8.118 -1.0153 -2.1725  0.8273
 7926TIP3   OH247972   2.188   3.086  11.057 -0.5188 -0.0817 -0.4711
 7926TIP3    H147973   2.194   3.179  11.078 -1.6483  0.3563 -1.9410
 7926TIP3    H247974   2.278   3.060  11.039  0.0349  0.3004  1.5150
 7927TIP3   OH247975   5.071   0.346   9.987  0.2985  0.3926  0.3641
 7927TIP3    H147976   5.052   0.288   9.914  0.2796  0.6079  0.2002
 7927TIP3    H247977   5.049   0.433   9.956 -0.8503  0.3646  1.0282
 7928TIP3   OH247978   5.480   0.739   9.908 -0.2508 -0.2246  0.0990
 7928TIP3    H147979   5.553   0.708   9.962  0.1092 -1.0739 -0.8331
 7928TIP3    H247980   5.519   0.750   9.821 -1.2367 -0.6753 -0.4123
 7929TIP3   OH247981   2.021   3.547  12.124  0.1911 -0.4064  0.2705
 7929TIP3    H147982   1.981   3.609  12.063  1.7475 -0.7538 -1.1858
 7929TIP3    H247983   1.978   3.463  12.105  0.1002 -0.3511  0.2319
 7930TIP3   OH247984   2.330   1.491   9.118 -0.2749 -0.4027  0.4165
 7930TIP3    H147985   2.252   1.538   9.088 -0.3681  0.7597  2.3332
 7930TIP3    H247986   2.298   1.402   9.135 -1.0572 -0.0995  0.6140
 7931TIP3   OH247987   4.616   3.186  10.953 -0.2302 -0.1476 -0.2325
 7931TIP3    H147988   4.532   3.179  10.998  0.4200 -1.0329  0.8811
 7931TIP3    H247989   4.618   3.110  10.895 -1.3203  1.2869 -2.3216
 7932TIP3   OH247990   0.138   2.540   9.845 -0.0682  0.1953 -0.1535
 7932TIP3    H147991   0.079   2.464   9.844 -0.5711  0.5811 -0.3829
 7932TIP3    H247992   0.214   2.511   9.794 -0.4271 -0.0271 -0.5749
 7933TIP3   OH247993   4.853   5.692   9.523  0.5335  0.1868  0.0862
 7933TIP3    H147994   4.914   5.670   9.452 -0.8129  0.6522 -1.2622
 7933TIP3    H247995   4.814   5.775   9.496 -1.1410 -0.3903  0.6259
 7934TIP3   OH247996   0.357   3.967   8.599 -0.0859  0.1873 -0.1249
 7934TIP3    H147997   0.291   4.012   8.652  1.0856  0.8918  0.8103
 7934TIP3    H247998   0.440   3.989   8.642  1.0028  1.3301 -2.5908
 7935TIP3   OH247999   6.293   5.209  10.832 -0.4489  0.2018 -0.3247
 7935TIP3    H148000   6.214   5.155  10.840 -0.0821 -0.3613 -0.4305
 7935TIP3    H248001   6.297   5.231  10.739  0.3258 -1.0381 -0.6104
 7936TIP3   OH248002   1.014   3.961   9.536  0.6035 -0.0153 -0.5880
 7936TIP3    H148003   1.101   3.938   9.569  0.5770  1.1900  0.4170
 7936TIP3    H248004   0.955   3.899   9.578  0.7644  0.4632  0.3852
 7937TIP3   OH248005   2.693   0.404  12.459  0.0226  0.0346  0.2021
 7937TIP3    H148006   2.630   0.473  12.440 -1.8079 -0.8528  2.6452
 7937TIP3    H248007   2.642   0.335  12.500  2.2701 -1.6249  0.3858
 7938TIP3   OH248008   6.261   0.299   8.633  0.0804  0.0464 -0.3945
 7938TIP3    H148009   6.182   0.261   8.594  0.5932 -2.5419  0.9113
 7938TIP3    H248010   6.285   0.239   8.703  2.7796  1.1895 -0.2148
 7939TIP3   OH248011   0.967   3.803  11.302  0.3403  0.2193 -0.1628
 7939TIP3    H148012   0.897   3.867  11.289  0.6560  0.9952  1.7500
 7939TIP3    H248013   0.943   3.758  11.383  0.4822 -1.6494 -1.1173
 7940TIP3   OH248014   3.821   0.110  10.592  0.7837 -0.1941  0.1775
 7940TIP3    H148015   3.834   0.195  10.551 -0.0133  0.1678  0.6427
 7940TIP3    H248016   3.793   0.131  10.681 -0.9129 -0.8871 -0.1414
 7941TIP3   OH248017   0.164   4.044  10.292  0.9516 -0.0094  0.0876
 7941TIP3    H148018   0.089   3.987  10.274 -0.1113  2.1811 -3.4077
 7941TIP3    H248019   0.153   4.071  10.383  0.0366 -3.1706  1.0228
 7942TIP3   OH248020   3.279   3.144  11.669  0.0984  0.1906 -0.0598
 7942TIP3    H148021   3.338   3.080  11.708  0.3668  0.4873  0.0259
 7942TIP3    H248022   3.196   3.133  11.716 -0.6637 -1.7926 -1.6566
 7943TIP3   OH248023   2.770   5.294   9.272 -0.0223  0.3671  0.6331
 7943TIP3    H148024   2.861   5.280   9.298 -0.1735  0.4393  1.2202
 7943TIP3    H248025   2.774   5.314   9.178  0.8083  2.8029  1.1274
 7944TIP3   OH248026   2.424   6.575  12.082  0.1992  0.0183 -0.4608
 7944TIP3    H148027   2.356   6.511  12.103  1.1922 -1.0885 -0.4988
 7944TIP3    H248028   2.396   6.655  12.126 -1.7453 -0.0429 -1.4935
 7945TIP3   OH248029   5.954   0.043   9.889 -0.5686 -0.6971  0.3752
 7945TIP3    H148030   5.963   0.028   9.983 -1.4551  0.0787  0.5908
 7945TIP3    H248031   6.040   0.076   9.862 -0.3071 -0.9347  0.9024
 7946TIP3   OH248032   2.274   4.660   8.877 -0.1369 -0.5484 -0.1169
 7946TIP3    H148033   2.329   4.586   8.900 -0.5296 -1.0661 -0.8147
 7946TIP3    H248034   2.186   4.635   8.905 -0.1864 -0.1152  0.1339
 7947TIP3   OH248035   0.693   1.208   9.133  0.5212  0.5755  0.3770
 7947TIP3    H148036   0.783   1.233   9.154  0.8581 -1.3928  1.4945
 7947TIP3    H248037   0.639   1.279   9.169  1.5510  1.2110  0.7154
 7948TIP3   OH248038   4.275   2.736   8.724  0.5382  0.1068  0.1038
 7948TIP3    H148039   4.276   2.660   8.782 -0.1138 -0.8632 -1.0978
 7948TIP3    H248040   4.234   2.704   8.644 -0.6818  1.9889 -0.0875
 7949TIP3   OH248041   4.693   1.744   9.651 -0.2919  0.0079 -0.2051
 7949TIP3    H148042   4.781   1.730   9.615 -0.2118  0.7517 -0.3305
 7949TIP3    H248043   4.658   1.657   9.666  0.6832 -0.3062  0.3537
 7950TIP3   OH248044   6.156   1.707   9.416 -0.7241  0.2663 -0.1782
 7950TIP3    H148045   6.248   1.693   9.393 -0.8379 -1.0149  0.0774
 7950TIP3    H248046   6.111   1.628   9.385 -1.8844  1.2515 -1.0605
 7951TIP3   OH248047   6.403   0.944   8.962  0.2451 -0.1637 -0.3697
 7951TIP3    H148048   6.416   0.901   8.878 -1.9027  0.1268 -0.9059
 7951TIP3    H248049   6.323   0.996   8.951  0.8163  1.2022  1.3402
 7952TIP3   OH248050   0.436   5.826   9.015 -0.2152 -0.0697  0.1115
 7952TIP3    H148051   0.465   5.861   9.099  0.8584  1.7129 -0.9536
 7952TIP3    H248052   0.448   5.731   9.023  0.9234  0.1697  1.5654
 7953TIP3   OH248053   6.078   2.771   9.698 -0.3581 -0.1132 -0.0912
 7953TIP3    H148054   6.001   2.772   9.755  0.4078  0.7762  0.9621
 7953TIP3    H248055   6.045   2.797   9.612 -1.1808  0.6472  0.4400
 7954TIP3   OH248056   3.748   4.742   9.934 -0.0709  0.4583 -0.3675
 7954TIP3    H148057   3.661   4.701   9.932 -0.1631  0.6493 -0.3408
 7954TIP3    H248058   3.745   4.806   9.863 -0.6929  1.9396  0.9219
 7955TIP3   OH248059   4.236   4.525  10.433 -0.0020  0.0226 -0.2112
 7955TIP3    H148060   4.181   4.495  10.505  1.3476  0.2601  0.9659
 7955TIP3    H248061   4.182   4.590  10.387 -0.6891  0.3142  0.9502
 7956TIP3   OH248062   0.463   4.018   9.928 -0.4546 -0.0519 -0.2854
 7956TIP3    H148063   0.385   4.065   9.900 -1.4594 -0.1539  2.1787
 7956TIP3    H248064   0.432   3.953   9.990  1.4386 -1.0895 -0.3350
 7957TIP3   OH248065   1.750   1.554   9.769 -0.5277 -0.9293 -0.3556
 7957TIP3    H148066   1.785   1.477   9.724  0.7398 -0.5966  0.0265
 7957TIP3    H248067   1.816   1.575   9.835 -1.6489 -0.5081  0.6659
 7958TIP3   OH248068   6.273   0.621  11.432  0.2717  0.7415  0.2603
 7958TIP3    H148069   6.268   0.634  11.338  1.5650  0.2277  0.1108
 7958TIP3    H248070   6.189   0.655  11.465  0.5113  2.5650 -0.8732
 7959TIP3   OH248071   0.145   1.190  10.760  0.3407 -0.1329 -0.2083
 7959TIP3    H148072   0.137   1.172  10.667 -0.1779 -0.3827 -0.1135
 7959TIP3    H248073   0.078   1.255  10.778  0.2436 -0.3041  0.0516
 7960TIP3   OH248074   5.424   3.448   9.374 -0.2148 -0.5439  0.1916
 7960TIP3    H148075   5.367   3.373   9.387  2.1302 -2.1352  1.9653
 7960TIP3    H248076   5.469   3.460   9.458  2.3043  0.3575 -1.1734
 7961TIP3   OH248077   2.104   2.565   8.440  0.1071 -0.3256 -0.0362
 7961TIP3    H148078   2.059   2.515   8.508  1.1344 -1.3737 -0.0956
 7961TIP3    H248079   2.192   2.529   8.438  1.1565  2.0222  0.4432
 7962TIP3   OH248080   4.068   3.598   9.596  0.4662  0.4924  0.1279
 7962TIP3    H148081   4.025   3.524   9.552  0.4452  0.3588  0.3723
 7962TIP3    H248082   4.060   3.671   9.534 -1.3706  0.8675  0.7707
 7963TIP3   OH248083   1.290   6.023  10.486 -0.0886 -0.5320  0.1069
 7963TIP3    H148084   1.198   6.025  10.511  0.0843 -0.9341  0.8158
 7963TIP3    H248085   1.333   6.081  10.548  0.3077 -1.3072  0.5805
 7964TIP3   OH248086   6.213   3.666   9.339 -0.1098  0.1574  0.2198
 7964TIP3    H148087   6.293   3.706   9.374 -0.8351 -0.0045  2.2004
 7964TIP3    H248088   6.243   3.582   9.302  0.6373 -0.0079  1.1386
 7965TIP3   OH248089   0.372   5.838  11.227  0.6213 -0.0052 -0.1509
 7965TIP3    H148090   0.421   5.797  11.156  0.0036 -0.6818 -0.1938
 7965TIP3    H248091   0.344   5.923  11.191 -1.8293 -1.3450 -1.6753
 7966TIP3   OH248092   0.282   2.399  10.148  0.3538  0.4118 -0.4813
 7966TIP3    H148093   0.199   2.356  10.127 -0.0564  0.8473  0.2260
 7966TIP3    H248094   0.336   2.387  10.069  0.2111 -1.2806 -0.3490
 7967TIP3   OH248095   2.255   4.846   9.130 -0.0904  0.0750 -0.2481
 7967TIP3    H148096   2.187   4.909   9.152 -0.7510 -0.9724  0.8213
 7967TIP3    H248097   2.222   4.800   9.053  0.2801  0.8455 -0.8766
 7968TIP3   OH248098   2.540   4.774  11.962 -0.4208 -0.0748  0.2243
 7968TIP3    H148099   2.606   4.718  11.921 -0.2089 -0.5223  1.1658
 7968TIP3    H248100   2.558   4.862  11.927 -1.6402 -0.7620 -2.3918
 7969TIP3   OH248101   4.275   2.072  10.497 -0.5261 -0.2596  0.0469
 7969TIP3    H148102   4.198   2.031  10.458 -0.4059  0.0371 -0.5284
 7969TIP3    H248103   4.343   2.005  10.490 -0.5239 -0.2349 -0.2006
 7970TIP3   OH248104   1.937   3.830   8.621  0.0162 -0.2323  0.0358
 7970TIP3    H148105   1.853   3.868   8.595  0.0097 -0.9158 -1.0114
 7970TIP3    H248106   1.928   3.813   8.715 -0.6399  0.6237  0.1412
 7971TIP3   OH248107   3.483   3.075  10.654  0.0261  0.2135  0.5294
 7971TIP3    H148108   3.415   3.076  10.721  0.7223  0.7881  1.2336
 7971TIP3    H248109   3.565   3.069  10.702  0.5301  0.5081 -0.2716
 7972TIP3   OH248110   2.423   5.212   8.767 -0.3617 -0.1942  0.2591
 7972TIP3    H148111   2.437   5.125   8.731  0.7065 -0.2066  0.6738
 7972TIP3    H248112   2.378   5.197   8.851  1.3513 -0.4818  1.1636
 7973TIP3   OH248113   5.845   6.101  10.896  0.0963 -0.0757 -0.1143
 7973TIP3    H148114   5.855   6.191  10.927  2.1008 -0.5570  0.8136
 7973TIP3    H248115   5.785   6.107  10.822  0.1803  2.0086 -0.0599
 7974TIP3   OH248116   0.947   2.817   8.204 -0.1325  0.0509  0.1506
 7974TIP3    H148117   0.940   2.911   8.222  1.2551 -0.1204  1.9489
 7974TIP3    H248118   1.032   2.793   8.242 -0.4325 -1.9139 -0.3602
 7975TIP3   OH248119   6.004   0.196   9.493 -0.5459 -0.5938 -0.1021
 7975TIP3    H148120   5.925   0.149   9.468 -0.8419  0.3362 -1.0076
 7975TIP3    H248121   5.972   0.267   9.550 -0.5123  0.3872 -1.2687
 7976TIP3   OH248122   3.705   6.297  11.033  0.0739  0.6128 -0.3423
 7976TIP3    H148123   3.797   6.273  11.027 -0.2160 -0.3378 -1.4185
 7976TIP3    H248124   3.660   6.217  11.059 -0.3608  1.3128  1.1604
 7977TIP3   OH248125   4.151   6.192   9.695  0.1351  0.1818  0.0359
 7977TIP3    H148126   4.180   6.279   9.725  1.1510 -0.2264  0.2755
 7977TIP3    H248127   4.134   6.143   9.775  1.5842 -0.4864 -0.0249
 7978TIP3   OH248128   0.828   4.689  10.782 -0.0136  0.0593  0.1100
 7978TIP3    H148129   0.764   4.760  10.791  0.2848  0.5110 -1.0751
 7978TIP3    H248130   0.793   4.618  10.836 -1.5790  0.2632 -0.5786
 7979TIP3   OH248131   0.708   3.235   9.951 -0.6426 -0.4477  0.0631
 7979TIP3    H148132   0.645   3.164   9.944 -1.0846 -0.1834  1.0524
 7979TIP3    H248133   0.689   3.292   9.877 -1.6921 -0.2836  0.4407
 7980TIP3   OH248134   2.105   5.759   9.927 -0.4261  0.0400 -0.6009
 7980TIP3    H148135   2.053   5.679   9.917  0.6934 -0.8374  0.3065
 7980TIP3    H248136   2.089   5.808   9.846  1.3987 -2.6492 -2.8040
 7981TIP3   OH248137   2.918   4.100  10.915  0.0198  0.8972 -0.0414
 7981TIP3    H148138   2.931   4.012  10.880  0.8402  1.2185 -0.6021
 7981TIP3    H248139   2.922   4.157  10.838 -1.6323  1.3486  0.1665
 7982TIP3   OH248140   5.934   2.670   9.958  0.0876  0.4283  0.2031
 7982TIP3    H148141   5.883   2.630   9.888 -1.7698  0.4590  1.4590
 7982TIP3    H248142   5.938   2.602  10.026  1.1419  0.6937  0.4333
 7983TIP3   OH248143   1.348   2.890   9.573  0.3178 -0.0833  0.1009
 7983TIP3    H148144   1.265   2.846   9.594 -1.0388  1.4252 -1.7726
 7983TIP3    H248145   1.415   2.822   9.585 -1.4265 -1.9912 -0.4264
 7984TIP3   OH248146   0.430   1.137  10.752 -0.0424  0.3762 -0.2134
 7984TIP3    H148147   0.334   1.138  10.750 -0.1624 -1.0846  1.7707
 7984TIP3    H248148   0.454   1.066  10.692  0.0083  2.2794 -2.6269
 7985TIP3   OH248149   2.215   5.881  11.314 -0.5471  0.3275  0.4284
 7985TIP3    H148150   2.243   5.792  11.290  1.7280  0.2804  2.8007
 7985TIP3    H248151   2.242   5.935  11.240  0.7216 -0.5777  0.1925
 7986TIP3   OH248152   0.563   4.788   9.797 -0.4432 -0.6571  0.4980
 7986TIP3    H148153   0.651   4.760   9.822  0.7548  1.7569 -0.6821
 7986TIP3    H248154   0.551   4.754   9.709 -0.4557 -0.5195  0.4465
 7987TIP3   OH248155   4.839   3.640   9.514  0.0294  0.4348  0.0541
 7987TIP3    H148156   4.831   3.691   9.433  0.0951 -0.5265 -0.5797
 7987TIP3    H248157   4.884   3.560   9.487 -0.8999 -0.3750  0.8372
 7988TIP3   OH248158   6.520   3.092   8.649  0.6877 -0.1804  0.0215
 7988TIP3    H148159   6.598   3.129   8.608  0.8169  0.3305  0.7168
 7988TIP3    H248160   6.531   2.997   8.639 -0.6577 -0.1104 -3.6480
 7989TIP3   OH248161   0.685   1.258  10.849  0.1044 -0.2687  0.2118
 7989TIP3    H148162   0.655   1.282  10.937 -0.3868 -0.4661  0.1000
 7989TIP3    H248163   0.608   1.220  10.807  0.7537 -1.6339  0.2264
 7990TIP3   OH248164   0.687   5.096  11.352  0.3262 -0.1160  0.1560
 7990TIP3    H148165   0.739   5.109  11.432 -0.6176  0.1194  0.7523
 7990TIP3    H248166   0.602   5.067  11.384 -0.1389  0.2077 -0.7602
 7991TIP3   OH248167   4.047   1.329  10.093 -0.5482  0.1648  0.0809
 7991TIP3    H148168   4.029   1.355  10.003  2.0921 -0.0232 -0.6004
 7991TIP3    H248169   4.143   1.321  10.096 -0.6797 -1.4132  2.4608
 7992TIP3   OH248170   0.250   4.758  10.450 -0.0447  0.3046 -0.2628
 7992TIP3    H148171   0.225   4.711  10.530 -1.1945  1.4334  0.0769
 7992TIP3    H248172   0.199   4.714  10.381 -1.8414  1.5645  0.1909
 7993TIP3   OH248173   2.551   6.634   8.867  0.3681 -0.0660  0.7010
 7993TIP3    H148174   2.459   6.653   8.848  0.3295 -2.8287 -2.7513
 7993TIP3    H248175   2.600   6.687   8.805  0.9388 -0.8841  0.4406
 7994TIP3   OH248176   5.171   2.247   8.391 -0.2542 -0.3795  0.2266
 7994TIP3    H148177   5.198   2.310   8.457  1.8688 -2.0435  1.0612
 7994TIP3    H248178   5.241   2.249   8.326 -2.4449  1.4728 -2.3014
 7995TIP3   OH248179   4.366   5.467   9.510  0.0733 -0.0585  0.4365
 7995TIP3    H148180   4.302   5.522   9.556 -0.1859  1.0473 -1.1420
 7995TIP3    H248181   4.353   5.379   9.545  0.4293  0.8276  2.9872
 7996TIP3   OH248182   0.274   1.427   8.689  0.0383 -0.0981 -0.3800
 7996TIP3    H148183   0.348   1.408   8.631  1.1219  0.5112  0.7537
 7996TIP3    H248184   0.247   1.341   8.721 -0.8546 -0.4907 -2.0651
 7997TIP3   OH248185   2.221   4.218  10.061  0.4772  0.0895 -0.4554
 7997TIP3    H148186   2.270   4.180  10.134  0.9686 -1.9613 -1.7503
 7997TIP3    H248187   2.236   4.157   9.989 -0.5220  1.6897 -2.0944
 7998TIP3   OH248188   4.127   5.872   9.245 -0.5157 -0.1051 -0.0460
 7998TIP3    H148189   4.091   5.961   9.248  0.4722  0.2855  0.9923
 7998TIP3    H248190   4.120   5.840   9.335  3.2123  0.6445  0.6787
 7999TIP3   OH248191   5.025   1.165   8.825  0.1671 -0.3732  0.1396
 7999TIP3    H148192   4.934   1.196   8.824  0.7267  1.3847  0.2585
 7999TIP3    H248193   5.061   1.198   8.908  0.9620 -0.9198  0.0267
 8000TIP3   OH248194   4.610   5.229  10.150  0.9939  0.1201  0.1755
 8000TIP3    H148195   4.668   5.299  10.119  0.2418  0.7021  0.0329
 8000TIP3    H248196   4.534   5.234  10.093 -1.3853  2.5465  3.1601
 8001TIP3   OH248197   1.612   0.660  10.622 -0.0118 -0.2031 -0.1272
 8001TIP3    H148198   1.655   0.635  10.540 -1.2090 -1.3025 -0.4502
 8001TIP3    H248199   1.519   0.644  10.606 -0.3190  0.0773  1.2732
 8002TIP3   OH248200   5.653   4.601  10.857  0.6223  0.4350 -0.0480
 8002TIP3    H148201   5.624   4.600  10.766 -0.1763 -0.0563  0.1986
 8002TIP3    H248202   5.576   4.632  10.906  0.2295 -1.5891  0.7069
 8003TIP3   OH248203   4.069   0.831  11.234  0.2439  0.0206  0.4260
 8003TIP3    H148204   4.106   0.908  11.191  0.6598  0.5567  1.6920
 8003TIP3    H248205   4.003   0.799  11.173  1.4528  0.1822 -1.0315
 8004TIP3   OH248206   5.581   4.833  11.400  0.2753 -0.1362 -0.0111
 8004TIP3    H148207   5.594   4.797  11.488 -1.1961 -0.3286  0.1614
 8004TIP3    H248208   5.669   4.849  11.367  0.9185 -2.0331  0.6738
 8005TIP3   OH248209   0.165   0.355  11.663  0.2935  0.9281  0.5811
 8005TIP3    H148210   0.259   0.345  11.673  0.7886  2.5752 -1.7036
 8005TIP3    H248211   0.148   0.447  11.685 -0.8107  0.6087  1.1300
 8006TIP3   OH248212   0.405   0.567  11.830  0.1989  0.4620  0.2116
 8006TIP3    H148213   0.467   0.639  11.820  0.8382 -0.0706  0.2102
 8006TIP3    H248214   0.460   0.493  11.858 -0.2399 -0.3468 -0.9817
 8007TIP3   OH248215   1.303   2.297   8.540 -0.1720  0.1560  0.8174
 8007TIP3    H148216   1.397   2.289   8.527 -0.1435 -0.3045  1.3037
 8007TIP3    H248217   1.265   2.281   8.453  0.1006 -1.3770  0.9681
 8008TIP3   OH248218   2.366   0.114  10.454  0.1491  0.1921  0.1061
 8008TIP3    H148219   2.370   0.097  10.360 -1.0453  2.2381 -0.3699
 8008TIP3    H248220   2.316   0.040  10.490 -1.0714  0.3625 -1.1704
 8009TIP3   OH248221   6.222   0.586   9.626 -0.0024 -0.4204  0.0565
 8009TIP3    H148222   6.288   0.556   9.563  0.5765 -0.7349  0.7917
 8009TIP3    H248223   6.138   0.563   9.586  0.3264 -0.0797 -0.8617
 8010TIP3   OH248224   1.448   0.236  11.436  0.3877  0.2998 -0.1813
 8010TIP3    H148225   1.427   0.167  11.373  0.4933 -0.2925  0.4232
 8010TIP3    H248226   1.437   0.195  11.521  0.8949  0.8998  0.1820
 8011TIP3   OH248227   2.938   4.337  10.672  0.4814 -0.1923  0.1836
 8011TIP3    H148228   2.960   4.368  10.583 -1.2151 -1.0149 -0.5555
 8011TIP3    H248229   2.851   4.372  10.689  0.1594 -1.2987  0.9099
 8012TIP3   OH248230   2.903   2.747   8.337  0.3926 -0.0887 -0.1921
 8012TIP3    H148231   2.915   2.734   8.431 -0.7702 -0.5127 -0.0882
 8012TIP3    H248232   2.838   2.817   8.331 -2.0247 -2.2191 -0.5880
 8013TIP3   OH248233   1.569   5.998  11.710 -0.0486  0.0699 -0.0344
 8013TIP3    H148234   1.509   6.042  11.771  1.0390 -0.4116  1.4415
 8013TIP3    H248235   1.647   5.980  11.762  0.9964 -0.2424 -1.6298
 8014TIP3   OH248236   3.967   1.703  10.073  0.3240  0.3276 -0.0487
 8014TIP3    H148237   4.004   1.632  10.021  0.4606  0.6730 -0.4372
 8014TIP3    H248238   3.915   1.754  10.010  0.8309  0.9893  0.0564
 8015TIP3   OH248239   5.945   0.520  11.324 -0.1830  0.2601 -0.1293
 8015TIP3    H148240   5.935   0.504  11.418  1.0205  0.8779  0.1309
 8015TIP3    H248241   6.024   0.471  11.300  0.5614  1.5443 -0.4065
 8016TIP3   OH248242   4.363   4.588   8.763 -0.3543 -0.4225  0.0476
 8016TIP3    H148243   4.429   4.565   8.698  0.3707 -0.3074  0.7319
 8016TIP3    H248244   4.284   4.542   8.735  0.0700 -0.7210 -0.6672
 8017TIP3   OH248245   1.951   5.761  11.648  0.3551  0.0496  0.8254
 8017TIP3    H148246   1.913   5.673  11.654 -1.6940  0.6896 -1.1757
 8017TIP3    H248247   1.977   5.782  11.737  0.0807 -2.2450  1.5101
 8018TIP3   OH248248   1.979   0.426  10.026  0.3025  0.7742  0.2636
 8018TIP3    H148249   1.897   0.395  10.064 -0.0937 -1.0470 -1.8587
 8018TIP3    H248250   1.951   0.480   9.951  1.0424  0.4510 -0.2546
 8019TIP3   OH248251   0.501   3.273  11.030 -0.8501 -0.1256 -0.2174
 8019TIP3    H148252   0.521   3.180  11.042  2.2338  0.2751 -1.3421
 8019TIP3    H248253   0.491   3.307  11.119  0.5787 -1.0719  0.3391
 8020TIP3   OH248254   6.095   2.692   8.284 -0.3988  0.0763 -0.0520
 8020TIP3    H148255   6.145   2.698   8.203 -1.3486  0.3491 -0.6283
 8020TIP3    H248256   6.088   2.783   8.315 -1.2534  0.1506 -0.4293
 8021TIP3   OH248257   0.899   1.981  11.348  0.1241  0.1532 -0.7189
 8021TIP3    H148258   0.902   1.923  11.424 -0.4495 -0.1078 -0.8867
 8021TIP3    H248259   0.991   1.998  11.327  0.2967 -0.4705 -0.4974
 8022TIP3   OH248260   5.038   3.168  11.678  0.5815 -0.1097 -0.1359
 8022TIP3    H148261   5.053   3.244  11.734 -0.7359  0.6311 -0.7536
 8022TIP3    H248262   5.125   3.133  11.662  1.3391  1.9239 -0.7595
 8023TIP3   OH248263   5.069   6.042   9.305 -0.2390 -0.1542 -0.4957
 8023TIP3    H148264   5.079   6.096   9.384  0.6418 -0.1431 -0.6060
 8023TIP3    H248265   5.128   6.082   9.241 -0.3551 -0.6365 -0.9102
 8024TIP3   OH248266   4.297   0.667   8.720  0.1331 -0.4198 -0.2848
 8024TIP3    H148267   4.282   0.582   8.679 -1.9941 -0.6237  0.7821
 8024TIP3    H248268   4.372   0.652   8.779 -0.3251 -1.6090  0.0197
 8025TIP3   OH248269   2.663   5.285  10.209 -0.0906 -0.1387 -0.3705
 8025TIP3    H148270   2.582   5.253  10.167 -0.8975 -0.3381  1.2456
 8025TIP3    H248271   2.725   5.295  10.137 -1.3676 -0.5764 -1.5830
 8026TIP3   OH248272   5.989   3.355  10.778 -0.2051 -0.2980 -0.0372
 8026TIP3    H148273   5.955   3.444  10.776  0.3124 -0.1114 -1.0339
 8026TIP3    H248274   6.005   3.337  10.871  1.6512  1.4125  0.0262
 8027TIP3   OH248275   4.739   4.367   8.537  0.4094 -0.6786 -0.5908
 8027TIP3    H148276   4.744   4.437   8.602  0.1592 -2.0685  1.0121
 8027TIP3    H248277   4.804   4.391   8.471  0.7079  0.7830  0.1853
 8028TIP3   OH248278   0.873   6.201  11.075  0.2360  0.4429 -0.6275
 8028TIP3    H148279   0.879   6.105  11.075 -2.0113  0.2450  0.4806
 8028TIP3    H248280   0.953   6.229  11.120  1.5791 -0.8021 -2.0998
 8029TIP3   OH248281   5.238   2.669  11.302  0.2906  0.2720  0.4787
 8029TIP3    H148282   5.248   2.575  11.315 -0.1374  0.1967  0.2920
 8029TIP3    H248283   5.243   2.706  11.391  1.4442  0.1815  0.4661
 8030TIP3   OH248284   3.984   1.437   8.672 -0.0380  0.8014 -0.2577
 8030TIP3    H148285   4.053   1.503   8.670  0.6439  0.1694  1.0703
 8030TIP3    H248286   4.026   1.356   8.642 -0.5331  0.6770 -0.6386
 8031TIP3   OH248287   4.850   1.811  10.423  0.2943 -0.1651 -0.3859
 8031TIP3    H148288   4.799   1.890  10.438  0.3649 -0.0232 -0.8657
 8031TIP3    H248289   4.877   1.817  10.331  0.3134 -0.7381 -0.4201
 8032TIP3   OH248290   4.853   0.394  11.394  0.2446  0.1405 -0.5955
 8032TIP3    H148291   4.839   0.478  11.350 -0.9117 -0.3290 -1.1664
 8032TIP3    H248292   4.776   0.383  11.451 -1.4261 -2.0310 -3.0191
 8033TIP3   OH248293   0.274   5.408  10.451  0.7099  0.3455 -0.0823
 8033TIP3    H148294   0.309   5.352  10.382  1.8620 -0.2840  0.9898
 8033TIP3    H248295   0.312   5.494  10.434 -0.2268  0.5850 -1.1065
 8034TIP3   OH248296   2.867   4.317  11.974  0.0117  0.6757  0.3797
 8034TIP3    H148297   2.871   4.394  12.031 -0.9859  0.8008  0.2940
 8034TIP3    H248298   2.870   4.243  12.035  1.0124  0.7694  0.4587
 8035TIP3   OH248299   2.926   3.611  10.167 -0.1765 -0.1556  0.2566
 8035TIP3    H148300   2.941   3.641  10.077  1.5630 -0.9724  0.2387
 8035TIP3    H248301   2.994   3.654  10.219  0.4441 -1.6249  0.7270
 8036TIP3   OH248302   6.515   1.973   9.109  0.0669 -0.7315  0.4204
 8036TIP3    H148303   6.511   2.063   9.141 -0.2773 -0.0596 -1.3848
 8036TIP3    H248304   6.424   1.945   9.105  0.2651 -2.0057  3.0809
 8037TIP3   OH248305   4.304   0.732   9.132 -0.1260  0.2910 -0.3111
 8037TIP3    H148306   4.297   0.640   9.159  0.1350 -0.1341 -1.6101
 8037TIP3    H248307   4.248   0.779   9.194  0.7910 -0.5486  1.2387
 8038TIP3   OH248308   6.221   1.417   9.621 -0.4629 -0.7435 -0.4537
 8038TIP3    H148309   6.241   1.442   9.711  0.0818  0.6129 -0.9181
 8038TIP3    H248310   6.143   1.468   9.599  0.6808  0.6854 -1.4279
 8039TIP3   OH248311   1.670   1.898  11.749 -0.1660  0.0007 -0.1423
 8039TIP3    H148312   1.716   1.890  11.833 -0.7002  0.1609  0.1691
 8039TIP3    H248313   1.582   1.927  11.773 -0.5611 -0.7139 -0.6960
 8040TIP3   OH248314   0.811   4.702   9.558 -0.2500  0.2296  0.5166
 8040TIP3    H148315   0.759   4.623   9.570 -0.1231  0.3484  1.9242
 8040TIP3    H248316   0.901   4.671   9.547 -0.0084  0.2098  2.3238
 8041TIP3   OH248317   5.527   2.674   8.801 -0.1340  0.7447  0.1048
 8041TIP3    H148318   5.474   2.657   8.723 -1.2629 -1.1262  1.2098
 8041TIP3    H248319   5.588   2.743   8.774  0.0972 -0.4122 -2.6884
 8042TIP3   OH248320   0.090   6.121  10.353  0.5962 -0.3902 -0.1370
 8042TIP3    H148321   0.131   6.121  10.266  1.6878 -1.9414  0.3524
 8042TIP3    H248322   0.156   6.158  10.411 -0.7843  2.4310 -0.1658
 8043TIP3   OH248323   1.397   0.058  10.404  0.2558 -0.0439  0.1807
 8043TIP3    H148324   1.393   0.025  10.314 -0.7908  0.6706 -0.0489
 8043TIP3    H248325   1.473   0.013  10.442 -0.3619 -1.7522 -0.4930
 8044TIP3   OH248326   6.038   5.110  10.789  0.2335 -0.1833  0.5002
 8044TIP3    H148327   6.003   5.044  10.848  0.3600  0.4147  1.2654
 8044TIP3    H248328   5.977   5.111  10.715 -1.5047  0.9327  1.8647
 8045TIP3   OH248329   2.306   6.469   9.025  0.0064 -0.0897  0.4989
 8045TIP3    H148330   2.298   6.492   8.933  0.5283 -0.2732  0.4012
 8045TIP3    H248331   2.391   6.425   9.031  0.7705  1.4401  1.3675
 8046TIP3   OH248332   3.011   1.295   9.226 -0.1592 -0.0709 -0.1484
 8046TIP3    H148333   3.037   1.308   9.317 -0.7179 -0.6840  0.1077
 8046TIP3    H248334   3.076   1.344   9.175  0.6067 -0.3573  0.5327
 8047TIP3   OH248335   0.487   3.586   9.326  0.4012 -0.0097  1.1414
 8047TIP3    H148336   0.531   3.628   9.399  1.5962  0.9030 -0.0644
 8047TIP3    H248337   0.480   3.655   9.259 -0.7133 -0.8014  0.3975
 8048TIP3   OH248338   0.477   1.129   8.632 -0.0492 -0.2377  0.2023
 8048TIP3    H148339   0.428   1.153   8.711  0.2126 -1.4636  0.7707
 8048TIP3    H248340   0.506   1.039   8.649 -0.3341 -0.6764 -1.4710
 8049TIP3   OH248341   3.360   2.418   9.916 -0.2487  0.1600 -0.2061
 8049TIP3    H148342   3.348   2.482   9.986  1.1890  0.5361 -0.2650
 8049TIP3    H248343   3.356   2.469   9.835 -0.4772 -0.0524 -0.3340
 8050TIP3   OH248344   3.093   0.080   9.385  0.1907 -0.5566 -0.1291
 8050TIP3    H148345   3.176   0.039   9.361  0.3361  0.6648 -1.8432
 8050TIP3    H248346   3.030   0.045   9.323 -0.3052 -0.4357  0.2979
 8051TIP3   OH248347   1.821   1.735  11.967 -0.2454  0.4492 -0.5544
 8051TIP3    H148348   1.859   1.684  12.039  0.7955 -0.8770 -1.9711
 8051TIP3    H248349   1.859   1.823  11.978  0.0513  0.2135  0.3978
 8052TIP3   OH248350   1.890   3.566  11.087 -0.3607 -0.0975 -0.3908
 8052TIP3    H148351   1.810   3.612  11.063 -0.4465  0.0951  0.2633
 8052TIP3    H248352   1.928   3.618  11.158  0.2541 -0.2817 -0.5807
 8053TIP3   OH248353   3.592   0.213  11.617  0.1440  0.2156 -0.1561
 8053TIP3    H148354   3.618   0.294  11.661 -1.6942  0.9555 -0.3492
 8053TIP3    H248355   3.575   0.151  11.689 -0.2563  0.5935  0.0785
 8054TIP3   OH248356   3.924   1.654  11.563  0.5031 -0.3272  0.6931
 8054TIP3    H148357   3.938   1.734  11.614  0.6590 -0.0095  0.1630
 8054TIP3    H248358   4.010   1.612  11.560  0.4383 -0.4742  0.9075
 8055TIP3   OH248359   4.102   4.614  10.878  0.1023  0.3711  0.6585
 8055TIP3    H148360   4.066   4.702  10.890 -0.3882  0.3665 -0.6161
 8055TIP3    H248361   4.133   4.588  10.965 -2.9662  0.3882  1.8766
 8056TIP3   OH248362   6.152   5.462   8.651  0.6319  0.2192 -0.2346
 8056TIP3    H148363   6.063   5.456   8.617  0.9016 -1.0614 -0.7920
 8056TIP3    H248364   6.179   5.371   8.662  1.8722  0.5922 -0.0792
 8057TIP3   OH248365   5.836   3.041  10.081  0.2824 -0.0429  0.0631
 8057TIP3    H148366   5.891   2.976  10.124  0.6202  0.1706 -0.0408
 8057TIP3    H248367   5.806   3.098  10.151  0.7529  0.2466  0.0351
 8058TIP3   OH248368   6.512   5.560   9.842  0.0227  0.3292 -0.0577
 8058TIP3    H148369   6.455   5.488   9.869  0.3745  0.5156  1.2789
 8058TIP3    H248370   6.601   5.524   9.848  0.1064  0.2876 -1.3276
 8059TIP3   OH248371   5.537   3.495   8.741 -0.4723 -0.2951 -0.3305
 8059TIP3    H148372   5.464   3.557   8.743 -1.1010 -1.0298 -0.2677
 8059TIP3    H248373   5.611   3.546   8.707 -0.4320  1.0623  1.6393
 8060TIP3   OH248374   2.155   0.367   8.659 -0.4713 -0.0731 -0.4103
 8060TIP3    H148375   2.103   0.393   8.583 -0.1655 -0.0173 -0.6008
 8060TIP3    H248376   2.091   0.353   8.728 -0.6862  0.6320 -0.4626
 8061TIP3   OH248377   1.376   2.678  11.285 -1.0278 -0.5614 -0.2936
 8061TIP3    H148378   1.361   2.595  11.240 -1.2673 -1.4975  1.4279
 8061TIP3    H248379   1.294   2.695  11.332 -0.7537  0.3084 -0.1111
 8062TIP3   OH248380   1.732   2.832   9.013  0.0329  0.1387 -0.1840
 8062TIP3    H148381   1.661   2.812   8.952 -0.2940 -3.1871  1.0982
 8062TIP3    H248382   1.808   2.845   8.957 -1.4035  4.0074 -1.6214
 8063TIP3   OH248383   2.657   0.527  11.326  0.6495  0.1667  0.1497
 8063TIP3    H148384   2.663   0.615  11.289 -1.1980  0.6361  0.8532
 8063TIP3    H248385   2.741   0.514  11.370  0.9743  1.5492 -0.0072
 8064TIP3   OH248386   2.339   6.474  10.549  0.4145 -0.0003  0.5061
 8064TIP3    H148387   2.293   6.432  10.476 -1.4108  0.8209  1.1243
 8064TIP3    H248388   2.359   6.401  10.608 -4.8312 -0.1083  2.7364
 8065TIP3   OH248389   0.689   2.814   8.509  0.5631 -0.0633  1.1818
 8065TIP3    H148390   0.661   2.869   8.436  1.1422  1.2361  1.9125
 8065TIP3    H248391   0.774   2.851   8.536  1.0328 -1.3936  1.6162
 8066TIP3   OH248392   4.959   1.946  11.684  0.6839  0.0045 -0.0820
 8066TIP3    H148393   4.988   2.036  11.697 -0.9890  0.6985 -0.9076
 8066TIP3    H248394   5.014   1.894  11.744  1.4143  1.5899  0.6806
 8067TIP3   OH248395   5.649   4.605  10.395  0.1546  0.6608  0.3408
 8067TIP3    H148396   5.671   4.662  10.322  0.1554 -2.7386 -2.6319
 8067TIP3    H248397   5.729   4.598  10.447  1.0979  0.9079 -1.0502
 8068TIP3   OH248398   4.326   0.454   9.758  0.3404  0.0872 -0.3937
 8068TIP3    H148399   4.366   0.471   9.843  0.9576 -0.3593 -0.5838
 8068TIP3    H248400   4.247   0.508   9.757  1.2549  1.4803 -0.2463
 8069TIP3   OH248401   6.601   5.944  10.474  0.2603  0.0102  0.4867
 8069TIP3    H148402   6.650   6.022  10.447 -2.2681  1.2482 -0.9395
 8069TIP3    H248403   6.590   5.894  10.394 -0.9103 -0.1226  0.7134
 8070TIP3   OH248404   0.369   0.852  11.947  0.8759  0.4940 -0.2815
 8070TIP3    H148405   0.446   0.815  11.903  1.4919  0.3767  0.8373
 8070TIP3    H248406   0.363   0.802  12.029  0.1240  1.0907  0.0329
 8071TIP3   OH248407   1.377   2.289  10.106 -0.8055 -0.2728 -0.2028
 8071TIP3    H148408   1.407   2.348  10.175 -0.6190  0.4999 -0.9281
 8071TIP3    H248409   1.452   2.233  10.087 -1.6250 -2.2722  1.9979
 8072TIP3   OH248410   1.119   1.178  10.415 -0.0282 -0.1803 -0.3918
 8072TIP3    H148411   1.185   1.207  10.477  0.7109 -1.3904 -0.5712
 8072TIP3    H248412   1.142   1.221  10.333 -0.0795  0.1998 -0.2073
 8073TIP3   OH248413   0.194   4.186  11.667 -0.2246  0.0098 -0.3673
 8073TIP3    H148414   0.111   4.204  11.624  0.9900  0.9079 -2.4703
 8073TIP3    H248415   0.212   4.094  11.648 -0.5390 -0.0860 -0.2162
 8074TIP3   OH248416   5.691   5.883  11.646 -0.0291 -0.2257  0.1071
 8074TIP3    H148417   5.768   5.855  11.697 -0.6928 -0.0404  1.2316
 8074TIP3    H248418   5.708   5.975  11.626 -1.4788  0.9069  3.3966
 8075TIP3   OH248419   2.798   4.446   9.212  0.0558  0.0439 -0.3700
 8075TIP3    H148420   2.831   4.515   9.154 -0.3961  0.3036 -0.3278
 8075TIP3    H248421   2.719   4.483   9.251 -0.5247 -0.6987 -0.7872
 8076TIP3   OH248422   1.980   3.808  11.265  0.2934 -0.7813 -0.3292
 8076TIP3    H148423   1.888   3.831  11.258  0.3139 -0.6831 -0.2844
 8076TIP3    H248424   2.007   3.844  11.350  0.9822  1.3682 -1.3733
 8077TIP3   OH248425   1.875   2.902  10.613  0.3708 -0.0937 -0.2317
 8077TIP3    H148426   1.867   2.806  10.609  1.0556 -0.3608  2.7736
 8077TIP3    H248427   1.965   2.920  10.585  1.2141 -0.6681  1.9243
 8078TIP3   OH248428   2.798   5.924   9.798 -0.5029 -0.0481 -0.4336
 8078TIP3    H148429   2.789   5.930   9.703  1.3689 -1.5906 -0.7737
 8078TIP3    H248430   2.893   5.931   9.813 -0.7742  0.2627  1.3392
 8079TIP3   OH248431   2.954   3.825   9.281  0.2359  0.2571 -0.0830
 8079TIP3    H148432   2.954   3.731   9.302  0.9210  0.5290  1.2609
 8079TIP3    H248433   3.047   3.846   9.272  0.2110  1.1816  1.5280
 8080TIP3   OH248434   1.884   3.157  11.080 -0.2259 -0.0545  0.2963
 8080TIP3    H148435   1.890   3.142  10.986 -0.5855  2.2956 -0.1722
 8080TIP3    H248436   1.811   3.218  11.090  0.4314  0.5217  1.9905
 8081TIP3   OH248437   1.487   2.639  10.673  0.0148  0.1791 -0.8521
 8081TIP3    H148438   1.545   2.641  10.749 -1.1801  0.8116  0.0745
 8081TIP3    H248439   1.526   2.700  10.611  0.4703  0.4069 -0.3478
 8082TIP3   OH248440   6.144   2.866  10.717 -0.2993  0.3497 -0.3094
 8082TIP3    H148441   6.094   2.895  10.641  2.7355  0.3129 -2.4924
 8082TIP3    H248442   6.196   2.942  10.743  0.2681 -0.2469  0.3606
 8083TIP3   OH248443   3.000   0.601  11.165 -0.3829  0.1714  0.0313
 8083TIP3    H148444   3.088   0.622  11.134  0.2145 -0.7773  1.0268
 8083TIP3    H248445   2.974   0.526  11.112 -0.2174 -0.1196  0.3587
 8084TIP3   OH248446   2.167   0.965  10.883  0.3053 -0.4254  0.5780
 8084TIP3    H148447   2.188   1.009  10.965 -1.5966 -1.1300  1.4982
 8084TIP3    H248448   2.249   0.968  10.833  0.8169  2.3341  1.3870
 8085TIP3   OH248449   1.388   1.059   9.707  0.3975 -0.6054  0.2930
 8085TIP3    H148450   1.459   0.994   9.707  0.6146 -0.4014  2.0851
 8085TIP3    H248451   1.429   1.139   9.675 -0.1138 -1.4880 -3.0181
 8086TIP3   OH248452   6.648   5.111   8.507 -0.0208 -0.4820  0.7016
 8086TIP3    H148453   6.618   5.026   8.538  0.6860 -0.9501  0.1433
 8086TIP3    H248454   6.570   5.153   8.470  0.1097 -2.0483 -1.5612
 8087TIP3   OH248455   0.785   0.975   8.679  0.0180  0.0365  1.0461
 8087TIP3    H148456   0.692   0.957   8.666  0.1493  0.7010 -1.2822
 8087TIP3    H248457   0.792   0.998   8.771 -2.0486 -0.4061  1.3756
 8088TIP3   OH248458   0.076   0.126  10.444 -0.4204  0.0084 -0.1711
 8088TIP3    H148459  -0.020   0.126  10.440 -0.5027 -1.6004  0.7997
 8088TIP3    H248460   0.101   0.037  10.419  0.9928  1.0045 -2.6422
 8089TIP3   OH248461   1.049   4.670   9.825  0.2110 -0.3016 -0.1729
 8089TIP3    H148462   1.051   4.677   9.729  0.9416  3.7243 -0.0246
 8089TIP3    H248463   0.956   4.664   9.847 -0.1258  1.0289 -1.1036
 8090TIP3   OH248464   1.905   3.736   9.502 -0.1990 -0.4357  0.0194
 8090TIP3    H148465   1.946   3.750   9.588  2.0266 -1.1169 -0.8567
 8090TIP3    H248466   1.925   3.645   9.481 -0.6582 -0.2561 -1.2500
 8091TIP3   OH248467   0.881   3.769   9.983  0.5018 -0.2617 -0.2110
 8091TIP3    H148468   0.825   3.773  10.061  0.2435  0.1853 -0.4116
 8091TIP3    H248469   0.959   3.818  10.007  0.5523 -0.3791 -0.1337
 8092TIP3   OH248470   6.559   6.289   9.390 -0.3396 -0.1080  0.3553
 8092TIP3    H148471   6.519   6.286   9.303  2.1884 -1.5066 -0.8399
 8092TIP3    H248472   6.639   6.340   9.379  1.0180 -1.8920  1.3633
 8093TIP3   OH248473   5.281   0.012  10.596 -0.0879 -0.0648 -0.0303
 8093TIP3    H148474   5.225  -0.060  10.627 -1.1315  0.4819 -0.6019
 8093TIP3    H248475   5.225   0.062  10.537  1.1391  0.2636 -0.9630
 8094TIP3   OH248476   3.122   1.122  11.409  0.4360  0.1686  0.3387
 8094TIP3    H148477   3.154   1.207  11.439  0.9479 -0.0645  0.4610
 8094TIP3    H248478   3.046   1.143  11.355 -1.2028  0.5304  2.6411
 8095TIP3   OH248479   2.618   2.627   9.289  0.4082 -0.3514 -0.2449
 8095TIP3    H148480   2.663   2.710   9.304  0.1576 -0.4157  0.9013
 8095TIP3    H248481   2.688   2.563   9.278  0.6120  0.0494 -1.5202
 8096TIP3   OH248482   5.982   2.089   8.744  0.0293 -0.8069  0.2576
 8096TIP3    H148483   6.077   2.088   8.750  0.0101  0.7725  1.4644
 8096TIP3    H248484   5.952   2.026   8.810  0.2184 -1.1399  0.0294
 8097TIP3   OH248485   2.691   2.015  11.158  1.0462 -0.3814 -0.5398
 8097TIP3    H148486   2.634   2.080  11.116  0.6894 -1.4264 -1.7442
 8097TIP3    H248487   2.710   2.052  11.244 -1.0179  0.2536 -0.2920
 8098TIP3   OH248488   4.953   4.577   8.597 -0.6376  0.7798  0.3457
 8098TIP3    H148489   4.946   4.613   8.509 -1.2398  0.6893  0.3576
 8098TIP3    H248490   4.988   4.649   8.650 -0.8860  1.0340  0.1650
 8099TIP3   OH248491   3.688   5.667   9.999  0.2984  0.0393 -0.5438
 8099TIP3    H148492   3.662   5.575   9.992  1.3738 -0.2722 -0.6042
 8099TIP3    H248493   3.682   5.687  10.093  1.1823 -0.4427 -0.3755
 8100TIP3   OH248494   6.092   2.818   9.170 -0.6285  0.0310 -0.4467
 8100TIP3    H148495   6.043   2.816   9.252 -3.0502  0.1752 -1.8078
 8100TIP3    H248496   6.112   2.911   9.157 -0.4161  0.0315 -0.1326
 8101TIP3   OH248497   5.081   0.151  10.441 -0.5612 -0.3074 -0.1764
 8101TIP3    H148498   5.043   0.220  10.387  0.2576  1.1696  1.0685
 8101TIP3    H248499   5.043   0.070  10.406  0.7074  0.4252 -3.6549
 8102TIP3   OH248500   0.528   2.985   9.475  0.1124 -0.1256 -0.2356
 8102TIP3    H148501   0.608   3.036   9.464 -0.6853  0.9217 -1.5238
 8102TIP3    H248502   0.557   2.902   9.512  1.5669  0.8819  0.9967
 8103TIP3   OH248503   2.628   4.960   9.745  0.3010  0.2904 -0.3231
 8103TIP3    H148504   2.593   4.904   9.814 -1.4271  0.8364 -0.6912
 8103TIP3    H248505   2.719   4.933   9.735 -0.3717 -2.2487 -0.2890
 8104TIP3   OH248506   3.703   3.766   9.928 -0.3487 -0.2682  0.8648
 8104TIP3    H148507   3.709   3.861   9.926 -1.2543 -0.2123  0.4002
 8104TIP3    H248508   3.692   3.744  10.020  1.3107 -0.0385  1.1542
 8105TIP3   OH248509   6.325   6.518   9.390  0.3596 -0.1929 -0.1173
 8105TIP3    H148510   6.375   6.556   9.462  0.0452  0.3516 -0.1834
 8105TIP3    H248511   6.272   6.590   9.356 -2.9352 -1.3703  1.9958
 8106TIP3   OH248512   3.328   6.511   9.869 -0.6411  0.5371 -0.2697
 8106TIP3    H148513   3.389   6.484   9.800  0.2310  1.0237  0.2911
 8106TIP3    H248514   3.269   6.573   9.826 -0.2158  0.7007 -0.6217
 8107TIP3   OH248515   6.225   2.200  10.433 -0.2738 -0.6291 -0.3759
 8107TIP3    H148516   6.261   2.178  10.519  2.4873  0.9964 -0.9928
 8107TIP3    H248517   6.130   2.196  10.445  0.0341 -1.6564  2.3997
 8108TIP3   OH248518   3.962   2.769   8.813 -0.0162 -0.0888  0.9176
 8108TIP3    H148519   3.957   2.827   8.889  0.0390  0.8009  0.2625
 8108TIP3    H248520   4.004   2.823   8.746  0.3636 -1.0155  0.3992
 8109TIP3   OH248521   3.296   5.201   9.330 -0.3853  0.4418 -0.1639
 8109TIP3    H148522   3.330   5.184   9.242 -0.8762 -0.7752 -0.1379
 8109TIP3    H248523   3.315   5.122   9.379  0.5649  1.3872  1.0715
 8110TIP3   OH248524   6.363   3.023   9.057 -0.5501  0.3740 -0.0088
 8110TIP3    H148525   6.278   3.054   9.086 -0.2567  0.5738  0.6582
 8110TIP3    H248526   6.343   2.952   8.996 -1.1908 -0.4717  1.1440
 8111TIP3   OH248527   2.257   0.580   9.136  1.0508 -0.4346  0.3516
 8111TIP3    H148528   2.211   0.630   9.202  0.8804  0.1588 -0.2077
 8111TIP3    H248529   2.316   0.643   9.095  1.3647 -0.8640  0.1406
 8112TIP3   OH248530   0.886   0.036  10.366  0.9074 -0.0509 -0.0394
 8112TIP3    H148531   0.827   0.058  10.294  0.2925  0.1151  0.5129
 8112TIP3    H248532   0.972   0.028  10.324  0.4020 -0.9364 -0.9480
 8113TIP3   OH248533   6.360   3.328   8.260 -0.0878 -0.1890 -0.0681
 8113TIP3    H148534   6.404   3.255   8.216  0.9858 -0.1603  0.9088
 8113TIP3    H248535   6.428   3.395   8.269 -1.1622  1.1375 -1.3355
 8114TIP3   OH248536   2.395   1.237   9.274  0.3186  0.0743 -0.1683
 8114TIP3    H148537   2.385   1.153   9.228  1.6229 -0.0973 -0.1729
 8114TIP3    H248538   2.488   1.242   9.296 -0.2102  0.1710  2.4226
 8115TIP3   OH248539   5.854   2.303  10.982 -0.2161  0.3326  0.3452
 8115TIP3    H148540   5.935   2.345  11.010 -0.3744  0.0016  1.3459
 8115TIP3    H248541   5.845   2.227  11.040 -0.7586 -0.1690 -0.3744
 8116TIP3   OH248542   5.154   2.659   9.629  0.4105  0.4820 -0.4901
 8116TIP3    H148543   5.072   2.699   9.599  1.1055  2.7605  0.4163
 8116TIP3    H248544   5.211   2.661   9.552 -0.3544 -1.1871 -1.1471
 8117TIP3   OH248545   6.348   6.334  11.356  0.2741  0.5120  0.3677
 8117TIP3    H148546   6.264   6.321  11.312  1.1898 -0.6598 -1.1393
 8117TIP3    H248547   6.366   6.251  11.400  0.2482  1.0596  1.4536
 8118TIP3   OH248548   1.723   5.679   9.087 -0.4840  0.2788 -0.0800
 8118TIP3    H148549   1.804   5.691   9.037 -0.9354  0.8676 -0.6784
 8118TIP3    H248550   1.657   5.658   9.020 -0.3715 -2.6729  0.5852
 8119TIP3   OH248551   3.007   0.119  10.376  0.2396  0.0566 -0.3606
 8119TIP3    H148552   2.944   0.048  10.386 -0.6244  0.7591 -0.7148
 8119TIP3    H248553   3.092   0.075  10.371 -0.2578 -0.9299 -0.3026
 8120TIP3   OH248554   6.166   1.077   8.909  0.0155 -0.1750 -0.0371
 8120TIP3    H148555   6.154   1.013   8.840  0.1532 -1.2176  0.8725
 8120TIP3    H248556   6.079   1.086   8.949  0.2296 -0.7013  0.5791
 8121TIP3   OH248557   4.505   2.050   9.815 -0.2729 -1.1944  0.1921
 8121TIP3    H148558   4.412   2.059   9.795  0.1426  0.6869 -1.1067
 8121TIP3    H248559   4.550   2.081   9.736  1.4521 -0.2357  1.4907
 8122TIP3   OH248560   1.604   2.411  19.441 -0.4657 -0.8963 -0.0820
 8122TIP3    H148561   1.668   2.344  19.465 -0.2974 -0.2762  1.2880
 8122TIP3    H248562   1.657   2.487  19.417 -0.6713 -0.7702 -0.1375
 8123TIP3   OH248563   0.652   6.269   9.432 -0.3505 -0.4038 -0.4348
 8123TIP3    H148564   0.572   6.217   9.441 -0.7060 -0.0697 -1.5095
 8123TIP3    H248565   0.700   6.253   9.513 -1.9151  0.1096  0.6259
 8124TIP3   OH248566   6.265   1.074  11.085  0.2790  0.3096  0.4391
 8124TIP3    H148567   6.356   1.049  11.068  1.2013  1.7081  2.7836
 8124TIP3    H248568   6.216   0.991  11.084  1.7409 -0.5794  0.0289
 8125TIP3   OH248569   1.038   3.369  10.719 -0.1379 -0.9573  0.0671
 8125TIP3    H148570   1.100   3.417  10.664 -1.2338 -1.1946 -1.4320
 8125TIP3    H248571   1.045   3.278  10.690 -1.4706 -0.9177 -0.4202
 8126TIP3   OH248572   4.095   2.273  10.568 -0.0621  0.3259  0.0819
 8126TIP3    H148573   4.165   2.209  10.561 -0.3932 -0.0161 -0.1830
 8126TIP3    H248574   4.029   2.243  10.505  0.3288  1.6376 -0.9980
 8127TIP3   OH248575   1.796   3.650  10.340  0.1059 -0.0659  0.2362
 8127TIP3    H148576   1.809   3.575  10.282 -2.6846  1.3844 -2.5760
 8127TIP3    H248577   1.871   3.707  10.321 -0.4696  0.1325 -1.6355
 8128TIP3   OH248578   4.013   0.050  11.206 -0.1523  0.4085 -0.3667
 8128TIP3    H148579   4.094   0.012  11.171 -0.8890 -0.0606 -1.6135
 8128TIP3    H248580   3.949  -0.021  11.201 -0.6610  0.7813  0.6025
 8129TIP3   OH248581   0.414   3.871   8.332  0.1860  0.2530 -0.3078
 8129TIP3    H148582   0.476   3.803   8.355 -1.6890 -1.6202 -0.4883
 8129TIP3    H248583   0.368   3.891   8.414  0.4984  1.1028 -0.3240
 8130TIP3   OH248584   6.172   4.759   9.936  0.1694 -0.1521 -0.0708
 8130TIP3    H148585   6.126   4.771   9.853  1.9135 -0.5713 -1.1400
 8130TIP3    H248586   6.120   4.693   9.982 -1.8373  1.3966  0.0052
 8131TIP3   OH248587   6.642   2.348   9.763  0.2404 -0.1167  0.4410
 8131TIP3    H148588   6.608   2.260   9.780  0.0808  0.3759  3.2306
 8131TIP3    H248589   6.568   2.396   9.725  0.7685 -1.4824 -2.6292
 8132TIP3   OH248590   5.709   2.551  10.549 -0.1998  0.2261 -0.1625
 8132TIP3    H148591   5.625   2.594  10.564  1.4366  3.2815  1.1672
 8132TIP3    H248592   5.742   2.532  10.638  0.1192 -1.8894 -0.6767
 8133TIP3   OH248593   3.739   4.467   9.844  0.4007  0.2750  0.0163
 8133TIP3    H148594   3.814   4.420   9.880  0.0679 -0.8022 -0.6667
 8133TIP3    H248595   3.773   4.555   9.824  0.9558  0.4459  1.5655
 8134TIP3   OH248596   0.750   3.841  18.375 -0.3250  0.3803 -0.0518
 8134TIP3    H148597   0.727   3.793  18.454  1.8588  0.3241  0.6168
 8134TIP3    H248598   0.666   3.872  18.341 -1.6026 -2.0005  0.6819
 8135TIP3   OH248599   6.575   4.317  10.995  0.0891 -0.8665 -0.1926
 8135TIP3    H148600   6.527   4.278  11.068  0.0840 -1.3658 -0.4598
 8135TIP3    H248601   6.667   4.306  11.019  0.0965 -1.4737 -0.4861
 8136TIP3   OH248602   2.655   0.680   9.298  0.2576  0.3451 -0.9412
 8136TIP3    H148603   2.599   0.715   9.228 -2.1357  1.0979  1.2102
 8136TIP3    H248604   2.618   0.595   9.319  0.4991  0.4328 -0.1200
 8137TIP3   OH248605   2.740   2.636  11.196 -0.0251  0.1651  0.1494
 8137TIP3    H148606   2.798   2.685  11.138  0.4132 -1.2962 -0.6804
 8137TIP3    H248607   2.781   2.642  11.282 -0.8304  2.6001  0.4649
 8138TIP3   OH248608   2.163   4.531  11.698  0.2862  0.3473 -0.1355
 8138TIP3    H148609   2.235   4.586  11.727  0.0065  0.0928  1.0963
 8138TIP3    H248610   2.097   4.592  11.665  0.4798  0.6697  0.0733
 8139TIP3   OH248611   0.694   5.539  11.767 -0.3697  0.4332 -0.2710
 8139TIP3    H148612   0.657   5.606  11.824  1.1598  1.1664 -0.0965
 8139TIP3    H248613   0.657   5.456  11.800  0.4105  0.8356  1.7637
 8140TIP3   OH248614   6.361   1.451  11.937  0.8355  0.0964  0.2071
 8140TIP3    H148615   6.285   1.502  11.965  1.6714  0.3995  2.0504
 8140TIP3    H248616   6.380   1.393  12.010  1.4424 -1.0942 -0.8539
 8141TIP3   OH248617   2.427   0.705  10.077 -0.1623  0.0235  0.1082
 8141TIP3    H148618   2.451   0.614  10.095 -0.5438 -0.2170 -0.5584
 8141TIP3    H248619   2.510   0.749  10.058 -0.2324 -0.9910 -3.0385
 8142TIP3   OH248620   5.758   2.198   8.975 -0.2213  0.3350 -0.2653
 8142TIP3    H148621   5.708   2.248   9.040 -2.3917 -1.4314 -0.4461
 8142TIP3    H248622   5.824   2.151   9.027 -1.0106  0.0329  0.4973
 8143TIP3   OH248623   6.536   5.393   9.429  0.0166  0.3807  0.2042
 8143TIP3    H148624   6.553   5.299   9.428 -0.6098  0.2225  2.1685
 8143TIP3    H248625   6.441   5.401   9.432 -0.0464  1.1530 -1.9010
 8144TIP3   OH248626   6.133   6.348  11.100  0.0406 -0.3166  0.0179
 8144TIP3    H148627   6.082   6.303  11.033  0.7652 -0.0130 -0.7551
 8144TIP3    H248628   6.171   6.424  11.055 -1.1836  1.1356  1.2903
 8145TIP3   OH248629   2.566   3.152  11.232 -0.3047  0.7306  0.6854
 8145TIP3    H148630   2.567   3.150  11.136  0.4594  0.9807  0.6856
 8145TIP3    H248631   2.484   3.108  11.256 -0.3238  0.3403 -0.0740
 8146TIP3   OH248632   2.599   4.055   9.795  0.0060  0.0535  0.3799
 8146TIP3    H148633   2.693   4.037   9.801 -0.2781 -1.4551  0.6180
 8146TIP3    H248634   2.587   4.134   9.848  1.3112  0.9980 -0.6471
 8147TIP3   OH248635   1.331   0.797  11.948 -0.0667 -0.4524 -0.1527
 8147TIP3    H148636   1.310   0.704  11.948  1.4769 -0.8316  0.1085
 8147TIP3    H248637   1.401   0.806  12.013 -0.6158  1.0032  0.2849
 8148TIP3   OH248638   5.553   3.241   8.886 -0.4866 -0.0642 -0.3630
 8148TIP3    H148639   5.587   3.301   8.819 -0.1832 -0.9091 -0.9799
 8148TIP3    H248640   5.499   3.296   8.942  1.6680  1.3043  0.5034
 8149TIP3   OH248641   0.718   3.243   9.100  0.0187  0.4680 -0.3010
 8149TIP3    H148642   0.692   3.303   9.170 -0.5806  0.6051 -0.6232
 8149TIP3    H248643   0.653   3.173   9.104  2.0424 -1.4236  1.5642
 8150TIP3   OH248644   1.134   5.772  10.069 -0.5835  0.3475  0.4049
 8150TIP3    H148645   1.164   5.693  10.025 -0.2570  1.9529 -2.5755
 8150TIP3    H248646   1.052   5.748  10.112 -1.3241 -1.2456 -1.7790
 8151TIP3   OH248647   3.581   4.620   8.981  0.4707  0.3653  0.3492
 8151TIP3    H148648   3.534   4.599   8.900 -2.1826 -1.7380  2.2520
 8151TIP3    H248649   3.548   4.706   9.006  0.8885  0.7778 -0.4808
 8152TIP3   OH248650   4.513   5.069   9.396  0.5511  1.0874 -0.3451
 8152TIP3    H148651   4.583   5.037   9.452  0.8229  1.0088 -0.7278
 8152TIP3    H248652   4.503   5.002   9.328 -0.2225  0.8568 -0.0226
 8153TIP3   OH248653   6.361   1.965  11.404  0.9084  0.3416 -0.6569
 8153TIP3    H148654   6.441   1.972  11.352  0.6142  0.2688 -1.1316
 8153TIP3    H248655   6.366   2.037  11.467  1.6753 -0.0932 -0.2163
 8154TIP3   OH248656   3.872   0.454  10.007  0.1201  0.8941  0.4223
 8154TIP3    H148657   3.847   0.362   9.999  1.7734  0.3669  0.9991
 8154TIP3    H248658   3.888   0.483   9.918  1.2639  0.1147  0.3595
 8155TIP3   OH248659   1.710   3.249  11.448  0.0845  0.2676 -0.4035
 8155TIP3    H148660   1.638   3.260  11.385  0.0024  1.0609 -0.1851
 8155TIP3    H248661   1.780   3.304  11.413  0.1762  0.4046 -0.0063
 8156TIP3   OH248662   3.119   2.522  11.220 -0.1681 -0.5568  0.7949
 8156TIP3    H148663   3.201   2.542  11.174 -0.2854 -0.7011  0.5242
 8156TIP3    H248664   3.080   2.450  11.170 -0.7942 -0.0400  0.5219
 8157TIP3   OH248665   5.486   0.124  10.024  0.3969 -0.1365  0.1069
 8157TIP3    H148666   5.555   0.182   9.992 -0.7104  0.8364 -0.6592
 8157TIP3    H248667   5.413   0.183  10.044 -1.2972 -1.2902 -2.0866
 8158TIP3   OH248668   5.977   3.344   8.546  0.2951  0.2905  0.0757
 8158TIP3    H148669   5.999   3.394   8.625  1.4355 -0.4607  0.2529
 8158TIP3    H248670   6.022   3.390   8.475  0.9973 -0.2364  0.1770
 8159TIP3   OH248671   2.306   0.238  11.018  0.0013  0.0099  0.1469
 8159TIP3    H148672   2.266   0.308  11.069 -1.3928 -0.8363  0.2569
 8159TIP3    H248673   2.284   0.158  11.066  1.5813 -0.5347  0.0388
 8160TIP3   OH248674   3.421   2.677  10.586  0.4073  0.3616  0.3085
 8160TIP3    H148675   3.355   2.660  10.519  0.4782 -0.7153  0.4897
 8160TIP3    H248676   3.380   2.650  10.668  1.6840 -2.2610  0.2212
 8161TIP3   OH248677   0.104   2.160  11.226  0.8282  0.4031  0.2169
 8161TIP3    H148678   0.197   2.158  11.207  0.8043 -3.2183 -0.1860
 8161TIP3    H248679   0.062   2.165  11.141  0.7418 -1.9664  0.0526
 8162TIP3   OH248680   3.678   2.294   8.970 -0.5812  0.1489  0.4008
 8162TIP3    H148681   3.655   2.273   8.880 -2.3072  0.3555  0.7721
 8162TIP3    H248682   3.736   2.370   8.963  0.0333 -0.3753 -0.5520
 8163TIP3   OH248683   3.703   5.410  11.141 -0.5738 -0.3646 -0.5398
 8163TIP3    H148684   3.757   5.331  11.148  1.2797  0.8741  0.1708
 8163TIP3    H248685   3.691   5.423  11.047  0.3838 -0.7045 -0.7202
 8164TIP3   OH248686   0.021   5.116   9.548  0.0191  0.1800 -0.0110
 8164TIP3    H148687  -0.033   5.043   9.518  0.2749  1.5244 -4.3687
 8164TIP3    H248688   0.111   5.087   9.535  0.1319  0.9781 -1.1041
 8165TIP3   OH248689   6.482   5.343  10.010  0.1641 -0.1226 -0.0345
 8165TIP3    H148690   6.446   5.268  10.056  0.5449 -0.1617  0.2046
 8165TIP3    H248691   6.509   5.403  10.079 -2.2864  1.2969 -0.2110
 8166TIP3   OH248692   2.444   3.728  11.144  0.2229  0.0114  0.5221
 8166TIP3    H148693   2.436   3.819  11.172 -2.0423 -0.8100  3.0040
 8166TIP3    H248694   2.428   3.729  11.050  1.2100  2.2402  0.3368
 8167TIP3   OH248695   1.797   6.512  11.376  0.1256 -0.4584 -0.3628
 8167TIP3    H148696   1.781   6.604  11.394  0.3999 -0.1887 -1.4306
 8167TIP3    H248697   1.859   6.484  11.444  2.4880  0.9575 -1.7762
 8168TIP3   OH248698   1.864   5.752  11.264  0.1712  0.4587  0.0242
 8168TIP3    H148699   1.860   5.807  11.342 -1.6516  1.3750 -0.6371
 8168TIP3    H248700   1.918   5.802  11.202  2.5781 -0.7950  1.0232
 8169TIP3   OH248701   2.767   0.710  10.479 -0.0925 -0.4106  0.2908
 8169TIP3    H148702   2.722   0.697  10.562 -0.1353 -0.7588  0.2152
 8169TIP3    H248703   2.708   0.672  10.413 -0.6620  1.0144 -0.0575
 8170TIP3   OH248704   1.338   2.258   8.241  0.0377  0.3671  0.4551
 8170TIP3    H148705   1.319   2.200   8.167  0.4863  2.0222 -1.0127
 8170TIP3    H248706   1.430   2.241   8.261  0.0042  0.1554  0.4355
 8171TIP3   OH248707   3.954   3.372  10.284 -0.2254 -0.0216  0.0392
 8171TIP3    H148708   3.932   3.437  10.217  1.6564  0.1952 -0.4217
 8171TIP3    H248709   4.003   3.421  10.350  0.7295 -0.8387 -0.0386
 8172TIP3   OH248710   1.531   3.118  11.210 -0.0337 -0.3671  0.4830
 8172TIP3    H148711   1.499   3.086  11.125 -0.6692  1.8931 -0.1830
 8172TIP3    H248712   1.624   3.094  11.210  0.0247 -0.2492 -0.9336
 8173TIP3   OH248713   1.827   3.589  11.576 -0.2628 -0.0360  0.2359
 8173TIP3    H148714   1.822   3.607  11.670  0.5437 -1.6873  0.6307
 8173TIP3    H248715   1.744   3.622  11.541 -0.9288 -0.1201  1.6548
 8174TIP3   OH248716   5.606   3.936   9.196  0.3673 -0.5010  0.3089
 8174TIP3    H148717   5.555   4.016   9.205  0.5158 -0.3477 -0.1870
 8174TIP3    H248718   5.551   3.868   9.235  0.7503  0.0205  1.8401
 8175TIP3   OH248719   3.307   0.208   8.910  0.2104  0.1363 -0.1349
 8175TIP3    H148720   3.345   0.125   8.940  1.8552  1.1924  0.8975
 8175TIP3    H248721   3.215   0.189   8.895  0.1418 -1.4452  1.9142
 8176TIP3   OH248722   2.877   3.392   9.008  0.1933  0.2689 -0.6935
 8176TIP3    H148723   2.794   3.408   9.053 -0.1464  0.9807 -1.5420
 8176TIP3    H248724   2.873   3.300   8.983  0.3361 -0.1082  0.5936
 8177TIP3   OH248725   2.955   2.385  12.085  0.1234 -0.0335 -0.1256
 8177TIP3    H148726   2.867   2.404  12.054 -0.2908 -0.9770  0.3964
 8177TIP3    H248727   3.004   2.359  12.007 -0.5876 -1.2837 -0.1857
 8178TIP3   OH248728   1.164   5.337  10.483  0.2702  0.1939 -0.3750
 8178TIP3    H148729   1.201   5.313  10.399  1.3697  1.9128 -0.4205
 8178TIP3    H248730   1.162   5.255  10.533  1.9718 -0.3840 -1.1949
 8179TIP3   OH248731   1.281   1.075   9.320 -0.7759  0.0243  0.1421
 8179TIP3    H148732   1.256   1.130   9.394  0.1733  0.2981  0.2743
 8179TIP3    H248733   1.291   1.135   9.247  0.4030  0.0708  0.3211
 8180TIP3   OH248734   3.074   3.513  11.128  0.1795 -0.3667 -0.4271
 8180TIP3    H148735   3.163   3.501  11.094 -0.2335  0.2904 -1.7921
 8180TIP3    H248736   3.087   3.538  11.220  1.5262  1.4552 -1.0402
 8181TIP3   OH248737   2.403   1.787   8.288 -0.0093  0.3207  0.2240
 8181TIP3    H148738   2.337   1.829   8.233  0.1904  1.1529  0.6037
 8181TIP3    H248739   2.379   1.694   8.288  0.1601  0.2506 -1.4971
 8182TIP3   OH248740   0.938   5.106   8.603 -0.2529  0.6308  0.0487
 8182TIP3    H148741   0.946   5.024   8.652 -2.7411 -0.0014 -0.4127
 8182TIP3    H248742   1.023   5.119   8.562  1.4138  0.3332  3.1304
 8183TIP3   OH248743   0.162   1.289   9.616  0.1555  0.5704  0.0726
 8183TIP3    H148744   0.078   1.261   9.650  0.0736  1.5605  0.7478
 8183TIP3    H248745   0.224   1.223   9.647 -0.7548 -2.0367 -3.2047
 8184TIP3   OH248746   1.974   1.516   9.337 -0.0856  0.5119 -0.3875
 8184TIP3    H148747   1.945   1.529   9.246 -1.3780  0.1288 -0.0495
 8184TIP3    H248748   1.919   1.575   9.388 -0.4337 -0.3991  0.3045
 8185TIP3   OH248749   1.273   1.967   8.968 -0.1154 -0.0215 -0.5759
 8185TIP3    H148750   1.362   2.000   8.979  0.3225 -0.8846 -1.3151
 8185TIP3    H248751   1.223   2.043   8.938 -0.2496  1.1204  2.2711
 8186TIP3   OH248752   6.389   6.625   9.686 -0.1184  0.2649  0.8482
 8186TIP3    H148753   6.396   6.530   9.695  2.0482  0.5840  3.9940
 8186TIP3    H248754   6.465   6.649   9.633 -1.5719  0.2405 -1.4242
 8187TIP3   OH248755   1.295   2.451  10.729 -0.6428 -0.5370 -0.4143
 8187TIP3    H148756   1.310   2.403  10.648  1.1304  0.3979 -0.7162
 8187TIP3    H248757   1.348   2.531  10.718  0.6107 -0.9278  2.1122
 8188TIP3   OH248758   4.072   1.976   9.979 -0.2997 -0.2222 -0.4749
 8188TIP3    H148759   4.009   2.046   9.997  1.8664  1.1264  3.0551
 8188TIP3    H248760   4.044   1.903  10.034  0.4575 -0.0964  0.0877
 8189TIP3   OH248761   2.376   6.201   9.130  0.2313 -0.3591 -0.2985
 8189TIP3    H148762   2.397   6.168   9.218 -0.3717 -0.4356 -0.1813
 8189TIP3    H248763   2.461   6.203   9.085  1.0296  2.1658  1.0846
 8190TIP3   OH248764   2.874   5.636   9.095 -0.1404 -0.4163  0.3133
 8190TIP3    H148765   2.810   5.708   9.102 -0.5198 -0.7236  0.0018
 8190TIP3    H248766   2.947   5.665   9.150  0.2833  0.8099 -0.8339
 8191TIP3   OH248767   0.192   2.088  10.476  0.1936  0.1732  0.3498
 8191TIP3    H148768   0.265   2.128  10.429  0.8201 -1.3427 -0.0175
 8191TIP3    H248769   0.204   1.994  10.464 -0.3831 -0.2233  2.4146
 8192TIP3   OH248770   4.410   2.715   9.524  0.4130  0.1604 -0.5924
 8192TIP3    H148771   4.328   2.739   9.568 -0.7583 -3.7296 -0.3281
 8192TIP3    H248772   4.454   2.656   9.585  1.5009 -0.9392 -2.3623
 8193TIP3   OH248773   5.096   4.476   9.617  0.0745 -0.1138  0.2812
 8193TIP3    H148774   5.173   4.532   9.620 -0.3668  0.5276 -0.0506
 8193TIP3    H248775   5.067   4.470   9.708  0.3804 -0.1799  0.3769
 8194TIP3   OH248776   2.280   5.671  10.938  0.1764 -0.1389  0.0978
 8194TIP3    H148777   2.193   5.649  10.904  0.6037 -0.5125 -0.8012
 8194TIP3    H248778   2.316   5.731  10.872 -0.1740  1.6748  1.4843
 8195TIP3   OH248779   6.049   3.317  10.479  0.0950 -0.2249  0.0740
 8195TIP3    H148780   6.105   3.284  10.408  1.4605  3.0526 -0.5706
 8195TIP3    H248781   6.104   3.313  10.557 -0.0720 -0.3311  0.1880
 8196TIP3   OH248782   5.314   5.089   8.485  0.0220 -0.4477  0.3495
 8196TIP3    H148783   5.376   5.098   8.558 -0.8553 -0.9239  1.1780
 8196TIP3    H248784   5.250   5.025   8.516 -0.8117 -0.0677 -0.5400
 8197TIP3   OH248785   4.867   5.299  10.482  0.0624  0.2379  0.9943
 8197TIP3    H148786   4.959   5.304  10.508  0.3686 -1.5533  0.4543
 8197TIP3    H248787   4.819   5.305  10.564  0.8141 -1.2145  1.5913
 8198TIP3   OH248788   1.668   5.406  11.404 -0.4078 -0.5591 -0.3172
 8198TIP3    H148789   1.583   5.387  11.365 -1.1668  0.8233  0.5632
 8198TIP3    H248790   1.690   5.494  11.372  0.6865 -0.8848 -0.5103
 8199TIP3   OH248791   3.280   0.838  10.360  0.4740  0.4041  0.1674
 8199TIP3    H148792   3.270   0.930  10.338  1.2521  0.2782 -0.7702
 8199TIP3    H248793   3.202   0.796  10.325  0.2218  0.6711  0.4048
 8200TIP3   OH248794   3.376   2.188   9.197 -0.1793  0.4668  0.3435
 8200TIP3    H148795   3.316   2.119   9.228 -0.4210  0.7234  0.4485
 8200TIP3    H248796   3.461   2.163   9.232 -0.0944 -0.2481 -0.3304
 8201TIP3   OH248797   4.439   3.858   8.487 -0.2333  0.3574  0.3424
 8201TIP3    H148798   4.387   3.935   8.464  0.6913  0.6145 -1.0152
 8201TIP3    H248799   4.517   3.892   8.529 -0.8118  0.0102  1.7510
 8202TIP3   OH248800   4.840   3.387   8.837  0.3117 -0.2057 -0.3433
 8202TIP3    H148801   4.906   3.428   8.781 -1.0888 -0.6665 -2.4339
 8202TIP3    H248802   4.780   3.343   8.776 -1.7746 -0.0587  1.4735
 8203TIP3   OH248803   6.074   5.057   8.403 -0.2784 -0.2792  0.0599
 8203TIP3    H148804   5.998   5.074   8.458 -0.0331  0.1098  0.2752
 8203TIP3    H248805   6.037   5.019   8.323 -0.6312 -0.9168  0.5115
 8204TIP3   OH248806   1.154   3.330   8.920  0.9393 -0.1634 -0.3042
 8204TIP3    H148807   1.108   3.410   8.945  0.6602 -0.1835 -0.7401
 8204TIP3    H248808   1.205   3.306   8.998 -0.3247 -0.5310  0.4481
 8205TIP3   OH248809   4.876   4.159   9.266  0.3644  0.0497 -0.0092
 8205TIP3    H148810   4.809   4.218   9.233 -0.7167 -2.3282 -2.4857
 8205TIP3    H248811   4.827   4.084   9.300  1.6383 -1.6883 -1.7570
 8206TIP3   OH248812   5.900   2.526   8.432  0.7180  0.1186  0.3347
 8206TIP3    H148813   5.944   2.594   8.382  0.0100 -0.6682 -1.4463
 8206TIP3    H248814   5.961   2.452   8.430  0.6334  0.0429  0.5304
 8207TIP3   OH248815   4.325   0.370  10.708 -0.1336 -0.1683 -0.4191
 8207TIP3    H148816   4.320   0.275  10.721  0.1626 -0.0041  1.1019
 8207TIP3    H248817   4.236   0.401  10.722 -0.0244 -0.1115  0.1682
 8208TIP3   OH248818   6.400   0.678   9.218  0.3295  0.1055 -0.3863
 8208TIP3    H148819   6.451   0.756   9.240  2.3107 -1.3319  0.5045
 8208TIP3    H248820   6.413   0.667   9.124  0.1544  0.7584 -0.4922
 8209TIP3   OH248821   4.602   6.115   9.623  0.4690 -0.4864  0.0947
 8209TIP3    H148822   4.606   6.204   9.658 -3.4171  0.2614 -0.8752
 8209TIP3    H248823   4.618   6.058   9.698 -3.1169  1.0868  2.3109
 8210TIP3   OH248824   0.333   0.698   9.128 -0.3559  0.1822 -0.0591
 8210TIP3    H148825   0.385   0.713   9.206  0.4818 -1.6809 -0.1937
 8210TIP3    H248826   0.354   0.771   9.070  0.9774  0.2618  0.4841
 8211TIP3   OH248827   1.861   4.769  12.188 -0.0938 -0.1683  0.3100
 8211TIP3    H148828   1.863   4.853  12.142 -1.6505  0.5744  1.5027
 8211TIP3    H248829   1.827   4.790  12.275  0.5174 -1.8856  1.0079
 8212TIP3   OH248830   3.645   5.385   9.834  0.8216 -0.0045 -0.4988
 8212TIP3    H148831   3.553   5.369   9.813  0.6911  0.7601 -0.5231
 8212TIP3    H248832   3.693   5.352   9.758  0.4735  0.9359 -1.1415
 8213TIP3   OH248833   4.327   2.948  11.624  0.1337  0.5595  0.0860
 8213TIP3    H148834   4.387   3.015  11.657  2.7912 -1.5253 -0.1540
 8213TIP3    H248835   4.246   2.963  11.672  0.7077  3.6652  0.2950
 8214TIP3   OH248836   2.239   1.142  10.536  0.3566 -0.1926 -0.0822
 8214TIP3    H148837   2.219   1.100  10.452 -1.6535 -2.5044  1.4032
 8214TIP3    H248838   2.154   1.149  10.580  1.4743 -0.1883  2.2402
 8215TIP3   OH248839   6.557   6.300  10.446  0.6733  0.2614  0.0862
 8215TIP3    H148840   6.483   6.262  10.399 -0.3347 -0.5753  2.2584
 8215TIP3    H248841   6.627   6.236  10.436 -0.1923 -0.9489  1.4486
 8216TIP3   OH248842   4.579   3.366   9.346  0.0095  0.2731  0.0945
 8216TIP3    H148843   4.629   3.325   9.417 -1.9596 -0.5048  1.1338
 8216TIP3    H248844   4.496   3.317   9.345  0.3462 -0.4695 -3.5021
 8217TIP3   OH248845   2.395   0.346   9.885 -0.0528 -0.8127 -0.0082
 8217TIP3    H148846   2.363   0.394   9.809  0.6994 -1.7031 -0.9203
 8217TIP3    H248847   2.317   0.304   9.921 -0.5672  0.3284  0.2733
 8218TIP3   OH248848   4.176   2.052   9.200  0.2003  0.0478 -0.0235
 8218TIP3    H148849   4.234   2.058   9.276  0.1073 -1.4697  0.1997
 8218TIP3    H248850   4.147   1.961   9.199 -0.3602  0.2135 -1.4798
 8219TIP3   OH248851   4.962   6.498   9.498  0.6661 -0.1072  0.1804
 8219TIP3    H148852   5.002   6.574   9.541  1.3816  0.8734 -2.0507
 8219TIP3    H248853   4.868   6.516   9.499  0.8902  1.4115 -1.2437
 8220TIP3   OH248854   0.173   6.145   9.515  0.1832  0.1644 -0.3563
 8220TIP3    H148855   0.109   6.178   9.578  0.1481 -1.0403  0.2560
 8220TIP3    H248856   0.258   6.165   9.555  0.1810  0.6846 -0.6062
 8221TIP3   OH248857   0.396   0.024   9.772 -0.3931  0.2196 -0.3339
 8221TIP3    H148858   0.428   0.082   9.841  0.0953 -0.2704 -0.1363
 8221TIP3    H248859   0.471  -0.034   9.753 -0.6834  0.0243 -0.9225
 8222TIP3   OH248860   3.448   0.362   9.527 -0.4227  0.3009 -0.0086
 8222TIP3    H148861   3.382   0.417   9.484  0.3162  1.3550  0.1485
 8222TIP3    H248862   3.497   0.324   9.454 -1.2630 -0.5746 -0.1269
 8223TIP3   OH248863   0.478   1.891  10.525  0.5119  0.9856 -0.0718
 8223TIP3    H148864   0.569   1.919  10.534  0.7652 -0.3334  2.3480
 8223TIP3    H248865   0.427   1.964  10.559  0.5238  2.1789 -2.4398
 8224TIP3   OH248866   3.434   4.429  10.731  0.1948  0.1046  0.0410
 8224TIP3    H148867   3.488   4.387  10.664  1.2339  1.3734  0.0249
 8224TIP3    H248868   3.408   4.358  10.789  0.4183 -0.8109 -0.9516
 8225TIP3   OH248869   2.395   5.060  12.140  0.3143  0.6580  0.0052
 8225TIP3    H148870   2.490   5.062  12.137  0.3176  2.1757  0.3146
 8225TIP3    H248871   2.368   5.059  12.048  0.5937 -2.0955 -0.1251
 8226TIP3   OH248872   1.018   4.736   8.397  0.4181 -0.1412 -0.5641
 8226TIP3    H148873   1.090   4.730   8.335  0.5414  0.0417 -0.4425
 8226TIP3    H248874   1.022   4.655   8.447  0.5276 -0.1418 -0.5726
 8227TIP3   OH248875   2.175   3.125  10.673  0.5670  0.5738 -0.5097
 8227TIP3    H148876   2.260   3.097  10.707 -0.9110  0.2641  3.4328
 8227TIP3    H248877   2.146   3.053  10.618  1.4796 -0.8198  0.7664
 8228TIP3   OH248878   3.340   4.889   8.407  0.1808 -0.2970 -0.4015
 8228TIP3    H148879   3.382   4.843   8.335 -0.8115  0.3278 -1.4133
 8228TIP3    H248880   3.382   4.975   8.409  1.1695 -0.7701  0.6919
 8229TIP3   OH248881   2.889   0.881  11.093  0.2154  0.4202 -0.0287
 8229TIP3    H148882   2.914   0.832  11.171  2.0760  0.1739 -0.7228
 8229TIP3    H248883   2.795   0.899  11.105  0.0995 -0.9292  1.5150
 8230TIP3   OH248884   4.961   5.156   9.415 -0.4559 -0.3308 -0.7279
 8230TIP3    H148885   4.888   5.209   9.447  0.9533  2.2381 -1.4592
 8230TIP3    H248886   4.992   5.110   9.493 -0.7360  1.2486  0.3728
 8231TIP3   OH248887   0.669   1.617  11.385  0.3008  0.1147  0.1418
 8231TIP3    H148888   0.589   1.664  11.411  0.6067 -0.0379  1.4380
 8231TIP3    H248889   0.699   1.662  11.306  0.4563  2.0085  1.2184
 8232TIP3   OH248890   4.406   6.145   9.441  0.2468  0.2678  0.5261
 8232TIP3    H148891   4.478   6.178   9.387 -0.2416 -0.3641 -0.5537
 8232TIP3    H248892   4.448   6.116   9.522  1.2298 -0.1076 -0.0907
 8233TIP3   OH248893   5.338   5.403  11.236 -0.3119  0.2434  0.1113
 8233TIP3    H148894   5.318   5.350  11.159  0.8523 -1.0216  0.6370
 8233TIP3    H248895   5.265   5.385  11.296 -1.1142  1.0722 -0.5843
 8234TIP3   OH248896   1.781   2.868   8.289 -0.4700  0.1909 -0.6420
 8234TIP3    H148897   1.823   2.946   8.255 -0.8187  0.6614 -0.0285
 8234TIP3    H248898   1.841   2.836   8.357 -1.8469  1.9003  1.5336
 8235TIP3   OH248899   5.923   5.810  10.125  0.2542  0.2030  0.2547
 8235TIP3    H148900   5.942   5.866  10.050 -3.8360  1.4809 -0.1221
 8235TIP3    H248901   5.971   5.850  10.197  1.0716  1.4257 -0.9097
 8236TIP3   OH248902   4.842   3.288  10.354 -0.7297  0.0747 -0.0728
 8236TIP3    H148903   4.856   3.289  10.449  1.0993  1.6897 -0.3018
 8236TIP3    H248904   4.852   3.196  10.330  2.0370  0.0207  0.9283
 8237TIP3   OH248905   2.996   0.744   9.035 -0.1978 -0.2766  0.0610
 8237TIP3    H148906   2.983   0.741   9.130  0.8906 -0.2535  0.2209
 8237TIP3    H248907   2.914   0.711   8.999 -2.3047  3.5550  0.8507
 8238TIP3   OH248908   3.274   5.261   8.860  0.5992 -0.8107  0.7271
 8238TIP3    H148909   3.183   5.243   8.838  0.3545 -0.4908  1.4171
 8238TIP3    H248910   3.298   5.337   8.806 -0.0456  0.0790  1.6373
 8239TIP3   OH248911   2.634   6.416  10.280  0.7569 -0.6754  0.2114
 8239TIP3    H148912   2.634   6.334  10.329  3.4818 -1.0881 -0.3466
 8239TIP3    H248913   2.632   6.389  10.188 -3.7011  0.0825 -0.1516
 8240TIP3   OH248914   0.424   0.255  11.643 -0.2868 -0.0031 -0.3060
 8240TIP3    H148915   0.460   0.171  11.616  0.5979  0.4313 -0.5186
 8240TIP3    H248916   0.497   0.316  11.635 -0.9969  0.8510 -0.4744
 8241TIP3   OH248917   1.068   3.799  10.618 -0.5145  0.1175  0.0153
 8241TIP3    H148918   1.021   3.789  10.535 -0.7367  1.3285 -0.0271
 8241TIP3    H248919   1.054   3.890  10.643 -0.6358 -0.2809  1.5121
 8242TIP3   OH248920   4.205   0.028   9.542 -0.4359 -0.2630 -0.3117
 8242TIP3    H148921   4.221  -0.046   9.484 -2.6625 -0.4193 -0.8263
 8242TIP3    H248922   4.240   0.104   9.495 -3.0702 -0.2276 -2.4873
 8243TIP3   OH248923   0.626   0.533   9.781 -0.5635 -0.3768 -0.0186
 8243TIP3    H148924   0.665   0.455   9.742  2.0460 -0.1006  1.7251
 8243TIP3    H248925   0.574   0.572   9.711  0.3534 -2.1525 -1.8017
 8244TIP3   OH248926   5.981   1.608   9.918 -0.1495  0.6914 -0.4735
 8244TIP3    H148927   6.029   1.555   9.855  0.1347  1.3014 -0.7817
 8244TIP3    H248928   5.893   1.618   9.880 -0.1449  0.6039 -0.5073
 8245TIP3   OH248929   0.251   3.019   9.942 -0.6291 -0.6113  0.2341
 8245TIP3    H148930   0.178   3.017   9.880 -0.6557 -2.1810  0.2761
 8245TIP3    H248931   0.208   3.014  10.028 -0.5074 -0.4530  0.3041
 8246TIP3   OH248932   2.955   0.125   8.968 -0.6023 -0.2235 -0.5088
 8246TIP3    H148933   2.956   0.099   9.060  1.4245 -0.3630 -0.5175
 8246TIP3    H248934   2.863   0.138   8.947 -1.0306  1.2938  1.9558
 8247TIP3   OH248935   4.025   4.141  10.191 -0.1068  0.2521  0.1246
 8247TIP3    H148936   4.037   4.235  10.178 -1.4782  0.3765 -0.3929
 8247TIP3    H248937   4.034   4.104  10.103 -0.9825  0.0786  0.1023
 8248TIP3   OH248938   0.509   1.878  11.375  0.1152 -0.2365  0.2380
 8248TIP3    H148939   0.450   1.883  11.300  0.0198  2.2559  0.3833
 8248TIP3    H248940   0.458   1.835  11.443 -1.6793  1.9435  0.3921
 8249TIP3   OH248941   2.078   4.239   8.850 -0.0297  0.2657  0.7128
 8249TIP3    H148942   2.074   4.223   8.756 -2.7515  0.4138  0.7068
 8249TIP3    H248943   2.152   4.186   8.881  1.4746  0.8950 -1.5825
 8250TIP3   OH248944   4.683   0.145   8.924 -0.4913  0.1327 -0.0449
 8250TIP3    H148945   4.617   0.075   8.921  0.2354 -0.5369 -1.0743
 8250TIP3    H248946   4.720   0.147   8.836  0.0412  1.3056  0.1927
 8251TIP3   OH248947   2.255   4.452  10.456 -0.1269 -0.3921  0.2907
 8251TIP3    H148948   2.253   4.495  10.541 -0.4733 -0.7853  0.4904
 8251TIP3    H248949   2.335   4.399  10.458 -0.0234 -0.2366  0.2870
 8252TIP3   OH248950   0.399   1.938   8.508 -0.3986 -0.2179 -0.6704
 8252TIP3    H148951   0.462   1.866   8.509 -0.8165 -0.5924  0.2755
 8252TIP3    H248952   0.388   1.961   8.600 -1.0618  0.3490 -0.8842
 8253TIP3   OH248953   2.104   0.080   9.682  0.1400  0.3331  0.2592
 8253TIP3    H148954   2.159   0.059   9.607  0.8550  0.2575  0.7930
 8253TIP3    H248955   2.166   0.096   9.753 -0.5347  0.1140  0.9081
 8254TIP3   OH248956   4.324   4.450   9.815 -0.1177  0.0534 -0.3568
 8254TIP3    H148957   4.305   4.491   9.731 -0.9785  0.2966 -0.0475
 8254TIP3    H248958   4.318   4.521   9.879  0.8051 -0.0685 -0.1047
 8255TIP3   OH248959   2.417   3.974  10.817 -0.3387  0.6256  0.1819
 8255TIP3    H148960   2.460   4.060  10.810  1.5961 -0.3391 -0.7890
 8255TIP3    H248961   2.367   3.966  10.736 -0.0064  0.5919 -0.0240
 8256TIP3   OH248962   3.855   4.656  10.437  0.0253  0.2191 -0.5681
 8256TIP3    H148963   3.831   4.704  10.516  0.4716  0.7461 -0.7447
 8256TIP3    H248964   3.844   4.719  10.366 -0.0548 -0.1514 -0.8903
 8257TIP3   OH248965   3.513   3.841  11.236  0.4529  0.7428 -0.5037
 8257TIP3    H148966   3.484   3.830  11.146  1.5549 -1.8556 -0.6340
 8257TIP3    H248967   3.590   3.897  11.230  0.5403  0.5576 -1.1888
 8258TIP3   OH248968   4.666   0.937   8.897 -0.4017 -0.6065 -0.0901
 8258TIP3    H148969   4.631   1.026   8.897 -2.2213 -1.1937  2.8179
 8258TIP3    H248970   4.749   0.944   8.944  0.4613 -0.2198 -1.5811
 8259TIP3   OH248971   3.173   0.646  10.951  0.1386  0.0357 -0.4869
 8259TIP3    H148972   3.147   0.724  10.902 -0.2454  0.0364 -0.2828
 8259TIP3    H248973   3.110   0.579  10.924  0.3197 -0.1402 -0.4758
 8260TIP3   OH248974   1.893   1.296   9.815  0.3784 -0.1763 -0.7064
 8260TIP3    H148975   1.933   1.363   9.871  0.1717  1.2812 -2.2241
 8260TIP3    H248976   1.968   1.248   9.779  0.4943 -1.7375  1.4448
 8261TIP3   OH248977   2.086   4.125   8.581  0.4257 -0.0388  0.3343
 8261TIP3    H148978   1.999   4.159   8.561  0.0614 -0.7273  0.7001
 8261TIP3    H248979   2.077   4.030   8.575  1.5687 -0.0931 -1.2868
 8262TIP3   OH248980   0.433   5.893   9.656 -0.2239  0.2641  0.0772
 8262TIP3    H148981   0.458   5.944   9.579 -1.0430  2.1769  0.9870
 8262TIP3    H248982   0.490   5.926   9.726 -1.2219  0.4510  0.8353
 8263TIP3   OH248983   2.845   1.418  11.671  0.1386 -0.1778 -0.5266
 8263TIP3    H148984   2.757   1.452  11.655  0.8751  2.1704 -0.0460
 8263TIP3    H248985   2.902   1.477  11.622  1.4309 -2.2476 -1.6236
 8264TIP3   OH248986   4.918   3.357   8.350  0.1783 -0.3228  0.1594
 8264TIP3    H148987   4.839   3.389   8.391 -1.2208 -1.2583 -1.6382
 8264TIP3    H248988   4.908   3.379   8.257  2.1154 -0.3128 -0.1040
 8265TIP3   OH248989   3.452   6.016   9.725 -0.7036  0.2290  0.0712
 8265TIP3    H148990   3.465   5.972   9.809  1.5990 -0.5431 -0.6184
 8265TIP3    H248991   3.479   6.106   9.741 -0.3313  0.1002  0.1799
 8266TIP3   OH248992   1.392   5.235  10.652 -0.0301 -0.6013  0.2325
 8266TIP3    H148993   1.342   5.266  10.576  2.0147  0.3616 -0.8049
 8266TIP3    H248994   1.406   5.142  10.634  1.9558 -0.0388 -1.5864
 8267TIP3   OH248995   1.123   3.952  10.992  0.5777 -0.4014 -0.1090
 8267TIP3    H148996   1.134   4.033  11.043  0.5506 -0.2003 -0.4211
 8267TIP3    H248997   1.029   3.951  10.970  0.3127 -1.1548  0.9537
 8268TIP3   OH248998   1.002   2.689  11.560  0.7071  0.3496  0.1786
 8268TIP3    H148999   0.999   2.657  11.650 -1.6467  1.5659  0.6098
 8268TIP3    H249000   1.061   2.764  11.563  0.5171  0.4822  0.7417
 8269TIP3   OH249001   2.480   0.310  10.823  0.2049  0.0556 -0.0487
 8269TIP3    H149002   2.410   0.282  10.883  1.3581 -1.2128  0.7565
 8269TIP3    H249003   2.440   0.379  10.770 -1.1488  0.5518  1.5428
 8270TIP3   OH249004   2.401   5.333  10.971  0.3472  0.6508 -0.4001
 8270TIP3    H149005   2.481   5.356  10.924  1.2074 -0.1864  0.6096
 8270TIP3    H249006   2.330   5.360  10.912  1.3512  1.6939 -1.1732
 8271TIP3   OH249007   4.791   2.925  11.117  0.0554  0.0564 -0.1200
 8271TIP3    H149008   4.885   2.916  11.134  0.1890  1.9565  0.4367
 8271TIP3    H249009   4.786   2.970  11.033 -0.3355  0.2474  0.0021
 8272TIP3   OH249010   3.719   2.721   8.671  0.1194 -0.4281  0.1564
 8272TIP3    H149011   3.747   2.744   8.582 -0.8251  0.4668  0.0663
 8272TIP3    H249012   3.797   2.731   8.725  0.3125  0.6774 -0.3071
 8273TIP3   OH249013   1.091   4.903  10.004 -0.0703 -0.2733  0.6380
 8273TIP3    H149014   1.114   4.861   9.922 -1.0187  1.2613 -0.4572
 8273TIP3    H249015   1.003   4.870  10.024 -0.0574 -0.2303  0.7684
 8274TIP3   OH249016   4.259   5.852  10.983  0.1099 -0.9273 -0.2631
 8274TIP3    H149017   4.337   5.898  11.014 -0.5280  0.5113 -0.6975
 8274TIP3    H249018   4.186   5.893  11.031 -0.6584 -0.1748 -1.9802
 8275TIP3   OH249019   6.303   4.211   8.398 -0.5577  0.1954 -0.3824
 8275TIP3    H149020   6.208   4.205   8.412 -0.5689  0.4610 -0.3506
 8275TIP3    H249021   6.322   4.143   8.333 -0.7272 -0.0447 -0.1813
 8276TIP3   OH249022   2.608   1.740  10.099 -0.0794  0.0497  0.2643
 8276TIP3    H149023   2.666   1.683  10.150  1.1970  1.0568 -0.0105
 8276TIP3    H249024   2.652   1.825  10.099 -0.9650  0.5312 -1.0009
 8277TIP3   OH249025   1.204   2.648   9.060 -0.0451 -0.1437 -0.0020
 8277TIP3    H149026   1.215   2.734   9.020 -0.8003 -0.0694 -0.0626
 8277TIP3    H249027   1.231   2.661   9.151  0.7964 -0.0913 -0.2523
 8278TIP3   OH249028   5.701   3.113  10.885  0.0637  0.0611  0.4053
 8278TIP3    H149029   5.692   3.030  10.931  1.0243 -0.8094 -0.8884
 8278TIP3    H249030   5.622   3.119  10.831  1.1746 -1.3641 -1.4870
 8279TIP3   OH249031   2.264   6.666  11.125 -0.6977  0.0316  0.5846
 8279TIP3    H149032   2.337   6.613  11.159 -0.3004  1.0021  1.3057
 8279TIP3    H249033   2.199   6.663  11.195 -0.9845 -0.1010  0.3137
 8280TIP3   OH249034   0.571   0.289   8.330  0.2573 -0.3250  0.2067
 8280TIP3    H149035   0.482   0.262   8.308 -0.0919  0.9067  0.0669
 8280TIP3    H249036   0.582   0.260   8.421  0.2857 -1.8404 -0.2422
 8281TIP3   OH249037   0.812   5.363  10.610  0.4192 -0.5290 -0.4933
 8281TIP3    H149038   0.737   5.381  10.667  0.3282  0.2924 -0.8695
 8281TIP3    H249039   0.887   5.396  10.659  0.4718 -0.7879 -0.3938
 8282TIP3   OH249040   3.313   3.632   8.149  0.4354 -0.4427  0.0065
 8282TIP3    H149041   3.329   3.557   8.206  1.0905 -1.3032 -1.2552
 8282TIP3    H249042   3.222   3.622   8.121  0.7089 -1.1757 -0.6801
 8283TIP3   OH249043   3.235   3.190  10.494  0.0709  0.6517 -0.0331
 8283TIP3    H149044   3.231   3.278  10.530  1.3342  0.8531 -0.3419
 8283TIP3    H249045   3.258   3.134  10.568 -0.6887  0.5672  0.1535
 8284TIP3   OH249046   1.471   6.149  11.982  0.2610  0.0404 -0.5708
 8284TIP3    H149047   1.432   6.232  11.954 -0.1243  0.3694  0.8417
 8284TIP3    H249048   1.510   6.169  12.067  0.4823 -1.1472 -0.3788
 8285TIP3   OH249049   0.586   5.111  10.983  0.2660  0.7533  0.0415
 8285TIP3    H149050   0.612   5.148  10.898 -2.7117  0.5852 -1.0561
 8285TIP3    H249051   0.529   5.177  11.022  0.4197  0.1906  1.2572
 8286TIP3   OH249052   2.342   0.700  11.127 -0.4433  0.8985  0.1015
 8286TIP3    H149053   2.273   0.764  11.116  0.7654  2.3084  0.4326
 8286TIP3    H249054   2.357   0.665  11.039 -1.2432  0.9166 -0.0452
 8287TIP3   OH249055   2.845   4.823  11.576 -0.4060 -0.3439 -0.2334
 8287TIP3    H149056   2.776   4.758  11.586 -1.0136  0.3526  0.1759
 8287TIP3    H249057   2.801   4.907  11.589  0.7602  0.0534  1.3752
 8288TIP3   OH249058   2.379   1.694  11.142  0.1091  0.0227  0.1019
 8288TIP3    H149059   2.470   1.716  11.160  0.2020  1.1656 -1.5489
 8288TIP3    H249060   2.351   1.643  11.218  0.9138  3.0031  2.5838
 8289TIP3   OH249061   6.433   4.675   9.925  0.8678  0.0240 -0.1704
 8289TIP3    H149062   6.454   4.631  10.007  0.1879  0.5089  0.2850
 8289TIP3    H249063   6.354   4.726   9.945  1.1689  0.8080 -0.8905
 8290TIP3   OH249064   1.707   4.481   8.848  0.4138  0.6575  0.0558
 8290TIP3    H149065   1.754   4.535   8.784 -0.0139 -0.6191 -1.4258
 8290TIP3    H249066   1.647   4.540   8.891  0.3217  1.4774 -1.1488
 8291TIP3   OH249067   5.809   6.337  11.282  0.5005 -0.1177 -0.0488
 8291TIP3    H149068   5.877   6.269  11.290 -0.4109 -1.0014  0.4387
 8291TIP3    H249069   5.785   6.357  11.373 -0.4743 -0.4255 -0.2321
 8292TIP3   OH249070   3.651   1.765  10.347 -0.0360  0.0604  0.5513
 8292TIP3    H149071   3.586   1.816  10.298  0.1896  0.1671  0.3583
 8292TIP3    H249072   3.672   1.692  10.290  1.7528  1.2702 -0.4585
 8293TIP3   OH249073   5.632   5.220  11.179 -0.2195 -0.0458 -0.2968
 8293TIP3    H149074   5.681   5.219  11.262 -0.0147 -2.2784 -0.3737
 8293TIP3    H249075   5.629   5.312  11.154  2.0623  0.4152  0.8359
 8294TIP3   OH249076   1.583   1.109   9.268 -0.0317 -0.0397 -0.1269
 8294TIP3    H149077   1.542   1.034   9.311  0.4759  0.5611  1.4830
 8294TIP3    H249078   1.550   1.106   9.178 -1.1223 -1.3658  0.2801
 8295TIP3   OH249079   3.129   3.478   9.121  0.1599 -0.2214  0.3872
 8295TIP3    H149080   3.061   3.430   9.074  0.6157 -1.9186  1.3822
 8295TIP3    H249081   3.207   3.470   9.067  0.3665 -1.1008  0.7920
 8296TIP3   OH249082   6.475   4.552  10.181 -0.7616  0.3096  0.2362
 8296TIP3    H149083   6.394   4.507  10.205  0.0662 -1.7985 -0.6567
 8296TIP3    H249084   6.508   4.589  10.263 -1.4619 -0.8081  1.0459
 8297TIP3   OH249085   5.620   1.064   9.798 -0.3041  0.1637 -0.2425
 8297TIP3    H149086   5.582   1.063   9.886  0.9603  0.6277  0.3394
 8297TIP3    H249087   5.713   1.046   9.813  0.0889  1.1560 -1.3999
 8298TIP3   OH249088   0.967   4.681  10.384  0.4775  0.4521  0.2002
 8298TIP3    H149089   0.958   4.693  10.290  0.3488 -0.6875  0.0537
 8298TIP3    H249090   0.911   4.606  10.405 -2.0424  2.5939  1.7162
 8299TIP3   OH249091   2.069   4.481   8.588  0.2556  0.1252 -0.6231
 8299TIP3    H149092   2.153   4.494   8.543  0.1222 -2.2818 -1.7356
 8299TIP3    H249093   2.086   4.409   8.650 -0.8634 -0.0656 -0.5173
 8300TIP3   OH249094   1.610   0.927   8.333 -0.6124  0.1737 -0.0102
 8300TIP3    H149095   1.655   0.842   8.335 -0.9967 -0.0346  2.1691
 8300TIP3    H249096   1.660   0.982   8.394 -2.6885  0.2067  1.7890
 8301TIP3   OH249097   4.982   3.088   8.741 -0.5806  0.4613  0.5556
 8301TIP3    H149098   5.051   3.144   8.777  0.9618  0.5949 -2.2628
 8301TIP3    H249099   4.919   3.149   8.703 -0.6818  0.3107  0.4790
 8302TIP3   OH249100   3.586   6.294  11.370 -0.0856  0.0894  0.7233
 8302TIP3    H149101   3.586   6.390  11.372  0.1025  0.0907  0.6928
 8302TIP3    H249102   3.504   6.269  11.414  1.4252  0.2135  3.8900
 8303TIP3   OH249103   1.917   4.997  10.044  0.2610  0.1917  0.6815
 8303TIP3    H149104   1.898   4.910  10.009  0.8005  0.2193  0.3139
 8303TIP3    H249105   2.009   5.012  10.022  0.5164  0.3510  1.8075
 8304TIP3   OH249106   1.036   4.843   8.700 -0.3027 -0.1591 -0.0164
 8304TIP3    H149107   1.091   4.812   8.627 -1.2688  3.7280 -2.7280
 8304TIP3    H249108   1.098   4.867   8.768  1.0777  0.1910 -1.3385
 8305TIP3   OH249109   4.935   2.745  10.260  0.1918 -0.2601 -0.4745
 8305TIP3    H149110   5.019   2.788  10.248  0.0007  0.8350  1.6016
 8305TIP3    H249111   4.952   2.674  10.323 -0.1390 -1.0864 -1.2979
 8306TIP3   OH249112   4.131   4.830   9.742  0.9398  0.2744  0.3552
 8306TIP3    H149113   4.173   4.820   9.656 -0.1214  1.7467 -0.3735
 8306TIP3    H249114   4.041   4.801   9.728  0.3538  1.9127  0.5620
 8307TIP3   OH249115   1.980   2.367  11.279 -0.2086  0.2255 -0.1385
 8307TIP3    H149116   1.903   2.392  11.329 -0.0586  0.7294 -0.1537
 8307TIP3    H249117   2.029   2.449  11.267 -0.6630  0.2872 -1.8463
 8308TIP3   OH249118   2.029   4.598  12.038  0.0398 -0.1509  0.0775
 8308TIP3    H149119   1.973   4.649  12.097  0.0975  0.2580 -0.2221
 8308TIP3    H249120   2.098   4.659  12.011  0.2134 -0.4403 -0.1350
 8309TIP3   OH249121   5.035   4.056   9.659 -0.0593  0.1798  0.4137
 8309TIP3    H149122   4.969   3.992   9.687 -1.3145  0.6368 -1.3180
 8309TIP3    H249123   5.080   4.013   9.586 -0.2077  0.8846 -0.0940
 8310TIP3   OH249124   1.371   0.663   9.332  0.3227 -0.1348  0.2681
 8310TIP3    H149125   1.357   0.620   9.417  0.4372 -0.8911 -0.0947
 8310TIP3    H249126   1.449   0.717   9.346  0.2932 -0.1874  0.6643
 8311TIP3   OH249127   3.313   0.502  10.656 -0.1228 -0.0368  0.3742
 8311TIP3    H149128   3.245   0.569  10.652  0.0310  0.0942 -0.0580
 8311TIP3    H249129   3.268   0.421  10.632 -0.0623  0.0965 -0.1838
 8312TIP3   OH249130   6.387   5.692  10.306 -0.3521  0.1178  0.3345
 8312TIP3    H149131   6.340   5.736  10.377 -1.3880  1.0945 -0.8965
 8312TIP3    H249132   6.449   5.758  10.275  0.0627 -0.2898  0.2962
 8313TIP3   OH249133   0.604   3.845  10.945 -0.4638  0.3721 -0.2148
 8313TIP3    H149134   0.526   3.898  10.932 -0.8759 -0.6138 -2.0499
 8313TIP3    H249135   0.579   3.757  10.918  1.1982 -0.0197 -0.6045
 8314TIP3   OH249136   6.519   6.606   8.849 -0.1990 -0.3410 -0.6137
 8314TIP3    H149137   6.502   6.559   8.930  0.4199  0.4215 -0.0258
 8314TIP3    H249138   6.597   6.565   8.813 -0.3717 -0.5631 -0.7371
 8315TIP3   OH249139   3.805   1.768  10.575  0.0394 -0.4581 -0.1218
 8315TIP3    H149140   3.740   1.789  10.508 -1.6486 -0.8046  1.3539
 8315TIP3    H249141   3.775   1.814  10.653 -1.3262 -4.4776  2.0087
 8316TIP3   OH249142   0.911   0.930   8.930 -0.4087 -0.3158 -0.0132
 8316TIP3    H149143   0.937   0.839   8.947 -0.1424  0.0747  1.9487
 8316TIP3    H249144   0.930   0.976   9.012 -0.5205  1.5290 -0.9663
 8317TIP3   OH249145   6.381   0.161  11.138 -0.2526  0.3270  0.2619
 8317TIP3    H149146   6.437   0.180  11.063  1.9658 -2.1078  1.1624
 8317TIP3    H249147   6.388   0.066  11.150 -2.2615  0.3480  2.2693
 8318TIP3   OH249148   4.220   1.347   8.994  0.1022 -0.3304 -0.2822
 8318TIP3    H149149   4.129   1.370   8.972  0.1302  0.1148  0.0610
 8318TIP3    H249150   4.212   1.278   9.060  0.0125  0.0865  0.1418
 8319TIP3   OH249151   2.941   6.627   9.180 -0.1490  0.2475 -0.3784
 8319TIP3    H149152   2.855   6.599   9.213  1.1130  0.4319  3.6874
 8319TIP3    H249153   2.984   6.547   9.153 -1.2888  0.0756 -1.8182
 8320TIP3   OH249154   4.601   1.829  10.914  0.4676 -0.0102  0.7824
 8320TIP3    H149155   4.639   1.914  10.892 -0.1309 -0.1902 -1.1158
 8320TIP3    H249156   4.510   1.835  10.886  0.7499 -1.7063 -0.6530
 8321TIP3   OH249157   2.156   2.364   9.798  0.0611  0.1772  0.4957
 8321TIP3    H149158   2.061   2.355   9.789 -0.0589  1.1197  0.7348
 8321TIP3    H249159   2.192   2.301   9.735 -0.7215 -0.0490  0.2622
 8322TIP3   OH249160   3.073   5.533   9.461 -0.4473 -0.1067 -0.3013
 8322TIP3    H149161   3.021   5.508   9.537 -0.8788  0.2998 -0.4555
 8322TIP3    H249162   3.021   5.601   9.418  1.1346  1.8201  0.6816
 8323TIP3   OH249163   5.948   5.553  10.060  0.2693  0.4468 -0.4754
 8323TIP3    H149164   6.042   5.544  10.076  0.1639 -1.0613 -0.6192
 8323TIP3    H249165   5.929   5.644  10.084  1.6826  0.6587 -0.0540
 8324TIP3   OH249166   2.873   3.847  10.834 -0.3081 -0.4152 -0.2675
 8324TIP3    H149167   2.869   3.785  10.906 -0.5944  0.4991  0.5211
 8324TIP3    H249168   2.784   3.850  10.800 -0.3878 -0.1467 -0.0428
 8325TIP3   OH249169   2.999   3.415  10.850 -0.2005  0.3475  0.6608
 8325TIP3    H149170   2.905   3.405  10.841 -0.0822 -0.9615  0.6987
 8325TIP3    H249171   3.011   3.457  10.935 -0.7294  0.0580  0.8786
 8326TIP3   OH249172   1.195   0.305  10.208  0.3663  0.1788  0.4978
 8326TIP3    H149173   1.107   0.325  10.176  0.8220 -0.7237 -1.4332
 8326TIP3    H249174   1.201   0.210  10.206  1.4251  0.2303  0.4892
 8327TIP3   OH249175   3.355   6.428   8.697  0.5217  0.5690 -0.2970
 8327TIP3    H149176   3.450   6.418   8.701  0.3895 -0.6406  3.2965
 8327TIP3    H249177   3.321   6.343   8.724 -1.4784  1.8030  1.3518
 8328TIP3   OH249178   1.340   0.576  10.611 -0.3052  0.2826  0.2687
 8328TIP3    H149179   1.274   0.507  10.601  0.1688 -0.1425  0.0440
 8328TIP3    H249180   1.296   0.655  10.581  0.2997 -0.5302 -3.2241
 8329TIP3   OH249181   5.374   6.568  10.975 -0.1229 -0.0168  0.1711
 8329TIP3    H149182   5.315   6.639  10.948 -0.7738 -0.7681 -0.4541
 8329TIP3    H249183   5.317   6.508  11.023  0.4368 -0.1003  0.7360
 8330TIP3   OH249184   6.220   5.043  10.437  0.1884 -0.6049 -0.1741
 8330TIP3    H149185   6.268   4.987  10.497  1.6452  0.2828 -0.4628
 8330TIP3    H249186   6.169   4.982  10.383  0.1291 -1.5033  0.8598
 8331TIP3   OH249187   1.929   0.826  10.855 -0.1321 -0.4062  0.9763
 8331TIP3    H149188   1.948   0.803  10.764  1.8981  0.2199  1.2020
 8331TIP3    H249189   1.989   0.898  10.875 -0.4040 -0.6423  2.8763
 8332TIP3   OH249190   0.630   0.948  10.910 -0.1685 -0.6294 -0.3070
 8332TIP3    H149191   0.663   1.017  10.852  0.5309 -0.6325  0.0838
 8332TIP3    H249192   0.627   0.989  10.997  0.6130 -1.2023 -0.0059
 8333TIP3   OH249193   1.085   2.741  10.694 -0.4927  0.2342  0.3532
 8333TIP3    H149194   1.181   2.746  10.698 -0.3828  0.0629 -1.2214
 8333TIP3    H249195   1.064   2.658  10.737  0.0710  0.2498  0.6725
 8334TIP3   OH249196   6.315   3.679   8.848  0.0597 -0.1686 -0.0596
 8334TIP3    H149197   6.335   3.655   8.757 -0.3643  1.6097 -0.6545
 8334TIP3    H249198   6.320   3.596   8.896  1.4469 -0.9672 -1.4883
 8335TIP3   OH249199   0.612   3.333  12.061  0.0590 -0.5556 -0.7742
 8335TIP3    H149200   0.586   3.251  12.020  0.4003 -0.5903 -0.9237
 8335TIP3    H249201   0.702   3.347  12.033  0.3260 -0.6135  0.0187
 8336TIP3   OH249202   0.561   6.094  18.840  0.3655 -0.3108 -0.5765
 8336TIP3    H149203   0.591   6.019  18.790  2.3530 -0.6977  1.0701
 8336TIP3    H249204   0.618   6.166  18.811  3.3669 -1.0886  2.6974
 8337TIP3   OH249205   6.014   2.945   8.381 -0.3510  0.1625  0.4847
 8337TIP3    H149206   5.929   2.990   8.378 -0.3284  0.3721  2.0316
 8337TIP3    H249207   6.078   3.016   8.388  0.0015  0.0197 -1.0128
 8338TIP3   OH249208   5.077   3.390  11.834 -0.1113 -0.2011  0.2355
 8338TIP3    H149209   5.057   3.460  11.772  0.0847 -0.9157 -0.6775
 8338TIP3    H249210   5.150   3.422  11.886 -1.2200  0.9907  1.1046
 8339TIP3   OH249211   2.873   0.355  12.253  0.7618 -0.4125 -0.1716
 8339TIP3    H149212   2.923   0.437  12.262 -0.3977  0.5839 -2.0118
 8339TIP3    H249213   2.819   0.350  12.331  1.7829 -0.0998  0.5674
 8340TIP3   OH249214   4.804   6.024   9.828  0.1008 -0.3799 -0.2990
 8340TIP3    H149215   4.865   6.089   9.792  1.6473 -0.9320  1.1966
 8340TIP3    H249216   4.832   5.941   9.790 -0.4497 -0.4917 -0.4674
 8341TIP3   OH249217   5.493   1.867   8.328  0.4420  0.0261  0.1597
 8341TIP3    H149218   5.452   1.927   8.390 -1.2835 -0.1534 -0.7439
 8341TIP3    H249219   5.525   1.922   8.258 -0.1770  0.0089 -0.1470
 8342TIP3   OH249220   6.178   4.424  10.697 -0.1837 -0.1322 -0.3393
 8342TIP3    H149221   6.135   4.379  10.624  1.7078 -0.6496 -1.1923
 8342TIP3    H249222   6.123   4.404  10.773 -2.6551  1.0535 -1.6710
 8343TIP3   OH249223   1.936   4.682  10.567  0.6705  0.1780  0.2079
 8343TIP3    H149224   1.946   4.669  10.473 -0.2625 -0.4145  0.1758
 8343TIP3    H249225   1.854   4.731  10.575 -0.0577 -1.0712  0.7700
 8344TIP3   OH249226   5.953   0.507  12.104 -0.7582 -0.3598  0.4624
 8344TIP3    H149227   6.020   0.487  12.170 -1.0837 -1.4286  0.4920
 8344TIP3    H249228   5.993   0.573  12.048  0.4683 -1.2273  0.2764
 8345TIP3   OH249229   1.992   0.404  10.745  0.2017  0.0296  0.3732
 8345TIP3    H149230   1.911   0.422  10.793  1.1734  0.1338  2.0287
 8345TIP3    H249231   1.968   0.418  10.653 -1.2903  1.4640  0.9222
 8346TIP3   OH249232   0.790   4.790   8.796 -0.1079 -0.2480  0.0156
 8346TIP3    H149233   0.817   4.729   8.866  1.8845 -0.6773 -1.0543
 8346TIP3    H249234   0.866   4.795   8.738 -1.7480 -0.0255 -2.2386
 8347TIP3   OH249235   3.144   0.237   8.125 -0.0689  0.7634  0.9072
 8347TIP3    H149236   3.066   0.280   8.090 -0.3303  0.0619  0.6122
 8347TIP3    H249237   3.129   0.234   8.219 -2.2200 -2.7064  0.6443
 8348TIP3   OH249238   2.323   4.924  18.378 -0.4415  0.3610  0.1893
 8348TIP3    H149239   2.378   4.978  18.435 -1.2988  0.7534  0.6613
 8348TIP3    H249240   2.313   4.841  18.425  0.2724  0.0372 -0.2017
 8349TIP3   OH249241   3.325   4.927  10.592  0.1545  0.6295 -0.0441
 8349TIP3    H149242   3.383   4.871  10.643 -1.0749 -1.4342 -0.7919
 8349TIP3    H249243   3.258   4.956  10.655 -0.1973 -0.2228 -0.0097
 8350TIP3   OH249244   5.502   0.891   8.933 -0.1344 -0.0174  0.3914
 8350TIP3    H149245   5.420   0.844   8.942 -0.0975 -0.1844 -0.1221
 8350TIP3    H249246   5.488   0.952   8.861 -0.0172  0.4132  0.7242
 8351TIP3   OH249247   1.550   3.110  10.653  0.6088  0.2001  0.4406
 8351TIP3    H149248   1.620   3.143  10.709  0.5752  0.4617  0.3330
 8351TIP3    H249249   1.508   3.189  10.619 -0.9479  0.0777  1.9736
 8352TIP3   OH249250   4.269   2.437   9.784  0.4419 -0.2550 -0.2308
 8352TIP3    H149251   4.216   2.398   9.854  0.1777  0.4021 -0.0602
 8352TIP3    H249252   4.287   2.526   9.814  2.0738 -0.6090 -0.0572
 8353TIP3   OH249253   4.299   4.686  12.197  0.0393  0.3533  0.0589
 8353TIP3    H149254   4.222   4.650  12.241  0.4958  1.6866  2.1119
 8353TIP3    H249255   4.279   4.681  12.104 -2.7783  1.1769  0.5388
 8354TIP3   OH249256   4.808   4.635   9.911  0.1893  0.1871 -0.0057
 8354TIP3    H149257   4.762   4.595   9.837 -1.3792  1.0699  0.4279
 8354TIP3    H249258   4.816   4.565   9.975 -1.9044  0.3015  0.4726
 8355TIP3   OH249259   0.158   4.549  10.296  0.2636 -0.8422 -0.1786
 8355TIP3    H149260   0.208   4.467  10.298 -0.5638 -1.3461  1.1999
 8355TIP3    H249261   0.128   4.557  10.206  2.1176 -0.9461 -0.8404
 8356TIP3   OH249262   3.642   2.300   8.654  0.8191 -0.9044 -0.1704
 8356TIP3    H149263   3.565   2.270   8.607  0.7239  0.4749 -0.9597
 8356TIP3    H249264   3.716   2.279   8.597  0.6558  1.2851 -1.2886
 8357TIP3   OH249265   1.563   4.692   8.966  0.7850 -0.5533  0.2724
 8357TIP3    H149266   1.535   4.729   9.049 -2.2627 -0.1560 -0.7953
 8357TIP3    H249267   1.562   4.766   8.905  1.9649 -1.0314 -0.3749
 8358TIP3   OH249268   3.686   2.780  10.675  0.2258  0.6674 -0.4282
 8358TIP3    H149269   3.601   2.781  10.630 -0.0204  0.0806 -0.0010
 8358TIP3    H249270   3.716   2.689  10.666 -0.2482  0.2944  1.3164
 8359TIP3   OH249271   2.899   0.601  12.152 -0.1442  0.4863  0.0238
 8359TIP3    H149272   2.894   0.676  12.092 -1.1949  0.7750  0.4577
 8359TIP3    H249273   2.880   0.525  12.097 -0.2661  0.6565 -0.1695
 8360TIP3   OH249274   4.451   1.426  11.295  0.5261  0.1373  0.2084
 8360TIP3    H149275   4.386   1.420  11.365  0.2698 -0.9957 -0.1000
 8360TIP3    H249276   4.517   1.361  11.319 -0.4082 -1.5258 -1.4131
 8361TIP3   OH249277   0.977   5.504   9.057 -0.0997  0.2468 -0.2479
 8361TIP3    H149278   0.990   5.411   9.037 -1.2750  0.2751 -1.2492
 8361TIP3    H249279   1.062   5.544   9.037 -0.2222 -0.2827 -2.0041
 8362TIP3   OH249280   0.253   0.992  11.689 -0.1953  0.2880  0.0352
 8362TIP3    H149281   0.180   0.949  11.645  1.1476 -2.7141  0.5369
 8362TIP3    H249282   0.227   0.995  11.781 -1.2436  2.8503 -0.2346
 8363TIP3   OH249283   1.731   5.185  11.089  0.4918  0.2332  0.0635
 8363TIP3    H149284   1.762   5.170  11.179  0.0987 -0.3562  0.1105
 8363TIP3    H249285   1.659   5.123  11.079  0.0146  0.8571 -0.3948
 8364TIP3   OH249286   4.710   3.938   9.504  0.5366  0.0188 -0.5980
 8364TIP3    H149287   4.627   3.924   9.550  1.2427  1.4544  1.2330
 8364TIP3    H249288   4.775   3.896   9.561  1.0826 -1.4216 -2.1945
 8365TIP3   OH249289   1.075   3.205   9.585 -0.1027 -0.5420  0.2145
 8365TIP3    H149290   1.140   3.177   9.649  0.0520 -0.0750  0.2649
 8365TIP3    H249291   1.124   3.212   9.503 -0.3906 -1.5604 -0.0560
 8366TIP3   OH249292   4.003   1.079  10.202 -0.0564 -0.0608  0.4524
 8366TIP3    H149293   4.012   1.163  10.157 -0.7969 -0.0521  0.3085
 8366TIP3    H249294   4.056   1.019  10.151 -1.6199 -0.2602 -1.0009
 8367TIP3   OH249295   0.059   1.710   8.651  0.7425 -0.1262 -0.0600
 8367TIP3    H149296   0.093   1.749   8.571  1.1945 -0.5197 -0.0650
 8367TIP3    H249297   0.110   1.630   8.662  0.2103 -0.4324  0.2455
 8368TIP3   OH249298   4.677   6.609   9.874 -0.1409  0.5933  0.7156
 8368TIP3    H149299   4.769   6.587   9.883 -0.3672 -0.3062  0.9386
 8368TIP3    H249300   4.675   6.705   9.868  0.7379  0.6780  1.5385
 8369TIP3   OH249301   2.987   2.310   9.118  0.0323 -0.3097 -0.4234
 8369TIP3    H149302   2.935   2.255   9.059 -0.5708  0.2192 -0.3950
 8369TIP3    H249303   3.060   2.340   9.063  0.9563 -1.9598 -0.1515
 8370TIP3   OH249304   1.057   0.724  10.902  0.0083 -0.3759  0.2535
 8370TIP3    H149305   1.013   0.788  10.958  1.6674  0.0697  1.1121
 8370TIP3    H249306   1.029   0.747  10.813 -1.4347 -0.1080  0.7575
 8371TIP3   OH249307   2.884   5.131  10.004 -0.8411  0.1482 -0.2380
 8371TIP3    H149308   2.972   5.094  10.005 -0.3688  1.1852 -1.2492
 8371TIP3    H249309   2.826   5.056   9.990 -0.0391 -0.3990 -0.6468
 8372TIP3   OH249310   2.453   4.693  11.073  0.2003  0.0555 -0.3282
 8372TIP3    H149311   2.546   4.693  11.096 -0.0406 -0.4785  0.7440
 8372TIP3    H249312   2.416   4.763  11.126 -0.4651 -1.5454  1.4545
 8373TIP3   OH249313   3.241   6.191   8.732  0.0504  0.5419 -0.2096
 8373TIP3    H149314   3.239   6.112   8.787  0.7903 -0.4376 -1.5250
 8373TIP3    H249315   3.155   6.231   8.744 -0.1182 -0.1190  0.9681
 8374TIP3   OH249316   4.747   1.279  10.178 -0.3541 -0.3889  0.3121
 8374TIP3    H149317   4.653   1.262  10.170 -0.0607 -2.0889  0.1938
 8374TIP3    H249318   4.773   1.312  10.092 -0.4531 -2.0290 -0.3730
 8375TIP3   OH249319   3.665   6.639   9.278  0.0861 -0.3724 -0.1488
 8375TIP3    H149320   3.740   6.586   9.306 -0.0577 -0.6402 -0.2613
 8375TIP3    H249321   3.639   6.601   9.194 -0.5394 -0.6630  0.1667
 8376TIP3   OH249322   2.884   1.075   9.665 -0.1193  0.3145  0.4588
 8376TIP3    H149323   2.943   1.008   9.700  1.8054  1.5983 -0.1550
 8376TIP3    H249324   2.881   1.058   9.571 -1.3420 -0.1658  0.5670
 8377TIP3   OH249325   6.585   0.510   9.964  0.3342 -0.3046  0.6071
 8377TIP3    H149326   6.581   0.446   9.893 -2.9253 -0.7536  1.0396
 8377TIP3    H249327   6.596   0.458  10.044 -0.3827 -0.1908  0.7879
 8378TIP3   OH249328   4.723   2.681  10.875 -0.2097  0.4593  0.3389
 8378TIP3    H149329   4.804   2.642  10.842 -0.0596 -1.3042  2.5799
 8378TIP3    H249330   4.655   2.621  10.846 -0.7825  1.8101 -1.3269
 8379TIP3   OH249331   0.632   5.830  10.511 -0.2748 -0.1579  0.4105
 8379TIP3    H149332   0.720   5.807  10.482 -0.0625 -0.1846  1.0427
 8379TIP3    H249333   0.596   5.884  10.442 -0.0563 -0.8061 -0.2229
 8380TIP3   OH249334   2.251   1.031   9.462 -0.1000 -0.1577  0.4431
 8380TIP3    H149335   2.216   1.117   9.486  0.1854 -0.3114  1.4423
 8380TIP3    H249336   2.334   1.050   9.419 -1.3063  0.2074 -1.8869
 8381TIP3   OH249337   6.370   3.891   9.013  0.7335  0.5230  1.1888
 8381TIP3    H149338   6.365   3.816   8.954 -0.9440  1.2729  0.3016
 8381TIP3    H249339   6.457   3.885   9.052  1.0765 -1.2138  0.2716
 8382TIP3   OH249340   4.959   3.706  10.459  0.0575  0.7715  0.0062
 8382TIP3    H149341   4.939   3.676  10.548  2.2500  1.0579  0.6426
 8382TIP3    H249342   4.963   3.625  10.407  0.5354  0.4490  0.5392
 8383TIP3   OH249343   3.705   4.714   9.537  0.3890  0.5790  0.1345
 8383TIP3    H149344   3.685   4.788   9.595 -0.6977 -0.2019  0.8212
 8383TIP3    H249345   3.670   4.740   9.452  1.5322  1.5282 -0.0737
 8384TIP3   OH249346   1.585   2.166  11.378  0.4197  0.0112  0.4156
 8384TIP3    H149347   1.612   2.078  11.404  2.0692  0.9000  1.9089
 8384TIP3    H249348   1.551   2.206  11.457  1.5677  1.3639  0.2738
 8385TIP3   OH249349   5.806   4.011   9.627  0.2285 -0.1417 -0.4859
 8385TIP3    H149350   5.762   3.946   9.573 -3.3437  1.3498  0.3132
 8385TIP3    H249351   5.805   4.091   9.574 -1.3768  0.7964  0.8344
 8386TIP3   OH249352   5.530   0.336  11.119  0.1033 -0.2902  0.1283
 8386TIP3    H149353   5.476   0.276  11.172 -1.1959 -0.3964 -1.2681
 8386TIP3    H249354   5.555   0.405  11.180 -2.9469  0.6142  0.4889
 8387TIP3   OH249355   6.023   0.638   8.555 -0.0842 -0.5228  0.1685
 8387TIP3    H149356   5.953   0.572   8.562 -1.7454  1.0136 -1.0992
 8387TIP3    H249357   6.085   0.600   8.493 -0.7646 -1.1217 -0.1701
 8388TIP3   OH249358   2.668   4.280   9.925 -0.1688  0.4226  0.0077
 8388TIP3    H149359   2.594   4.341   9.921  0.5964  1.3947  0.2450
 8388TIP3    H249360   2.652   4.228  10.004  0.6840  2.4018  1.6037
 8389TIP3   OH249361   2.548   4.262  11.335  0.0703 -0.4869 -0.5258
 8389TIP3    H149362   2.574   4.308  11.255  1.2801  0.8745  0.5933
 8389TIP3    H249363   2.455   4.281  11.344  0.3546  1.0275 -0.5676
 8390TIP3   OH249364   0.930   0.074   8.786  0.0608 -0.1906  0.3323
 8390TIP3    H149365   0.936   0.148   8.726  2.0596 -0.7477 -0.2106
 8390TIP3    H249366   0.839   0.077   8.817  0.1026  2.5464  0.4601
 8391TIP3   OH249367   4.266   3.792  10.932  0.1143  0.3097  0.2954
 8391TIP3    H149368   4.329   3.862  10.950 -1.9321  2.2958  0.2720
 8391TIP3    H249369   4.181   3.832  10.951 -1.3854 -1.1865 -2.6565
 8392TIP3   OH249370   4.589   5.783   9.958  0.5428 -0.2975  0.0768
 8392TIP3    H149371   4.683   5.783   9.943  0.2534 -1.3585 -2.3381
 8392TIP3    H249372   4.554   5.839   9.888 -0.6257 -0.0574  0.8365
 8393TIP3   OH249373   2.181   1.837  10.989 -0.6778  0.6865 -0.0949
 8393TIP3    H149374   2.267   1.813  11.025 -0.8107 -0.0189 -0.2435
 8393TIP3    H249375   2.118   1.803  11.052 -0.8317  2.4751  0.7729
 8394TIP3   OH249376   2.918   6.066  11.577  1.1054 -0.2332  0.2152
 8394TIP3    H149377   2.894   5.999  11.513  0.9902 -0.8420  0.8708
 8394TIP3    H249378   2.884   6.032  11.660 -0.8289  1.6486  0.2577
 8395TIP3   OH249379   1.661   0.451   9.449 -0.3699 -0.4206  0.0403
 8395TIP3    H149380   1.598   0.382   9.427  0.1861 -1.1237  0.6127
 8395TIP3    H249381   1.738   0.432   9.396 -0.0403 -0.5102  0.5506
 8396TIP3   OH249382   4.191   3.012  11.396 -0.6668  0.4796  0.1418
 8396TIP3    H149383   4.263   3.023  11.459 -0.2909  0.4637 -0.2779
 8396TIP3    H249384   4.117   3.058  11.436  0.2309  2.6707 -0.5128
 8397TIP3   OH249385   2.201   5.675   9.608 -0.5596 -0.2961  0.6448
 8397TIP3    H149386   2.117   5.701   9.570  0.0320  0.4300 -0.2047
 8397TIP3    H249387   2.240   5.617   9.543  0.1333  0.3578  0.4668
 8398TIP3   OH249388   0.548   5.532  10.191 -0.3154 -0.3585 -0.3020
 8398TIP3    H149389   0.541   5.619  10.229 -0.8271 -0.2680 -0.5912
 8398TIP3    H249390   0.523   5.544  10.099  1.4712 -0.4492 -0.8414
 8399TIP3   OH249391   5.400   5.490   8.841  0.4392 -0.8754 -0.8080
 8399TIP3    H149392   5.378   5.544   8.917  0.4063 -1.4363 -0.4140
 8399TIP3    H249393   5.322   5.437   8.827  0.7641 -1.3877 -0.6985
 8400TIP3   OH249394   0.383   4.446  11.765 -0.0887 -0.1373  0.0084
 8400TIP3    H149395   0.423   4.393  11.833  2.1601  1.3964 -0.0083
 8400TIP3    H249396   0.295   4.465  11.797  0.5660 -0.2947  1.9987
 8401TIP3   OH249397   1.228   0.920   9.014 -0.1214 -0.2345  0.0931
 8401TIP3    H149398   1.189   0.938   9.099 -0.0668 -1.5058  0.4143
 8401TIP3    H249399   1.162   0.946   8.950 -0.3881  0.1971  0.5462
 8402TIP3   OH249400   3.725   4.228   8.793 -0.1167 -0.3446  0.5323
 8402TIP3    H149401   3.647   4.282   8.799 -0.1504 -0.5104  2.2024
 8402TIP3    H249402   3.796   4.289   8.777 -0.5564 -0.1780 -0.8500
 8403TIP3   OH249403   6.352   5.337   9.670 -0.0358  0.4129  0.9323
 8403TIP3    H149404   6.435   5.309   9.631  0.7855 -0.3801  3.0582
 8403TIP3    H249405   6.312   5.394   9.605  1.6610 -0.0611 -0.6041
 8404TIP3   OH249406   4.112   5.346  10.129 -0.2195 -1.0068  0.9396
 8404TIP3    H149407   4.016   5.351  10.128 -0.2325 -0.9042 -0.4523
 8404TIP3    H249408   4.131   5.255  10.149 -0.7332 -1.8449 -1.9307
 8405TIP3   OH249409   5.952   6.050   9.195 -0.2776 -0.1205 -0.5299
 8405TIP3    H149410   5.978   6.126   9.247  1.8949 -0.3693 -1.1786
 8405TIP3    H249411   6.015   5.982   9.218  0.9545 -0.1638 -3.6134
 8406TIP3   OH249412   0.049   0.870  11.541  0.2248 -0.5330  0.1253
 8406TIP3    H149413  -0.040   0.867  11.505  0.1041 -0.2512  0.3967
 8406TIP3    H249414   0.096   0.801  11.494  0.5270  0.8813 -1.7611
 8407TIP3   OH249415   4.532   5.789  10.995 -0.3638  0.0596 -0.2048
 8407TIP3    H149416   4.530   5.868  10.941  0.1006  0.2784  0.0857
 8407TIP3    H249417   4.610   5.742  10.966  0.0120  0.2871  0.4177
 8408TIP3   OH249418   3.374   3.697  11.548  0.0328 -0.1840  0.7393
 8408TIP3    H149419   3.300   3.732  11.599 -1.1455 -0.6678 -0.5822
 8408TIP3    H249420   3.342   3.614  11.514  2.1574 -1.7336  2.3091
 8409TIP3   OH249421   5.032   1.838   8.623 -0.4985 -0.1573 -0.6707
 8409TIP3    H149422   5.094   1.897   8.666 -1.6392  0.0575  0.7718
 8409TIP3    H249423   5.083   1.795   8.555  1.2868 -0.1082  0.5641
 8410TIP3   OH249424   5.652   0.193   9.321 -0.4993  0.4051  0.1295
 8410TIP3    H149425   5.588   0.133   9.283  0.4521 -0.5551 -0.0128
 8410TIP3    H249426   5.700   0.140   9.384 -0.2029  1.2575  0.6419
 8411TIP3   OH249427   2.755   3.333  11.672  0.0928 -0.7030 -0.3239
 8411TIP3    H149428   2.773   3.241  11.689 -0.8441 -1.3106 -2.3581
 8411TIP3    H249429   2.681   3.354  11.729 -0.9923 -1.8048 -1.2686
 8412TIP3   OH249430   3.477   6.141  11.894 -0.2590 -0.3719 -0.5411
 8412TIP3    H149431   3.524   6.222  11.914 -0.4424 -0.5239  0.5733
 8412TIP3    H249432   3.535   6.072  11.924 -0.9668 -0.5782  0.4019
 8413TIP3   OH249433   1.398   6.638   9.564 -0.6454  0.2352  0.6184
 8413TIP3    H149434   1.432   6.641   9.653  1.3252  0.1014 -0.0786
 8413TIP3    H249435   1.414   6.548   9.535 -1.3543  0.2511  0.1573
 8414TIP3   OH249436   1.036   1.875   8.945 -0.0234  1.2270  0.1940
 8414TIP3    H149437   1.006   1.861   9.035  1.3336  0.2178  0.5334
 8414TIP3    H249438   1.124   1.912   8.955 -0.3715  2.3506 -0.7368
 8415TIP3   OH249439   1.789   4.403   9.294 -0.1358 -0.4562  0.1158
 8415TIP3    H149440   1.816   4.369   9.209 -0.7477 -1.6232  0.3694
 8415TIP3    H249441   1.803   4.498   9.287 -4.0122  0.1775 -2.8130
 8416TIP3   OH249442   5.517   4.602  10.630  0.1166  0.3236  0.9905
 8416TIP3    H149443   5.560   4.621  10.547 -0.4283 -3.6309 -0.3842
 8416TIP3    H249444   5.425   4.587  10.608 -0.0270 -0.8884  2.2321
 8417TIP3   OH249445   3.948   2.370   8.644  0.2948 -0.0148 -0.2750
 8417TIP3    H149446   3.958   2.288   8.693  1.0448  0.4943  0.4571
 8417TIP3    H249447   3.910   2.431   8.708  1.2052  0.6386 -0.3351
 8418TIP3   OH249448   0.041   6.511   9.386  0.1313 -0.1279 -0.1217
 8418TIP3    H149449   0.067   6.574   9.319  0.6027  0.3660  0.5125
 8418TIP3    H249450  -0.002   6.563   9.453  0.2865 -0.5109  0.2854
 8419TIP3   OH249451   4.796   1.209   8.998  0.2372  0.1246  0.1420
 8419TIP3    H149452   4.858   1.257   9.052  0.1234 -0.2755  0.6236
 8419TIP3    H249453   4.735   1.277   8.967  0.2193  0.3313  0.6252
 8420TIP3   OH249454   5.104   0.551  11.327 -0.1028 -0.3294  0.1685
 8420TIP3    H149455   5.028   0.579  11.276 -0.9097 -0.9455  1.0007
 8420TIP3    H249456   5.081   0.571  11.417  0.3744 -1.2664  0.5131
 8421TIP3   OH249457   2.370   1.722  11.883  0.0919 -0.7538  0.1761
 8421TIP3    H149458   2.306   1.785  11.916  0.2716 -0.1726 -0.5433
 8421TIP3    H249459   2.386   1.663  11.956  0.7811  0.7163  1.2584
 8422TIP3   OH249460   3.355   1.423  11.191 -0.0150  0.2511  0.4761
 8422TIP3    H149461   3.261   1.411  11.176  0.0562 -0.2460  0.4234
 8422TIP3    H249462   3.395   1.341  11.164  0.4393  0.4604  0.4982
 8423TIP3   OH249463   0.577   0.642   9.303  0.2911  0.8551  0.1014
 8423TIP3    H149464   0.577   0.634   9.398  2.7825 -1.7754  0.0262
 8423TIP3    H249465   0.636   0.715   9.286  0.4229  0.8634  0.5713
 8424TIP3   OH249466   3.957   3.794   9.750  0.3453  0.6448 -0.3442
 8424TIP3    H149467   3.882   3.771   9.805  0.3995 -0.1575 -0.5870
 8424TIP3    H249468   3.984   3.711   9.710  2.8497  0.4237  1.5530
 8425TIP3   OH249469   1.723   2.156  11.997  0.0180  0.4405 -0.5620
 8425TIP3    H149470   1.808   2.114  12.013  0.5668  1.9392  0.7143
 8425TIP3    H249471   1.687   2.169  12.085 -0.9400  0.9967 -1.0262
 8426TIP3   OH249472   3.052   5.231   8.688  0.0667  0.0079  0.1026
 8426TIP3    H149473   3.003   5.150   8.705  1.2079 -0.6018  0.5703
 8426TIP3    H249474   2.984   5.299   8.685 -0.8107 -0.8025  0.7723
 8427TIP3   OH249475   0.308   4.953   8.463 -0.0954  0.1324 -0.0390
 8427TIP3    H149476   0.378   4.934   8.401  0.9721  2.2206  0.4355
 8427TIP3    H249477   0.228   4.948   8.411  0.5810 -0.2071 -1.0813
 8428TIP3   OH249478   1.606   4.634  10.391 -0.1527  0.4339 -0.3953
 8428TIP3    H149479   1.638   4.686  10.317  0.2718  0.8729  0.0876
 8428TIP3    H249480   1.515   4.613  10.368 -0.2101  1.0652 -0.7738
 8429TIP3   OH249481   3.812   2.148  10.868  0.3641 -0.6359 -0.4496
 8429TIP3    H149482   3.810   2.117  10.959  1.3765  0.0146 -0.1981
 8429TIP3    H249483   3.829   2.242  10.875  0.3754 -0.5720 -1.3133
 8430TIP3   OH249484   4.294   0.808  10.930  0.4717  0.2621 -0.1737
 8430TIP3    H149485   4.222   0.763  10.886 -0.0463  0.0170  0.8909
 8430TIP3    H249486   4.280   0.901  10.909  2.7761 -0.0396 -4.2150
 8431TIP3   OH249487   3.462   0.753  11.720 -0.0226 -0.2415  0.2079
 8431TIP3    H149488   3.440   0.741  11.628  0.4345 -0.2314  0.0915
 8431TIP3    H249489   3.487   0.665  11.750  2.2799  0.1523 -0.3567
 8432TIP3   OH249490   6.143   2.114  10.087  0.1536  0.4928 -0.8111
 8432TIP3    H149491   6.211   2.159  10.037 -0.3128  1.6430 -0.4224
 8432TIP3    H249492   6.141   2.159  10.171 -0.2655 -0.3185 -0.3710
 8433TIP3   OH249493   5.310   3.403  11.604  0.0862  0.3417  0.8940
 8433TIP3    H149494   5.243   3.369  11.544  1.4335  0.0058 -0.4697
 8433TIP3    H249495   5.322   3.494  11.576  1.0248  0.0598  0.3548
 8434TIP3   OH249496   0.006   0.209   9.316  0.3246 -0.4347 -0.1309
 8434TIP3    H149497   0.034   0.300   9.324 -1.6689  0.1117  1.2954
 8434TIP3    H249498   0.033   0.184   9.228  1.4601  1.3154 -0.3392
 8435TIP3   OH249499   6.194   6.502  10.011  0.2275 -0.2917  0.0621
 8435TIP3    H149500   6.260   6.531   9.948 -0.1126  0.7718  0.1754
 8435TIP3    H249501   6.242   6.484  10.091  0.3926  0.4468  0.1335
 8436TIP3   OH249502   0.204   0.302  10.978 -0.3011 -0.8500 -0.2152
 8436TIP3    H149503   0.122   0.343  10.951 -0.0835 -1.1303 -1.3675
 8436TIP3    H249504   0.177   0.234  11.040 -0.9121 -0.7484 -0.3570
 8437TIP3   OH249505   3.772   3.340  11.837  0.5637 -0.4477 -0.5101
 8437TIP3    H149506   3.721   3.315  11.914 -0.4856  0.6989 -0.7931
 8437TIP3    H249507   3.859   3.305  11.853  0.0589 -1.2032  0.6725
 8438TIP3   OH249508   5.850   4.002   9.064  0.0358  0.1875  0.0425
 8438TIP3    H149509   5.766   4.029   9.103  0.3531  1.7276 -0.2637
 8438TIP3    H249510   5.895   3.957   9.135 -1.3998 -1.5190 -0.0546
 8439TIP3   OH249511   3.529   5.208  10.182 -0.3821  0.0562 -0.1621
 8439TIP3    H149512   3.475   5.169  10.251  2.1879 -2.0941  0.8048
 8439TIP3    H249513   3.534   5.142  10.114  2.4257 -0.6448  0.5994
 8440TIP3   OH249514   2.071   2.702   9.587 -0.0929 -0.1095  0.5314
 8440TIP3    H149515   2.144   2.647   9.559 -0.0707  0.9082 -1.6483
 8440TIP3    H249516   1.994   2.646   9.579  0.1208 -0.3263 -0.0899
 8441TIP3   OH249517   5.645   1.313  10.954  0.2930  0.1273 -0.5749
 8441TIP3    H149518   5.628   1.221  10.976  0.4709  0.2821  0.2471
 8441TIP3    H249519   5.690   1.310  10.870 -1.5102 -0.4240 -1.5599
 8442TIP3   OH249520   3.723   3.094  11.300 -0.1063 -0.6370  0.5460
 8442TIP3    H149521   3.805   3.048  11.317  1.0017  0.0320 -2.3772
 8442TIP3    H249522   3.665   3.065  11.370  2.2088 -2.1003  2.0333
 8443TIP3   OH249523   4.648   1.602  10.444 -0.0112  0.6205  0.1842
 8443TIP3    H149524   4.717   1.662  10.417  0.4798 -0.1348 -0.2870
 8443TIP3    H249525   4.671   1.578  10.534  0.0469  0.7770  0.2115
 8444TIP3   OH249526   2.105   0.062   8.950 -0.4597 -0.6690 -0.1649
 8444TIP3    H149527   2.032   0.119   8.924 -1.5796 -1.3405  1.3899
 8444TIP3    H249528   2.064  -0.014   8.990  1.0824 -0.2508  2.4740
 8445TIP3   OH249529   4.454   2.214  10.199  0.0107 -0.1381  0.1797
 8445TIP3    H149530   4.486   2.231  10.110  0.2961 -1.2857  0.0468
 8445TIP3    H249531   4.393   2.141  10.189 -0.9079  0.5278  0.7657
 8446TIP3   OH249532   2.069   0.583  11.266 -0.3175  0.4609  0.5726
 8446TIP3    H149533   2.119   0.664  11.253  3.4531 -1.3132  2.3161
 8446TIP3    H249534   2.065   0.542  11.180 -0.8582  1.7228 -0.0196
 8447TIP3   OH249535   3.034   6.513  10.585  0.3666 -0.1962 -0.1766
 8447TIP3    H149536   3.124   6.479  10.579 -0.1135 -1.2628 -2.7063
 8447TIP3    H249537   2.980   6.446  10.542 -2.1178 -0.8869  3.5872
 8448TIP3   OH249538   2.796   2.240  10.832  0.5044 -0.0080  0.2503
 8448TIP3    H149539   2.835   2.188  10.762  0.1537 -0.2351  0.2202
 8448TIP3    H249540   2.819   2.330  10.811 -0.5852  0.0403 -0.7946
 8449TIP3   OH249541   0.588   0.654   8.880 -0.0295  0.3407 -0.2288
 8449TIP3    H149542   0.656   0.636   8.945  1.1915  0.5004 -1.3953
 8449TIP3    H249543   0.544   0.733   8.912  2.3382  2.0636 -0.8405
 8450TIP3   OH249544   5.737   6.344  10.602 -0.4183  0.0996  0.1504
 8450TIP3    H149545   5.674   6.410  10.632 -0.4056  0.5605 -0.7784
 8450TIP3    H249546   5.686   6.288  10.544 -0.4131 -0.6895  0.8912
 8451TIP3   OH249547   5.691   4.721   8.549 -0.4598 -0.3281  0.2259
 8451TIP3    H149548   5.663   4.771   8.625 -2.1345 -1.4236  0.3849
 8451TIP3    H249549   5.646   4.761   8.475 -3.0161 -2.3726  0.5412
 8452TIP3   OH249550   6.593   2.153  11.987 -0.3247 -0.1075 -0.6521
 8452TIP3    H149551   6.513   2.104  12.003  0.5059 -0.8529  1.4656
 8452TIP3    H249552   6.652   2.128  12.058  2.3243 -0.6648 -2.8621
 8453TIP3   OH249553   2.304   1.736   8.792  0.4068  0.0271  0.1741
 8453TIP3    H149554   2.290   1.766   8.702  2.3530  0.4025 -0.0466
 8453TIP3    H249555   2.362   1.660   8.784 -0.0993 -0.4734  1.0761
 8454TIP3   OH249556   5.247   1.403  11.203 -0.1375 -0.3782  0.5767
 8454TIP3    H149557   5.292   1.382  11.285 -0.7962 -0.7992  0.8388
 8454TIP3    H249558   5.317   1.416  11.140  0.3613 -2.1935  0.6874
 8455TIP3   OH249559   3.912   0.764   9.720  0.4263  0.3818 -0.0346
 8455TIP3    H149560   3.943   0.848   9.686  0.7121  1.3086  2.3096
 8455TIP3    H249561   3.923   0.771   9.815 -0.4673 -1.9515  0.3145
 8456TIP3   OH249562   4.083   4.493   9.210 -0.0059 -0.3153  0.0312
 8456TIP3    H149563   3.990   4.477   9.195  0.2439 -0.8842 -0.9840
 8456TIP3    H249564   4.092   4.588   9.209 -0.6011 -0.2452  0.3728
 8457TIP3   OH249565   0.816   4.927   8.426  0.3127 -0.0598 -0.5458
 8457TIP3    H149566   0.893   4.872   8.411  1.4007  1.2332  0.0960
 8457TIP3    H249567   0.852   5.009   8.461 -1.3946  0.4200  0.1535
 8458TIP3   OH249568   6.086   4.340   9.803 -0.2245  0.0544  0.1475
 8458TIP3    H149569   6.025   4.276   9.839  0.1426 -0.4715 -0.1387
 8458TIP3    H249570   6.030   4.407   9.764 -0.6200 -0.1844  0.2916
 8459TIP3   OH249571   4.036   3.530  10.502  0.1419  0.2395  0.2663
 8459TIP3    H149572   3.975   3.601  10.481  0.9093  0.9877  0.4918
 8459TIP3    H249573   4.123   3.566  10.482  0.5460 -0.6689  0.3058
 8460TIP3   OH249574   4.768   1.073  10.733 -0.0718 -0.5471 -0.5986
 8460TIP3    H149575   4.861   1.095  10.745 -0.0682 -1.7146  2.2522
 8460TIP3    H249576   4.731   1.149  10.688  1.2184  2.4853  2.9028
 8461TIP3   OH249577   4.551   1.250  10.643 -0.4429  0.1557 -0.3629
 8461TIP3    H149578   4.592   1.248  10.556 -1.3607  0.3027 -0.8033
 8461TIP3    H249579   4.461   1.278  10.627 -1.1127 -1.4189  0.4309
 8462TIP3   OH249580   1.329   0.867  10.902 -0.1939 -0.0661 -0.4392
 8462TIP3    H149581   1.329   0.902  10.813 -1.3122  1.5662  0.1533
 8462TIP3    H249582   1.340   0.772  10.891 -0.7840  0.0482 -2.3242
 8463TIP3   OH249583   1.366   1.079  10.609  0.0238  0.3912  0.4467
 8463TIP3    H149584   1.369   1.156  10.551  0.1935  0.1825  0.1771
 8463TIP3    H249585   1.404   1.008  10.557 -0.0599  0.1412  0.7240
 8464TIP3   OH249586   5.066   2.289  10.433 -0.1159 -0.5370 -0.2033
 8464TIP3    H149587   5.031   2.230  10.366 -2.5456  0.6007 -0.0392
 8464TIP3    H249588   5.065   2.237  10.513 -2.5038 -0.2834 -0.0008
 8465TIP3   OH249589   5.204   2.164  10.062  0.2436  0.2712  0.0324
 8465TIP3    H149590   5.265   2.116  10.118  0.6319  2.1066  1.2703
 8465TIP3    H249591   5.208   2.119   9.978  2.6463 -0.2076  0.3428
 8466TIP3   OH249592   6.638   4.814   8.567  0.1966  0.3481  0.1009
 8466TIP3    H149593   6.569   4.749   8.554 -0.3359  0.8925  0.1320
 8466TIP3    H249594   6.707   4.767   8.614 -0.2174 -0.1695  0.2057
 8467TIP3   OH249595   5.497   0.483   8.778  0.1446 -0.5562 -0.2323
 8467TIP3    H149596   5.583   0.519   8.757  0.8064 -1.8951  0.0876
 8467TIP3    H249597   5.501   0.464   8.872 -0.5524 -0.4961 -0.1841
 8468TIP3   OH249598   2.512   2.637   8.245 -0.1467  0.0828 -0.0270
 8468TIP3    H149599   2.485   2.692   8.171 -4.2757 -3.1628 -1.3577
 8468TIP3    H249600   2.449   2.657   8.314 -0.2107 -1.1924  0.3089
 8469TIP3   OH249601   2.656   1.757  11.291 -0.0810 -0.2705  0.5643
 8469TIP3    H149602   2.668   1.819  11.219 -1.3777 -0.0308  0.5379
 8469TIP3    H249603   2.661   1.810  11.370 -1.6059 -0.0383  0.5266
 8470TIP3   OH249604   1.094   6.343  11.832  0.0461 -0.1215  0.3929
 8470TIP3    H149605   1.040   6.380  11.901 -0.1583 -1.1772  0.8197
 8470TIP3    H249606   1.184   6.356  11.861  0.0301  1.2275 -0.1016
 8471TIP3   OH249607   4.660   0.632   9.425  0.3945  0.3111  0.1305
 8471TIP3    H149608   4.685   0.675   9.507  1.2065  0.3001 -0.0995
 8471TIP3    H249609   4.743   0.611   9.383  0.0652 -2.2307  0.6010
 8472TIP3   OH249610   0.181   3.551   8.402 -0.5717 -0.5172  0.1117
 8472TIP3    H149611   0.230   3.599   8.334 -1.0469 -0.5705 -0.2760
 8472TIP3    H249612   0.229   3.469   8.412  0.7488  0.3755  1.3993
 8473TIP3   OH249613   0.131   0.965   9.206 -0.5580  0.1745 -0.2443
 8473TIP3    H149614   0.191   1.035   9.233  0.0634 -0.2322 -0.5454
 8473TIP3    H249615   0.114   0.916   9.286 -1.8441  1.2782  0.1962
 8474TIP3   OH249616   2.719   3.594   9.457  0.6653 -0.0669  0.1928
 8474TIP3    H149617   2.797   3.570   9.406 -1.2020 -1.7969 -2.0785
 8474TIP3    H249618   2.709   3.522   9.519  0.4192 -0.2996 -0.1107
 8475TIP3   OH249619   4.698   4.985  10.597 -0.7163  0.8453  0.4326
 8475TIP3    H149620   4.724   5.072  10.626  1.6020  0.4358 -0.1592
 8475TIP3    H249621   4.772   4.929  10.622 -1.5518 -0.6938 -0.4098
 8476TIP3   OH249622   2.015   5.434  10.252  0.4647  0.5578  0.3431
 8476TIP3    H149623   2.108   5.411  10.253  0.7802  1.6742 -0.8944
 8476TIP3    H249624   1.980   5.388  10.176  0.0457  0.3538  0.6525
 8477TIP3   OH249625   1.116   3.678  10.871  0.6514  0.4484 -0.3713
 8477TIP3    H149626   1.109   3.709  10.781  0.3939  2.8574  0.4044
 8477TIP3    H249627   1.029   3.690  10.908  0.5928 -1.0865  0.0848
 8478TIP3   OH249628   0.068   3.711  10.676  0.3797  0.1575  0.0114
 8478TIP3    H149629   0.108   3.653  10.741  0.3621  0.5014  0.3270
 8478TIP3    H249630   0.143   3.753  10.633  0.4261 -0.6382 -0.7275
 8479TIP3   OH249631   6.433   4.809  10.350 -0.0909 -0.2485  0.2203
 8479TIP3    H149632   6.378   4.883  10.375 -1.0756 -0.2947 -1.6417
 8479TIP3    H249633   6.499   4.846  10.293 -0.3892 -0.7243 -0.4549
 8480TIP3   OH249634   1.885   3.158  10.794 -0.2853  0.7344  0.3283
 8480TIP3    H149635   1.969   3.178  10.752 -0.4902  0.3794 -0.2648
 8480TIP3    H249636   1.881   3.062  10.794 -0.1574  0.7188  1.4361
 8481TIP3   OH249637   5.924   3.649   9.366  0.3095  0.0994 -0.3012
 8481TIP3    H149638   5.913   3.621   9.457 -0.6318  0.1836 -0.3851
 8481TIP3    H249639   6.012   3.688   9.364 -0.4120  1.9411  1.0556
 8482TIP3   OH249640   1.132   0.435  11.618  0.2883 -0.6153 -0.2170
 8482TIP3    H149641   1.039   0.441  11.595  0.3077 -1.0358 -0.4175
 8482TIP3    H249642   1.179   0.454  11.537  0.3688 -0.8774 -0.2335
 8483TIP3   OH249643   1.310   6.432  11.102 -0.2051  0.0274  0.1807
 8483TIP3    H149644   1.396   6.449  11.141  0.4047 -0.0333 -1.0870
 8483TIP3    H249645   1.270   6.518  11.093 -0.8959 -0.0403  2.0396
 8484TIP3   OH249646   2.179   1.523  10.386  0.0694 -0.4142  0.1628
 8484TIP3    H149647   2.169   1.618  10.388 -0.5701 -0.4806  1.8638
 8484TIP3    H249648   2.273   1.508  10.396  0.2671  0.0285 -0.9020
 8485TIP3   OH249649   3.810   3.583   8.626 -0.0626 -0.0753  0.3568
 8485TIP3    H149650   3.736   3.525   8.642 -0.2867  0.3032  0.7233
 8485TIP3    H249651   3.771   3.664   8.595 -0.1622  1.3770  3.7757
 8486TIP3   OH249652   6.103   4.213  10.489  1.0102 -0.1255 -0.2786
 8486TIP3    H149653   6.173   4.164  10.532  2.2754  0.2123 -1.8379
 8486TIP3    H249654   6.024   4.162  10.506  1.8298 -1.1830  0.5133
 8487TIP3   OH249655   6.446   1.971   8.774  0.0164 -0.0342 -0.2413
 8487TIP3    H149656   6.422   1.922   8.853 -1.1069 -0.9080 -1.0941
 8487TIP3    H249657   6.516   2.030   8.803 -0.1083 -0.6002  1.3135
 8488TIP3   OH249658   4.958   2.094  10.195  0.1178  0.3575 -0.3888
 8488TIP3    H149659   4.899   2.043  10.139 -0.6186  2.4874 -1.6721
 8488TIP3    H249660   5.036   2.107  10.143  1.1126 -1.0171  0.6752
 8489TIP3   OH249661   5.051   5.685  10.142 -0.2735 -0.2966 -0.9773
 8489TIP3    H149662   5.020   5.646  10.224  0.7044  0.0136 -0.4431
 8489TIP3    H249663   5.044   5.614  10.078  0.4929 -1.0673 -0.2521
 8490TIP3   OH249664   4.961   2.294  11.148  0.3825 -0.5432 -0.0152
 8490TIP3    H149665   5.029   2.350  11.110 -0.3704  0.0741 -0.4720
 8490TIP3    H249666   4.960   2.316  11.241  1.3279 -1.1141  0.1441
 8491TIP3   OH249667   0.295   3.064  11.087 -0.4925 -0.2703  0.0349
 8491TIP3    H149668   0.297   2.984  11.035  0.0814 -1.2245  1.4469
 8491TIP3    H249669   0.385   3.073  11.119 -0.4564  1.1723 -0.4231
 8492TIP3   OH249670   5.315   1.140   8.763  0.1817  0.2613 -0.2373
 8492TIP3    H149671   5.331   1.094   8.680  0.2442  1.8853 -1.1761
 8492TIP3    H249672   5.229   1.179   8.752  0.3439  0.7932  0.3125
 8493TIP3   OH249673   0.538   2.744   8.874  0.0987  0.2011  0.1591
 8493TIP3    H149674   0.500   2.685   8.809  1.1521  0.3683 -0.6296
 8493TIP3    H249675   0.464   2.769   8.930 -0.4517 -1.5394  0.2793
 8494TIP3   OH249676   6.493   3.719  11.021  0.4598 -0.1251  0.5147
 8494TIP3    H149677   6.585   3.726  11.047  1.1668 -0.7621 -1.6061
 8494TIP3    H249678   6.469   3.628  11.042  1.2097 -0.8244 -1.4004
 8495TIP3   OH249679   5.097   2.956   9.187  0.0046 -0.1473 -0.1257
 8495TIP3    H149680   5.177   2.907   9.205  0.2779  0.6841  1.0467
 8495TIP3    H249681   5.121   3.015   9.116  0.9041  1.1363  1.1959
 8496TIP3   OH249682   6.175   0.868   8.696 -0.1058  0.2574 -0.9343
 8496TIP3    H149683   6.255   0.861   8.644 -0.3433  0.4083 -1.3221
 8496TIP3    H249684   6.118   0.799   8.663  1.1268 -2.2249  1.6677
 8497TIP3   OH249685   2.146   3.567  11.375 -0.1414  0.2502 -0.2281
 8497TIP3    H149686   2.144   3.657  11.343 -0.9564  0.6664  0.9078
 8497TIP3    H249687   2.103   3.572  11.461  0.0110 -1.1815 -0.0518
 8498TIP3   OH249688   0.832   2.043   8.897  0.0861 -0.4706  0.3132
 8498TIP3    H149689   0.770   1.985   8.939  2.4752 -2.3028  1.5588
 8498TIP3    H249690   0.917   2.000   8.908  1.8334  2.6172  0.1036
 8499TIP3   OH249691   4.703   2.506   8.698 -0.7048 -0.7970  0.3003
 8499TIP3    H149692   4.660   2.454   8.631 -1.0213  0.3563 -0.4308
 8499TIP3    H249693   4.768   2.559   8.651 -1.2171  0.3372  0.8076
 8500TIP3   OH249694   1.162   0.215  10.761 -0.2100 -0.0866 -0.0477
 8500TIP3    H149695   1.220   0.259  10.699  1.0253 -0.1453  1.0169
 8500TIP3    H249696   1.212   0.139  10.791 -1.8828 -1.6341 -1.0359
 8501TIP3   OH249697   3.205   6.544  10.824  0.0343 -0.2032  0.2096
 8501TIP3    H149698   3.135   6.562  10.762 -1.8668 -0.3046  2.2072
 8501TIP3    H249699   3.246   6.629  10.839 -0.0586 -0.0293 -0.4708
 8502TIP3   OH249700   5.485   3.744   9.581 -0.2976  0.6041  0.1055
 8502TIP3    H149701   5.540   3.793   9.519 -0.7648  1.2770  0.2158
 8502TIP3    H249702   5.533   3.747   9.663  0.0538  0.1943 -0.0826
 8503TIP3   OH249703   5.376   2.818  10.143 -0.0333  0.0605  0.0639
 8503TIP3    H149704   5.315   2.745  10.139  1.0519 -0.8955  0.3100
 8503TIP3    H249705   5.412   2.824  10.054 -2.0142  2.0423 -0.7062
 8504TIP3   OH249706   0.710   1.352   9.852  0.2352 -0.7606 -0.3192
 8504TIP3    H149707   0.780   1.404   9.893 -2.3285  1.8883  1.0969
 8504TIP3    H249708   0.677   1.408   9.782 -1.1870 -1.4503 -0.2267
 8505TIP3   OH249709   6.577   3.007  11.214 -0.1572 -0.5021 -0.2132
 8505TIP3    H149710   6.616   2.933  11.167 -0.1262 -0.3855 -0.3720
 8505TIP3    H249711   6.534   2.967  11.290  1.4861 -0.4955  0.7757
 8506TIP3   OH249712   0.876   2.243  10.448 -0.5473 -0.0974 -0.0110
 8506TIP3    H149713   0.789   2.204  10.433 -0.5647 -0.5737  1.2280
 8506TIP3    H249714   0.894   2.226  10.540 -0.0397  1.8378  0.2815
 8507TIP3   OH249715   0.252   5.704   9.632  0.3023 -0.1522 -0.2117
 8507TIP3    H149716   0.168   5.735   9.666  0.0905 -1.2050  0.2597
 8507TIP3    H249717   0.313   5.775   9.651 -0.8974  1.6947 -2.6949
 8508TIP3   OH249718   5.685   2.251  10.642  0.5032 -0.1028 -0.1621
 8508TIP3    H149719   5.595   2.271  10.614  0.5981  1.2312  0.4298
 8508TIP3    H249720   5.718   2.333  10.678  1.2356 -1.1248  1.6008
 8509TIP3   OH249721   3.918   6.119  11.066 -0.5315  0.9160 -0.0371
 8509TIP3    H149722   3.857   6.070  11.011 -0.7330  0.4189  0.6215
 8509TIP3    H249723   3.983   6.054  11.094  0.4808  1.4943 -0.9585
 8510TIP3   OH249724   1.790   6.583   8.746 -0.0728  0.9616 -0.8342
 8510TIP3    H149725   1.807   6.500   8.700 -2.3151 -0.6911  1.0859
 8510TIP3    H249726   1.832   6.572   8.831 -0.9643  1.5207 -0.3114
 8511TIP3   OH249727   2.874   5.020   8.691  0.1092  0.2310  0.2683
 8511TIP3    H149728   2.813   5.094   8.699  0.3340  0.6889 -1.7003
 8511TIP3    H249729   2.828   4.947   8.733 -1.6995  0.6349 -0.8745
 8512TIP3   OH249730   3.801   4.374  10.646  0.0521 -0.8343  0.2321
 8512TIP3    H149731   3.845   4.458  10.630 -0.0416 -0.9422 -0.6468
 8512TIP3    H249732   3.870   4.314  10.672  0.0832 -0.4240  1.1466
 8513TIP3   OH249733   3.415   5.996  10.213  0.4268 -0.0345 -0.3025
 8513TIP3    H149734   3.468   6.047  10.152  0.1071  1.0897  0.3194
 8513TIP3    H249735   3.326   6.029  10.200  0.1590 -0.6775 -0.1248
 8514TIP3   OH249736   3.039   0.313   9.521 -0.0691 -0.5190 -0.5221
 8514TIP3    H149737   3.110   0.297   9.584 -0.7130 -2.2132 -0.1667
 8514TIP3    H249738   3.022   0.227   9.482 -3.2851 -0.6790  0.9017
 8515TIP3   OH249739   4.743   1.070  11.528 -0.2530 -0.4613 -0.0369
 8515TIP3    H149740   4.760   1.075  11.622 -1.0065  0.7979  0.0545
 8515TIP3    H249741   4.813   1.014  11.494  1.7713  1.3496  0.8603
 8516TIP3   OH249742   5.818   0.772  11.462  0.0204 -0.0747 -0.6907
 8516TIP3    H149743   5.760   0.795  11.535  0.7984  0.5510 -0.2518
 8516TIP3    H249744   5.906   0.784  11.498  0.4143  0.5885 -1.8391
 8517TIP3   OH249745   1.384   5.570   8.706  0.0340  0.0689 -0.7565
 8517TIP3    H149746   1.363   5.476   8.708  0.3422  0.0109  1.2942
 8517TIP3    H249747   1.300   5.613   8.722  0.2853  0.0505  0.6841
 8518TIP3   OH249748   4.337   0.021  11.416  0.4498 -0.1646  0.6453
 8518TIP3    H149749   4.355   0.091  11.354  1.5224  0.6917  1.8966
 8518TIP3    H249750   4.404  -0.045  11.397  2.0790  0.9717  2.1683
 8519TIP3   OH249751   0.085   4.857   9.200 -0.2073  0.0432 -0.1072
 8519TIP3    H149752   0.136   4.910   9.138  0.4889  1.0771  1.2962
 8519TIP3    H249753   0.140   4.850   9.278 -1.8676  0.5663  1.1940
 8520TIP3   OH249754   3.482   3.054   9.140  1.1902 -0.4851  0.0011
 8520TIP3    H149755   3.529   3.131   9.107  0.7824  0.0247  0.5934
 8520TIP3    H249756   3.442   3.084   9.222  2.3124 -1.7771  1.0547
 8521TIP3   OH249757   4.904   5.322  11.030 -0.6207  0.1396  0.0651
 8521TIP3    H149758   4.917   5.254  11.097 -2.3493  0.0617  0.3725
 8521TIP3    H249759   4.966   5.299  10.960  0.2743 -0.5507  1.0471
 8522TIP3   OH249760   0.467   2.729   9.271  0.4668  0.3333 -0.5662
 8522TIP3    H149761   0.502   2.705   9.358  0.5601 -0.6159 -0.8502
 8522TIP3    H249762   0.543   2.764   9.224  0.5380  0.3454 -0.4436
 8523TIP3   OH249763   5.341   5.175   9.851 -0.4515 -0.2108 -0.3242
 8523TIP3    H149764   5.378   5.205   9.934 -4.2667 -0.3668  1.6977
 8523TIP3    H249765   5.370   5.085   9.843 -0.0704 -0.2173  0.9142
 8524TIP3   OH249766   3.332   0.688   9.363 -0.4485 -0.2206  0.3754
 8524TIP3    H149767   3.388   0.675   9.439 -1.8826  0.7258  1.6629
 8524TIP3    H249768   3.315   0.782   9.362 -1.8721 -0.4557 -0.0337
 8525TIP3   OH249769   2.585   0.055  11.372 -0.4837  0.0446 -0.5420
 8525TIP3    H149770   2.523   0.126  11.352 -0.2890  0.0374 -1.1828
 8525TIP3    H249771   2.664   0.077  11.322  0.5546  0.7892  1.3162
 8526TIP3   OH249772   4.858   0.707  10.537  0.4507  0.1474  0.1827
 8526TIP3    H149773   4.777   0.691  10.489 -0.1506 -1.5644  1.6583
 8526TIP3    H249774   4.830   0.752  10.617  0.8891 -0.7477  0.8535
 8527TIP3   OH249775   6.485   2.011  10.117  0.0288  0.3502  0.6278
 8527TIP3    H149776   6.411   1.997  10.058  0.6466  0.5650 -0.2179
 8527TIP3    H249777   6.553   1.952  10.086 -0.1138 -0.6076  2.0345
 8528TIP3   OH249778   1.174   2.940  11.518 -0.4296 -0.6798  0.0777
 8528TIP3    H149779   1.175   2.967  11.426 -0.9785 -0.3727  0.1616
 8528TIP3    H249780   1.185   3.022  11.567  3.2372 -1.1115  0.2614
 8529TIP3   OH249781   3.881   2.007   9.051  0.3370  0.1886  0.2928
 8529TIP3    H149782   3.811   2.072   9.049 -0.5725 -0.7751  0.0296
 8529TIP3    H249783   3.882   1.975   9.142 -0.3410 -0.5981  0.0372
 8530TIP3   OH249784   0.449   4.175  11.069  0.4049 -0.4867  0.7471
 8530TIP3    H149785   0.413   4.103  11.121 -0.1935 -0.7404  0.0102
 8530TIP3    H249786   0.540   4.151  11.055 -0.0305 -1.6401 -0.3348
 8531TIP3   OH249787   3.850   3.757  10.497 -0.0224  0.1370  0.7557
 8531TIP3    H149788   3.874   3.837  10.450 -1.9905  0.8723  0.9200
 8531TIP3    H249789   3.839   3.785  10.587  0.9966 -0.7197  1.1729
 8532TIP3   OH249790   3.695   1.970  11.267  0.0202 -0.1336  0.2310
 8532TIP3    H149791   3.749   1.991  11.343  1.3755 -1.8319 -0.1849
 8532TIP3    H249792   3.643   1.894  11.295 -1.3232  0.7519  0.2305
 8533TIP3   OH249793   0.986   3.068   8.302 -0.0434  0.3427 -0.0784
 8533TIP3    H149794   1.067   3.069   8.353  0.8291 -0.6961 -1.3685
 8533TIP3    H249795   0.953   3.158   8.308  2.6936  1.6224 -1.7712
 8534TIP3   OH249796   0.756   3.124   9.497 -0.0162 -0.4566  0.0702
 8534TIP3    H149797   0.736   3.210   9.460 -0.5322  0.4872  2.3468
 8534TIP3    H249798   0.828   3.091   9.443  0.8478  1.8375 -0.2945
 8535TIP3   OH249799   5.068   3.614  11.699  0.1371 -0.6175 -0.1503
 8535TIP3    H149800   5.034   3.682  11.641  1.5047  1.1450  0.9631
 8535TIP3    H249801   5.152   3.590  11.661  0.6744 -0.0300  0.6218
 8536TIP3   OH249802   6.123   2.588   8.728 -0.2697  0.3749 -0.4629
 8536TIP3    H149803   6.123   2.514   8.667  0.2674  0.6998 -0.8741
 8536TIP3    H249804   6.033   2.619   8.729 -0.7917 -1.1203  0.7608
 8537TIP3   OH249805   3.441   4.391  11.032 -0.3662 -0.1627  0.1861
 8537TIP3    H149806   3.489   4.315  11.066  0.0782  0.5449  1.1706
 8537TIP3    H249807   3.509   4.448  10.996 -0.3094  1.2102  2.2793
 8538TIP3   OH249808   3.327   2.758   9.381  0.9480  0.0163  0.3544
 8538TIP3    H149809   3.294   2.668   9.381  0.3844  0.2148 -0.2941
 8538TIP3    H249810   3.422   2.748   9.378  0.9090 -0.5568  0.7589
 8539TIP3   OH249811   1.536   5.167   8.963 -0.2118  0.6550 -0.8512
 8539TIP3    H149812   1.503   5.141   9.048  0.0398  2.9161 -0.0042
 8539TIP3    H249813   1.467   5.143   8.901 -0.9705  0.1987  0.1572
 8540TIP3   OH249814   0.297   4.357   8.604 -0.1566  0.2974  0.2912
 8540TIP3    H149815   0.358   4.325   8.671  0.1715  0.4323  0.0616
 8540TIP3    H249816   0.235   4.285   8.591  0.7547 -0.3856 -0.4308
 8541TIP3   OH249817   4.911   6.008  10.808  0.6016 -0.0291  0.0576
 8541TIP3    H149818   4.955   5.989  10.725 -0.4742 -1.1842 -0.2951
 8541TIP3    H249819   4.937   6.097  10.830  0.6282  0.4362 -1.7118
 8542TIP3   OH249820   1.444   1.612  10.855 -0.2812  0.0666  0.3378
 8542TIP3    H149821   1.484   1.546  10.912  0.9532  1.2324  0.8845
 8542TIP3    H249822   1.515   1.673  10.835 -1.4153  1.3304 -0.0013
 8543TIP3   OH249823   5.090   0.016  10.089  0.6743  0.1175  0.0602
 8543TIP3    H149824   5.041  -0.028  10.158  0.5420 -0.0956 -0.1718
 8543TIP3    H249825   5.166   0.054  10.134  1.0223 -0.7161  0.1889
 8544TIP3   OH249826   1.815   0.649  11.356  0.3920 -0.2606 -0.1250
 8544TIP3    H149827   1.906   0.619  11.361  0.9592  0.8199 -2.3861
 8544TIP3    H249828   1.770   0.581  11.306  0.5926  0.3580 -1.1918
 8545TIP3   OH249829   0.490   0.711  11.554 -0.2221 -0.3703  0.5389
 8545TIP3    H149830   0.516   0.747  11.639 -0.7463 -0.0652  0.5757
 8545TIP3    H249831   0.546   0.634  11.543 -0.8504 -1.0188  1.6360
 8546TIP3   OH249832   0.156   2.378  11.061  0.4592 -0.0301  0.0070
 8546TIP3    H149833   0.136   2.393  11.153 -0.1655 -0.9862  0.0389
 8546TIP3    H249834   0.086   2.424  11.014  1.6773  1.8667 -0.0726
 8547TIP3   OH249835   4.440   6.605  10.578 -0.5833 -0.4099  0.1643
 8547TIP3    H149836   4.368   6.623  10.517 -0.5458 -1.3273 -0.1756
 8547TIP3    H249837   4.490   6.535  10.535 -2.1733 -3.1950  2.4944
 8548TIP3   OH249838   2.556   4.778   9.943 -0.4029 -0.4378 -0.2651
 8548TIP3    H149839   2.598   4.695   9.922  1.8008  0.7611 -0.9499
 8548TIP3    H249840   2.617   4.821  10.003 -0.8195  1.2396 -0.9932
 8549TIP3   OH249841   5.236   1.182   9.966 -0.1773 -0.2255  0.0527
 8549TIP3    H149842   5.196   1.165  10.051  0.1313 -1.1405  0.0317
 8549TIP3    H249843   5.163   1.204   9.909 -0.5038 -0.5685  0.3287
 8550TIP3   OH249844   5.077   0.151  17.761 -0.1913  0.2822  0.2049
 8550TIP3    H149845   5.125   0.069  17.766 -1.1988 -0.4653 -1.5288
 8550TIP3    H249846   5.018   0.150  17.837  2.0393  0.9816  2.0665
 8551TIP3   OH249847   4.180   5.333  11.404 -0.3129 -0.1879  0.2407
 8551TIP3    H149848   4.101   5.351  11.456  0.6572  0.6126  1.5052
 8551TIP3    H249849   4.201   5.241  11.421 -1.3911 -0.6411 -0.7372
 8552TIP3   OH249850   3.644   0.962   8.715 -0.1477 -0.8100 -0.1093
 8552TIP3    H149851   3.717   0.910   8.682  2.0980  0.4479  2.3977
 8552TIP3    H249852   3.666   1.052   8.692 -0.7658 -0.3799  0.8796
 8553TIP3   OH249853   3.198   2.107   8.385 -0.0419  0.4280  0.7875
 8553TIP3    H149854   3.175   2.196   8.357 -0.0827  0.0369 -0.4978
 8553TIP3    H249855   3.255   2.120   8.461 -0.1218  1.5520  0.6744
 8554TIP3   OH249856   4.502   0.861  11.480 -0.3313  0.2936  0.3459
 8554TIP3    H149857   4.504   0.779  11.431  1.1286  0.4429  0.1031
 8554TIP3    H249858   4.581   0.858  11.534 -1.4484  0.5147  2.0818
 8555TIP3   OH249859   5.301   0.703  11.035 -0.2595 -0.3181  0.5314
 8555TIP3    H149860   5.284   0.779  10.979 -0.6178 -0.3855  0.5469
 8555TIP3    H249861   5.219   0.653  11.033 -0.6907  0.2776  2.0640
 8556TIP3   OH249862   0.725   6.551   8.606  1.2602 -0.1393  0.0191
 8556TIP3    H149863   0.700   6.590   8.689  1.0025  1.4666 -0.7666
 8556TIP3    H249864   0.691   6.462   8.609 -2.6759  1.1727 -0.0727
 8557TIP3   OH249865   2.901   1.828  10.312  0.2288 -0.2984  0.0364
 8557TIP3    H149866   2.836   1.758  10.304  0.9001 -0.6850 -4.7839
 8557TIP3    H249867   2.850   1.909  10.305 -0.0793 -0.4749  0.2159
 8558TIP3   OH249868   3.395   5.503  10.374 -0.1181 -0.6894 -0.2630
 8558TIP3    H149869   3.328   5.441  10.345  0.9867 -1.4122 -1.3977
 8558TIP3    H249870   3.349   5.563  10.432 -1.1232 -2.8595  1.3120
 8559TIP3   OH249871   5.155   4.410  11.070  0.0290  0.7244  0.3626
 8559TIP3    H149872   5.159   4.441  11.161  0.2876  0.6135  0.3904
 8559TIP3    H249873   5.089   4.340  11.072  1.7388 -0.9566  0.9834
 8560TIP3   OH249874   1.009   5.484   9.536  0.1037  0.0759  0.1692
 8560TIP3    H149875   1.053   5.508   9.454  0.1775  1.2011  0.5179
 8560TIP3    H249876   1.065   5.417   9.575 -0.8888 -1.8682 -1.5626
 8561TIP3   OH249877   1.370   1.899  10.730 -0.3470  0.7555  0.2344
 8561TIP3    H149878   1.299   1.857  10.681 -2.7375  1.8637  2.5270
 8561TIP3    H249879   1.424   1.940  10.662 -1.7233 -0.3335 -1.6151
 8562TIP3   OH249880   3.324   3.869  18.896  0.4612  0.1455 -0.3132
 8562TIP3    H149881   3.388   3.880  18.826  0.6514  0.1138 -0.1441
 8562TIP3    H249882   3.242   3.901  18.858  0.8266  1.3408 -0.1160
 8563TIP3   OH249883   5.573   5.665  10.399  0.3594 -0.2361  0.4204
 8563TIP3    H149884   5.511   5.596  10.420  0.7793 -0.7903 -0.1089
 8563TIP3    H249885   5.657   5.632  10.433  0.7751 -0.5098 -0.8123
 8564TIP3   OH249886   1.177   1.879  11.815 -0.0851  0.2012 -0.0431
 8564TIP3    H149887   1.098   1.825  11.807 -0.8102  1.2150  0.0572
 8564TIP3    H249888   1.146   1.961  11.853  1.1062  0.4421  0.4511
 8565TIP3   OH249889   2.934   5.762   9.376  0.2393  0.2674  0.4903
 8565TIP3    H149890   2.968   5.851   9.369  1.9840 -0.3460  0.7565
 8565TIP3    H249891   2.849   5.772   9.420  1.1644  1.6409  2.0560
 8566TIP3   OH249892   3.187   1.158  10.870  0.0267  0.0163 -0.5873
 8566TIP3    H149893   3.190   1.160  10.966  0.7722 -0.1929 -0.6025
 8566TIP3    H249894   3.153   1.244  10.845 -0.1855  0.0641 -0.1335
 8567TIP3   OH249895   4.463   3.327   8.800 -0.2202  0.0954 -0.5471
 8567TIP3    H149896   4.429   3.318   8.711 -1.1501  1.2083 -0.3202
 8567TIP3    H249897   4.425   3.409   8.833 -1.1854 -1.0747  1.4507
 8568TIP3   OH249898   5.100   1.277  10.620 -0.1497  0.0426  0.1764
 8568TIP3    H149899   5.082   1.222  10.544 -3.2318  0.7049  0.2718
 8568TIP3    H249900   5.063   1.363  10.597 -0.1018  0.5907  1.9589
 8569TIP3   OH249901   1.277   5.956   9.945  0.1921  0.1354 -0.0670
 8569TIP3    H149902   1.251   5.873   9.984 -0.6095  0.0300 -0.8025
 8569TIP3    H249903   1.234   6.022   9.999 -0.6947 -0.0004 -0.5977
 8570TIP3   OH249904   4.790   5.817   8.941 -0.4826 -0.2644 -0.6208
 8570TIP3    H149905   4.835   5.795   9.023 -1.0957 -1.7899 -0.6763
 8570TIP3    H249906   4.722   5.751   8.931 -0.0596 -0.4749 -2.6644
 8571TIP3   OH249907   4.756   4.819  10.131  0.1488  0.0408 -0.2164
 8571TIP3    H149908   4.748   4.902  10.086  1.4817  0.2181 -0.1785
 8571TIP3    H249909   4.786   4.758  10.064  0.9659  0.0327  0.1366
 8572TIP3   OH249910   1.547   6.418  12.426 -0.5121 -0.3772 -0.0307
 8572TIP3    H149911   1.478   6.483  12.414  0.4056  0.4872 -0.8376
 8572TIP3    H249912   1.577   6.397  12.338 -2.4829 -3.8963 -0.0499
 8573TIP3   OH249913   0.436   2.167  10.771 -0.4165  0.1313  0.5848
 8573TIP3    H149914   0.420   2.224  10.845  0.1155 -0.6378  1.3103
 8573TIP3    H249915   0.524   2.133  10.785 -0.1041  0.3745 -0.6755
 8574TIP3   OH249916   1.419   0.360  10.059  0.1078 -0.0430 -0.1458
 8574TIP3    H149917   1.338   0.347  10.108  0.0824  2.0212  0.4600
 8574TIP3    H249918   1.390   0.371   9.968 -0.1727 -0.3326 -0.0944
 8575TIP3   OH249919   3.314   3.223   8.107  0.2671  0.5168  0.1350
 8575TIP3    H149920   3.220   3.212   8.126  0.2808  1.4675  0.8390
 8575TIP3    H249921   3.316   3.263   8.020 -0.0886  2.1240  0.8148
 8576TIP3   OH249922   2.338   2.710   8.450  0.8240  0.1490 -0.0499
 8576TIP3    H149923   2.328   2.800   8.420  0.2617 -0.0494 -0.4747
 8576TIP3    H249924   2.248   2.679   8.464  0.9359 -0.7504 -1.1580
 8577TIP3   OH249925   0.366   5.813   9.981  0.0905  0.8358 -0.3547
 8577TIP3    H149926   0.459   5.833   9.978 -0.0445  1.7734  0.7853
 8577TIP3    H249927   0.323   5.890   9.945 -0.2569  0.5605 -0.5346
 8578TIP3   OH249928   0.963   5.204  10.876  0.0121 -0.1439 -0.8632
 8578TIP3    H149929   1.030   5.272  10.876 -0.9170  0.7957 -0.2468
 8578TIP3    H249930   0.911   5.221  10.797 -1.7804  1.5027  0.5626
 8579TIP3   OH249931   0.428   1.392  11.519 -0.0338  0.2281 -0.1019
 8579TIP3    H149932   0.521   1.403  11.541 -0.0308 -0.0379  0.0232
 8579TIP3    H249933   0.393   1.337  11.589  0.1972 -1.4612 -1.2656
 8580TIP3   OH249934   5.652   5.971  10.702  0.2085 -0.4593  0.2651
 8580TIP3    H149935   5.631   5.995  10.612 -1.2201 -0.1903  0.6527
 8580TIP3    H249936   5.697   5.887  10.694  2.8461  0.9061 -0.9059
 8581TIP3   OH249937   4.632   6.193  11.527 -0.1585  0.6901  0.4518
 8581TIP3    H149938   4.683   6.114  11.544 -0.2141  0.0975 -1.7774
 8581TIP3    H249939   4.542   6.170  11.551 -0.0340  0.3751  0.6146
 8582TIP3   OH249940   1.972   2.148  10.111  0.8054  0.2869  0.4965
 8582TIP3    H149941   1.981   2.241  10.092 -0.5449  0.6300  1.4051
 8582TIP3    H249942   1.895   2.120  10.062  2.4101 -0.8973 -1.4906
 8583TIP3   OH249943   3.166   5.851  11.111 -0.5371  0.4655 -0.0564
 8583TIP3    H149944   3.085   5.900  11.121 -0.5301  0.2527  1.1392
 8583TIP3    H249945   3.229   5.897  11.166  0.2014  0.6946 -1.0566
 8584TIP3   OH249946   2.216   3.221  10.216  0.4077  0.3101 -0.7568
 8584TIP3    H149947   2.239   3.175  10.135  0.2979  0.7784 -1.0546
 8584TIP3    H249948   2.276   3.185  10.281 -0.6769 -1.3756 -0.6276
 8585TIP3   OH249949   4.560   5.634   8.715 -0.2412  0.6973  0.2620
 8585TIP3    H149950   4.594   5.718   8.683  1.4654  0.2559  0.8496
 8585TIP3    H249951   4.465   5.641   8.703 -0.1033  2.5729 -0.0102
 8586TIP3   OH249952   4.329   5.289   8.934  0.0172  0.1183 -0.3398
 8586TIP3    H149953   4.356   5.279   9.025 -2.3632 -1.5443  0.2795
 8586TIP3    H249954   4.383   5.226   8.886 -0.5829 -0.9864  0.3892
 8587TIP3   OH249955   2.266   4.054   8.921  0.1053 -0.0683  0.2538
 8587TIP3    H149956   2.211   3.976   8.919  0.3274 -0.2350 -1.7298
 8587TIP3    H249957   2.333   4.037   8.855  2.1265  0.4365  2.0534
 8588TIP3   OH249958   0.113   3.931   8.199  0.2132 -1.2362 -0.4561
 8588TIP3    H149959   0.158   3.907   8.280  0.6893 -1.5812 -0.8174
 8588TIP3    H249960   0.160   3.883   8.130 -1.0927 -2.0957 -0.7773
 8589TIP3   OH249961   1.385   5.902   9.698  0.3311 -0.1956  0.2285
 8589TIP3    H149962   1.355   5.949   9.776 -0.7880 -0.4529 -0.0365
 8589TIP3    H249963   1.480   5.894   9.711  0.3568  0.9201  0.9288
 8590TIP3   OH249964   5.845   1.883   9.812 -0.3655 -0.5725 -0.4669
 8590TIP3    H149965   5.799   1.877   9.896  1.2203  0.3489  0.5416
 8590TIP3    H249966   5.902   1.806   9.810 -1.3700 -1.3226 -1.3689
 8591TIP3   OH249967   3.908   3.222   9.681 -0.1649  0.4475 -0.3611
 8591TIP3    H149968   3.873   3.269   9.757  0.0580  1.0545 -0.6227
 8591TIP3    H249969   3.870   3.269   9.606  1.8390  1.6778 -0.6813
 8592TIP3   OH249970   3.378   4.999  10.334  0.0608  0.1104  0.3317
 8592TIP3    H149971   3.363   4.983  10.427 -0.6851  2.8408  0.7652
 8592TIP3    H249972   3.297   4.969  10.291 -0.9402  1.7204  0.9933
 8593TIP3   OH249973   4.971   6.225   8.800  0.6131 -0.4019 -0.3745
 8593TIP3    H149974   4.961   6.164   8.726 -3.7948 -0.8977  0.3103
 8593TIP3    H249975   4.977   6.168   8.877 -2.7166 -0.1949  0.1937
 8594TIP3   OH249976   3.342   0.276   8.634  0.5976 -0.6231 -0.3747
 8594TIP3    H149977   3.323   0.267   8.727  0.0361 -0.6867 -0.4920
 8594TIP3    H249978   3.422   0.327   8.630 -0.5975  1.3956  0.0904
 8595TIP3   OH249979   2.739   6.310  10.662 -0.3900  0.6964 -0.3344
 8595TIP3    H149980   2.793   6.378  10.703 -0.0385  0.3745 -0.2552
 8595TIP3    H249981   2.658   6.310  10.712  0.4512 -0.4673  1.1332
 8596TIP3   OH249982   4.827   3.317  10.644 -0.0548 -0.1803  0.1782
 8596TIP3    H149983   4.810   3.380  10.714  0.2288  2.1754 -1.7539
 8596TIP3    H249984   4.894   3.259  10.680  1.1342  1.8437  1.3859
 8597TIP3   OH249985   3.808   6.397  12.560  0.2448  0.0933  0.1812
 8597TIP3    H149986   3.852   6.442  12.488 -0.6349 -0.0546 -0.4683
 8597TIP3    H249987   3.767   6.321  12.519  0.8708 -0.7512  1.0878
 8598TIP3   OH249988   1.075   3.640   9.690 -0.0616  0.2468 -0.5787
 8598TIP3    H149989   1.147   3.649   9.627  0.2259 -1.8011 -0.6167
 8598TIP3    H249990   1.115   3.658   9.775  0.2225  0.2871 -0.7196
 8599TIP3   OH249991   5.991   6.604  10.155  0.3307 -0.1333  0.0295
 8599TIP3    H149992   6.035   6.667  10.212 -0.2567  0.2508  0.0743
 8599TIP3    H249993   6.062   6.552  10.117  1.0471  1.9021 -1.6449
 8600TIP3   OH249994   4.944   6.277  10.850 -0.2984 -0.1320 -0.1448
 8600TIP3    H149995   4.913   6.313  10.933  0.8095 -2.5034  1.4210
 8600TIP3    H249996   5.000   6.345  10.813 -1.4654  1.2894  0.6098
 8601TIP3   OH249997   1.847   4.112   9.591  0.1421 -0.5670 -0.3066
 8601TIP3    H149998   1.853   4.088   9.499  1.8848 -1.2816 -0.0362
 8601TIP3    H249999   1.869   4.205   9.593 -1.1737 -0.2216 -0.7263
 8602TIP3   OH250000   3.968   3.512  10.953  0.9729  0.1445  0.2782
 8602TIP3    H150001   3.975   3.444  11.020  1.1532 -0.8514 -0.7018
 8602TIP3    H250002   3.999   3.592  10.995  1.8665 -0.6197  1.1221
 8603TIP3   OH250003   5.237   5.634   9.833 -0.5423 -0.1630  0.1610
 8603TIP3    H150004   5.214   5.709   9.777 -1.0031 -0.5324 -0.1462
 8603TIP3    H250005   5.318   5.661   9.876 -0.3026  0.2227 -0.5139
 8604TIP3   OH250006   5.915   3.764   8.934 -0.2841  0.1097  0.0867
 8604TIP3    H150007   5.890   3.856   8.946  0.1344  0.3873 -1.0286
 8604TIP3    H250008   5.979   3.748   9.003 -0.5761  0.5575  0.4769
 8605TIP3   OH250009   4.798   0.721  11.580  0.2339  0.3585  0.2615
 8605TIP3    H150010   4.840   0.640  11.609  0.7056  0.2730 -0.6262
 8605TIP3    H250011   4.714   0.722  11.626 -0.5824 -1.5572 -1.0391
 8606TIP3   OH250012   3.631   2.350  10.197 -0.0731 -0.0719  0.7332
 8606TIP3    H150013   3.725   2.357  10.179 -0.3053 -0.1510 -0.5776
 8606TIP3    H250014   3.600   2.281  10.138 -1.0268  0.2150  0.8778
 8607TIP3   OH250015   0.556   4.585   9.048 -0.2645  0.2723 -0.5993
 8607TIP3    H150016   0.617   4.524   9.007  1.5122  1.6975 -0.2421
 8607TIP3    H250017   0.587   4.592   9.139  0.1292  2.2616 -0.8259
 8608TIP3   OH250018   1.660   1.135  10.960  0.2457 -0.1149 -0.2325
 8608TIP3    H150019   1.606   1.167  10.887 -0.4419  1.6776  0.9844
 8608TIP3    H250020   1.597   1.104  11.025  0.7195  0.5137  0.5507
 8609TIP3   OH250021   2.983   2.170  10.644  0.1603  0.3092 -0.1942
 8609TIP3    H150022   2.994   2.204  10.555  2.6540  0.8041  0.2290
 8609TIP3    H250023   3.003   2.077  10.637  2.9752  0.7849  0.1669
 8610TIP3   OH250024   5.764   2.804   9.167  0.4107  0.5102 -0.4993
 8610TIP3    H150025   5.678   2.846   9.166  0.2527  0.3111  1.6697
 8610TIP3    H250026   5.825   2.873   9.143 -0.1346  1.2635  0.2548
 8611TIP3   OH250027   1.693   4.789  10.200 -0.3777 -0.2136  0.0925
 8611TIP3    H150028   1.723   4.878  10.218 -1.5528  0.3880 -0.7991
 8611TIP3    H250029   1.733   4.768  10.115 -0.7519 -0.2229 -0.0811
 8612TIP3   OH250030   3.663   5.140  10.594 -0.9968  0.1907 -0.3111
 8612TIP3    H150031   3.659   5.234  10.573  1.8833  0.7149  0.9555
 8612TIP3    H250032   3.689   5.098  10.512 -1.9165  0.5284 -0.7908
 8613TIP3   OH250033   0.380   1.382  10.604 -0.0868  0.2740 -0.1454
 8613TIP3    H150034   0.441   1.453  10.625 -1.1182  1.1456 -0.0489
 8613TIP3    H250035   0.406   1.311  10.662 -0.0875  1.1345  0.9433
 8614TIP3   OH250036   5.082   4.954   9.269 -0.8568  0.0799 -0.0446
 8614TIP3    H150037   5.062   5.048   9.274 -0.4193  0.2935 -1.8795
 8614TIP3    H250038   5.019   4.914   9.329 -1.5774  1.4562  0.1730
 8615TIP3   OH250039   6.339   2.892   8.207  0.0132 -0.1506  0.1955
 8615TIP3    H150040   6.268   2.954   8.223 -1.2445 -1.5564  0.1797
 8615TIP3    H250041   6.419   2.945   8.215 -0.9588  1.2014  1.4600
 8616TIP3   OH250042   0.527   1.224  11.864  0.0373 -0.2223 -0.0594
 8616TIP3    H150043   0.437   1.193  11.851  0.5393 -0.8948 -2.4728
 8616TIP3    H250044   0.577   1.181  11.795  1.7867  1.9411 -0.2414
 8617TIP3   OH250045   4.068   3.305  11.677 -0.3218 -0.7102  0.1263
 8617TIP3    H150046   4.101   3.385  11.637  0.7661  0.6471  3.3671
 8617TIP3    H250047   4.147   3.255  11.698 -0.9164 -1.9097 -0.4286
 8618TIP3   OH250048   6.184   4.118   9.133  0.2866 -0.0151  0.2486
 8618TIP3    H150049   6.196   4.197   9.186 -0.4893 -0.2602  0.8055
 8618TIP3    H250050   6.271   4.078   9.129  0.4085  0.1494  1.1079
 8619TIP3   OH250051   0.371   5.909   8.683  0.1280 -0.0002  0.6210
 8619TIP3    H150052   0.358   5.821   8.717  1.8674 -0.6096 -0.2074
 8619TIP3    H250053   0.464   5.914   8.663  0.0707  2.0423  0.6646
 8620TIP3   OH250054   3.326   5.748  10.133 -0.3696 -0.3257  0.1841
 8620TIP3    H150055   3.351   5.823  10.186 -1.3819  0.6562 -0.6897
 8620TIP3    H250056   3.372   5.761  10.050 -0.2759 -0.8708  0.1441
 8621TIP3   OH250057   1.314   2.401   9.606 -0.1171  0.2445  0.2390
 8621TIP3    H150058   1.341   2.416   9.696 -0.8280  0.3276  0.4463
 8621TIP3    H250059   1.348   2.314   9.585 -1.6677 -0.6763  1.2898
 8622TIP3   OH250060   4.998   2.019  11.229  0.0464 -0.0755  0.1484
 8622TIP3    H150061   5.006   2.113  11.211  1.2425 -0.3956 -1.1827
 8622TIP3    H250062   4.905   2.000  11.218  0.3123  0.1756 -4.0985
 8623TIP3   OH250063   3.928   1.000   8.491  0.0933  0.2582  0.5839
 8623TIP3    H150064   3.965   0.965   8.410 -0.0328  0.1489  0.5736
 8623TIP3    H250065   3.884   0.925   8.532 -1.0358  0.6148  0.0754
 8624TIP3   OH250066   5.689   5.150  10.767 -0.1636  0.4826  0.0634
 8624TIP3    H150067   5.655   5.076  10.717 -2.4282  1.8465 -0.5432
 8624TIP3    H250068   5.745   5.110  10.834 -0.8723 -1.7105 -0.5734
 8625TIP3   OH250069   2.728   3.633   8.546  0.2618  0.6120 -0.6191
 8625TIP3    H150070   2.741   3.598   8.634  0.4847  1.2928 -0.3830
 8625TIP3    H250071   2.788   3.582   8.491 -0.0077  0.0630 -0.4165
 8626TIP3   OH250072   4.399   4.802  10.419 -0.0628  0.2777  0.5033
 8626TIP3    H150073   4.465   4.733  10.414 -1.8805 -1.5396 -0.2481
 8626TIP3    H250074   4.442   4.880  10.386  1.8188 -0.7271  0.4672
 8627TIP3   OH250075   1.284   3.753   8.749 -0.1141 -0.1562  0.6649
 8627TIP3    H150076   1.249   3.772   8.837 -1.7577  1.9460 -0.3375
 8627TIP3    H250077   1.326   3.834   8.722  1.0656 -1.0355 -0.2076
 8628TIP3   OH250078   1.112   4.190  10.234 -0.3862  0.3216 -0.3926
 8628TIP3    H150079   1.194   4.201  10.186  0.3776  1.6397  1.1299
 8628TIP3    H250080   1.064   4.271  10.218  1.1476  2.1836  3.2533
 8629TIP3   OH250081   2.642   4.104  10.613 -0.2876 -0.6143  0.0150
 8629TIP3    H150082   2.663   4.136  10.700  0.8922 -0.6571 -0.2433
 8629TIP3    H250083   2.660   4.010  10.617  1.1248 -0.3981 -0.6462
 8630TIP3   OH250084   2.862   2.833  11.061 -0.2081  0.4088  0.1062
 8630TIP3    H150085   2.810   2.883  10.998  0.7380  1.3982  0.0903
 8630TIP3    H250086   2.911   2.899  11.110  0.1909 -0.4393  0.8749
 8631TIP3   OH250087   1.448   6.209  11.366 -0.0767 -0.8806 -0.0484
 8631TIP3    H150088   1.390   6.274  11.407  0.6377 -1.4169  1.9144
 8631TIP3    H250089   1.388   6.141  11.334 -0.7462  0.1750 -1.1226
 8632TIP3   OH250090   2.434   6.575  10.784 -0.1530 -0.1681 -0.0846
 8632TIP3    H150091   2.357   6.621  10.817 -0.7795 -0.4331 -1.1609
 8632TIP3    H250092   2.410   6.547  10.696  1.0269 -0.6139 -0.2791
 8633TIP3   OH250093   2.737   4.992   9.218  0.1529 -0.1042 -0.1461
 8633TIP3    H150094   2.718   5.085   9.231 -4.8268 -0.4128 -2.6851
 8633TIP3    H250095   2.722   4.952   9.303  0.5355  1.2006  0.5589
 8634TIP3   OH250096   5.327   6.117   9.938  0.7090 -1.0871 -0.1768
 8634TIP3    H150097   5.232   6.130   9.936  0.9083  0.6404  0.3045
 8634TIP3    H250098   5.346   6.090  10.028  0.6278 -1.9651 -0.4140
 8635TIP3   OH250099   2.012   0.568   9.006 -0.0621  0.2288 -0.2980
 8635TIP3    H150100   2.099   0.580   9.044 -0.4346  1.1254  0.2860
 8635TIP3    H250101   1.952   0.607   9.069 -0.8967 -0.3372 -0.7214
 8636TIP3   OH250102   1.883   5.905   9.781  0.1451  0.1768  0.1490
 8636TIP3    H150103   1.796   5.907   9.742 -0.5086  0.4350  1.5321
 8636TIP3    H250104   1.930   5.978   9.741 -0.8789  1.1486  0.6412
 8637TIP3   OH250105   4.318   1.327  10.110 -0.2282  0.1336 -0.4836
 8637TIP3    H150106   4.369   1.386  10.166 -0.1449 -1.0186  0.7257
 8637TIP3    H250107   4.362   1.329  10.025  1.7060 -0.5984  0.4337
 8638TIP3   OH250108   0.827   1.547  10.896 -0.0888  0.5525  0.1821
 8638TIP3    H150109   0.824   1.641  10.915  0.0621  0.5461  0.2437
 8638TIP3    H250110   0.761   1.509  10.954 -0.7890  0.7245 -0.4994
 8639TIP3   OH250111   4.099   5.036  10.815 -0.2929  0.5255  0.4098
 8639TIP3    H150112   4.134   4.987  10.740  1.1308 -0.1622  1.4667
 8639TIP3    H250113   4.149   5.117  10.816  1.5972 -0.5606  2.0660
 8640TIP3   OH250114   0.405   6.204  10.825  0.0941  0.2618 -0.7031
 8640TIP3    H150115   0.389   6.283  10.876 -0.5693 -0.1093 -0.3096
 8640TIP3    H250116   0.496   6.182  10.842 -0.2334 -0.1073  0.7168
 8641TIP3   OH250117   2.378   3.074  10.416  0.0854 -0.2781 -0.0943
 8641TIP3    H150118   2.467   3.040  10.416  0.5614  0.8875  0.4802
 8641TIP3    H250119   2.377   3.138  10.488 -1.1118 -0.0278 -0.3058
 8642TIP3   OH250120   6.042   1.215   9.263 -0.6471  0.1175  0.2866
 8642TIP3    H150121   6.081   1.143   9.312  0.9142  0.8004  0.1068
 8642TIP3    H250122   6.029   1.180   9.175  4.7836  1.2953 -1.3511
 8643TIP3   OH250123   6.225   5.202   8.946 -0.3829 -0.1725  0.0121
 8643TIP3    H150124   6.163   5.239   8.884 -0.0552 -0.4922 -0.5148
 8643TIP3    H250125   6.254   5.120   8.905  0.5568  0.0780  0.1414
 8644TIP3   OH250126   0.285   3.285   9.874 -0.0047  0.4176  0.3931
 8644TIP3    H150127   0.332   3.264   9.793 -1.2258  0.7942 -0.4418
 8644TIP3    H250128   0.251   3.200   9.904 -0.0688  0.3666  0.1802
 8645TIP3   OH250129   5.525   0.602   9.392 -0.4134 -0.0171  0.4240
 8645TIP3    H150130   5.601   0.560   9.353 -0.1473 -0.9073  1.8312
 8645TIP3    H250131   5.557   0.688   9.419 -0.7143  0.7887 -1.6119
 8646TIP3   OH250132   3.689   1.415   9.910 -0.0720  0.0539 -0.2161
 8646TIP3    H150133   3.711   1.351   9.842 -0.1053  0.7187 -0.8685
 8646TIP3    H250134   3.593   1.420   9.907 -0.2111 -1.2038  1.1030
 8647TIP3   OH250135   2.491   0.736   9.092 -0.4991  0.3506  0.0678
 8647TIP3    H150136   2.457   0.823   9.112 -1.8764 -0.1083 -0.1737
 8647TIP3    H250137   2.535   0.746   9.008 -0.8942  0.7591 -0.0949
 8648TIP3   OH250138   0.986   4.233  11.929  1.0215 -0.0045  0.1452
 8648TIP3    H150139   0.992   4.179  11.850 -1.5149 -1.0104  0.5301
 8648TIP3    H250140   0.913   4.293  11.911  1.9930  1.4468  0.8212
 8649TIP3   OH250141   1.178   2.092  10.805  0.1606  0.4317  0.2555
 8649TIP3    H150142   1.146   2.082  10.894 -0.5542 -2.3450 -0.2396
 8649TIP3    H250143   1.260   2.043  10.802 -0.8694 -1.3287 -1.0722
 8650TIP3   OH250144   2.314   2.818  11.403  0.3607 -0.0245  0.0033
 8650TIP3    H150145   2.322   2.837  11.496  1.2597  1.7053 -0.3863
 8650TIP3    H250146   2.274   2.897  11.365  2.4090  0.4075 -1.4254
 8651TIP3   OH250147   3.650   4.074   9.713  0.4110 -0.3637  0.4250
 8651TIP3    H150148   3.607   4.050   9.630 -0.1516  2.0026 -0.0457
 8651TIP3    H250149   3.742   4.086   9.689  0.3650 -0.3129  0.2684
 8652TIP3   OH250150   1.092   4.268   8.954  0.5680  0.0346 -0.0410
 8652TIP3    H150151   1.118   4.324   8.881  1.3547  0.5377  0.6112
 8652TIP3    H250152   1.149   4.294   9.026 -0.1552 -0.4991  0.7441
 8653TIP3   OH250153   5.016   6.566  11.271 -0.0901 -0.0860  0.2143
 8653TIP3    H150154   4.988   6.657  11.288  0.3302  0.2625 -0.8876
 8653TIP3    H250155   5.044   6.534  11.356  0.0697  0.9339  0.5651
 8654TIP3   OH250156   2.001   5.901  11.084 -0.5066  0.1276 -0.5173
 8654TIP3    H150157   1.992   5.886  10.990  0.1939  0.0871 -0.5777
 8654TIP3    H250158   2.093   5.924  11.097 -0.2156 -1.3495  0.3573
 8655TIP3   OH250159   2.376   2.842   9.464 -0.1813  0.4120 -0.4101
 8655TIP3    H150160   2.283   2.858   9.481 -0.4084  0.1844 -1.3858
 8655TIP3    H250161   2.404   2.916   9.410 -0.5391 -0.9290 -2.5513
 8656TIP3   OH250162   5.128   1.931  11.457 -0.0939 -0.3373  0.5943
 8656TIP3    H150163   5.091   1.959  11.373  0.4527 -2.7283 -0.5446
 8656TIP3    H250164   5.053   1.925  11.516 -0.3523  2.4070  0.6682
 8657TIP3   OH250165   2.307   2.983   8.392 -0.5997  0.1594 -0.1642
 8657TIP3    H150166   2.346   3.024   8.469 -0.9760  0.1112  0.0547
 8657TIP3    H250167   2.223   3.027   8.381 -1.2509 -0.9015  0.3956
 8658TIP3   OH250168   5.375   0.655  10.243  0.1605  0.1883  0.6760
 8658TIP3    H150169   5.322   0.695  10.175 -0.5671  0.8417  1.5891
 8658TIP3    H250170   5.447   0.718  10.257 -0.0291  0.3516  0.9257
 8659TIP3   OH250171   3.251   0.170   9.957  0.1384 -0.3652 -0.3398
 8659TIP3    H150172   3.275   0.079   9.974  0.0490 -0.3616 -0.1937
 8659TIP3    H250173   3.270   0.182   9.864  2.5365  0.1807  0.1342
 8660TIP3   OH250174   4.081   0.173  10.244  0.2031  0.6124  0.1652
 8660TIP3    H150175   3.994   0.140  10.263  0.5284 -0.7222 -0.5385
 8660TIP3    H250176   4.084   0.182  10.149  1.0641 -0.1061  0.1042
 8661TIP3   OH250177   3.841   2.587  10.570  0.3550  0.4912 -0.5644
 8661TIP3    H150178   3.927   2.552  10.594  0.2944  2.0663  2.2671
 8661TIP3    H250179   3.784   2.509  10.566  0.9402 -0.1786  2.2253
 8662TIP3   OH250180   2.137   2.875  10.497 -0.1649 -0.4396 -0.0110
 8662TIP3    H150181   2.227   2.904  10.485 -0.5620  0.9195  0.1649
 8662TIP3    H250182   2.136   2.785  10.463  1.1748 -0.3761 -0.2715
 8663TIP3   OH250183   6.469   0.730  10.365  0.0246 -0.0780  0.2020
 8663TIP3    H150184   6.488   0.717  10.272 -0.2887  0.7548  0.0155
 8663TIP3    H250185   6.392   0.787  10.367  0.2085  0.1644  0.9641
 8664TIP3   OH250186   5.974   6.442  10.372 -0.4643  0.2461 -0.4285
 8664TIP3    H150187   5.938   6.500  10.438 -1.9345  0.2771 -1.2009
 8664TIP3    H250188   5.937   6.473  10.289 -2.1552 -2.3169 -0.7804
 8665TIP3   OH250189   3.257   3.854   9.578 -0.2661 -0.0132  0.4409
 8665TIP3    H150190   3.269   3.937   9.532  1.1238 -0.8712 -0.8625
 8665TIP3    H250191   3.295   3.868   9.664 -0.8574  0.9513  0.5598
 8666TIP3   OH250192   4.314   3.218  11.730 -0.0674  0.2275  0.2725
 8666TIP3    H150193   4.381   3.215  11.662  0.0436  0.0682  0.3877
 8666TIP3    H250194   4.353   3.172  11.805  0.3797  1.6474  0.9620
 8667TIP3   OH250195   2.166   2.489   8.875  0.0743 -0.6601 -0.2085
 8667TIP3    H150196   2.216   2.563   8.840 -2.1563  1.1277  0.0966
 8667TIP3    H250197   2.137   2.519   8.961  0.5814 -2.6578  0.7043
 8668TIP3   OH250198   3.586   6.576  10.420 -0.4272 -0.2743  0.0447
 8668TIP3    H150199   3.582   6.541  10.331  0.1157  0.6556 -0.3746
 8668TIP3    H250200   3.663   6.534  10.459  1.2496  1.6050 -1.0301
 8669TIP3   OH250201   3.267   6.329   9.329 -0.0331  0.0578  0.1122
 8669TIP3    H150202   3.268   6.247   9.279  1.0608  0.0513  0.1307
 8669TIP3    H250203   3.177   6.336   9.360  0.4809 -2.8213  2.8330
 8670TIP3   OH250204   3.245   2.012   9.893 -0.1695  0.3839 -0.1256
 8670TIP3    H150205   3.189   2.026   9.817  0.4658  0.2021 -0.6428
 8670TIP3    H250206   3.190   2.031   9.968 -0.9230  0.1883 -0.6211
 8671TIP3   OH250207   1.951   0.199  11.191 -0.5399 -0.5419 -0.1947
 8671TIP3    H150208   1.992   0.274  11.148 -0.2539 -0.6728 -0.1494
 8671TIP3    H250209   1.985   0.201  11.280 -0.2080 -0.9655 -0.3059
 8672TIP3   OH250210   5.550   6.046  11.371 -0.3274 -0.4600  0.1737
 8672TIP3    H150211   5.604   5.975  11.337  0.9631  0.0601  1.0653
 8672TIP3    H250212   5.475   6.002  11.411 -0.0135 -1.2660 -0.1100
 8673TIP3   OH250213   3.056   3.182   8.174  0.8780 -0.5122 -0.2878
 8673TIP3    H150214   2.975   3.169   8.125  0.3916  0.4629  0.2251
 8673TIP3    H250215   3.040   3.140   8.259  0.9284 -0.3633 -0.2033
 8674TIP3   OH250216   3.013   3.452   8.229  0.2414  0.1010  0.4123
 8674TIP3    H150217   3.064   3.372   8.218 -1.4515 -0.7255 -2.4147
 8674TIP3    H250218   2.946   3.429   8.294  0.6063 -0.2935  0.6544
 8675TIP3   OH250219   0.683   2.825   9.118 -0.1256 -0.5538 -0.0608
 8675TIP3    H150220   0.683   2.915   9.084  1.4128  0.3221  2.0523
 8675TIP3    H250221   0.676   2.770   9.040 -1.2239  1.3695 -1.4113
 8676TIP3   OH250222   1.466   3.821  10.529 -0.0476 -0.3452 -0.3673
 8676TIP3    H150223   1.483   3.911  10.501  0.3307 -0.1022  0.6123
 8676TIP3    H250224   1.425   3.830  10.615  0.5970 -1.1273  0.0388
 8677TIP3   OH250225   6.383   0.110   9.965 -0.1386 -0.1066  0.2372
 8677TIP3    H150226   6.341   0.193   9.986  0.7153  0.4532 -0.2263
 8677TIP3    H250227   6.327   0.070   9.899  0.2780  0.8450 -0.7186
 8678TIP3   OH250228   2.564   2.448   9.807 -0.3251  0.1085  0.0024
 8678TIP3    H150229   2.602   2.370   9.767 -2.5797 -0.9136 -0.3106
 8678TIP3    H250230   2.556   2.511   9.735  1.6614  0.7429  0.2927
 8679TIP3   OH250231   0.138   2.952   8.312 -0.4379 -0.0866  0.0091
 8679TIP3    H150232   0.086   2.873   8.325 -0.3391 -0.1780 -0.1540
 8679TIP3    H250233   0.223   2.921   8.282 -0.6559  0.1195 -0.8465
 8680TIP3   OH250234   5.812   3.338   9.553 -0.5765 -0.2598  0.2377
 8680TIP3    H150235   5.814   3.293   9.637 -2.2592  0.0971  0.5075
 8680TIP3    H250236   5.782   3.427   9.574  1.2046  0.5623 -0.4696
 8681TIP3   OH250237   5.241   4.499   8.657  0.6064  0.7353  0.3819
 8681TIP3    H150238   5.173   4.473   8.594  0.9861  1.1501 -0.2076
 8681TIP3    H250239   5.204   4.573   8.704  0.1485  0.1513  0.9640
 8682TIP3   OH250240   4.739   0.806  10.742  0.3535 -0.0919 -0.3394
 8682TIP3    H150241   4.740   0.900  10.759 -0.2558 -0.4266  1.8251
 8682TIP3    H250242   4.701   0.768  10.821  1.2263 -2.2166 -0.8832
 8683TIP3   OH250243   1.782   5.487   9.332  0.2826  0.4378  0.3703
 8683TIP3    H150244   1.730   5.531   9.265 -2.5938  2.2340  3.4385
 8683TIP3    H250245   1.764   5.394   9.319 -5.6780  0.8815  2.2186
 8684TIP3   OH250246   4.767   2.221   9.803  0.1796 -0.0987 -0.0360
 8684TIP3    H150247   4.815   2.300   9.778  1.4640 -0.8967 -0.2299
 8684TIP3    H250248   4.745   2.180   9.720 -1.6934  0.6980  0.0164
 8685TIP3   OH250249   1.811   5.191   8.452 -0.0837 -0.2999 -0.2354
 8685TIP3    H150250   1.888   5.219   8.403  0.5741 -2.8073 -0.7533
 8685TIP3    H250251   1.778   5.271   8.492  2.4604  0.9507 -0.4447
 8686TIP3   OH250252   0.499   0.432  11.376  0.0734  0.9400 -0.5135
 8686TIP3    H150253   0.413   0.401  11.405  0.1735  0.9703 -0.1773
 8686TIP3    H250254   0.558   0.409  11.449  1.0876 -2.5195 -2.1885
 8687TIP3   OH250255   5.870   1.607  10.896  0.0189 -0.0367  0.3178
 8687TIP3    H150256   5.872   1.702  10.890 -0.3325  0.0296  1.1537
 8687TIP3    H250257   5.834   1.578  10.812  0.4244  0.5461 -0.0617
 8688TIP3   OH250258   1.726   0.024  10.833  0.9462  0.0256 -0.2783
 8688TIP3    H150259   1.681  -0.034  10.894  0.3853  0.6306 -0.1062
 8688TIP3    H250260   1.801   0.057  10.882  0.4322  0.6013  0.1376
 8689TIP3   OH250261   1.306   4.811  10.632 -0.3384  0.1561 -0.0923
 8689TIP3    H150262   1.211   4.814  10.619 -0.9078 -1.5820  2.6649
 8689TIP3    H250263   1.331   4.722  10.607  0.1532 -0.0673  1.0855
 8690TIP3   OH250264   1.701   1.880  11.126 -0.6771 -0.4170  0.5353
 8690TIP3    H150265   1.711   1.975  11.126 -0.1643 -0.4550  1.6016
 8690TIP3    H250266   1.674   1.858  11.215 -1.7256 -1.1934  0.0455
 8691TIP3   OH250267   5.357   1.167  10.842  0.3906  0.3165 -0.4740
 8691TIP3    H150268   5.354   1.183  10.936 -1.3916 -0.0505 -0.4384
 8691TIP3    H250269   5.386   1.076  10.833  0.5798  0.3587 -0.2926
 8692TIP3   OH250270   3.059   2.492  10.312  0.2098  0.6429  0.3864
 8692TIP3    H150271   3.093   2.428  10.374  2.0179  0.5198 -0.6593
 8692TIP3    H250272   3.133   2.550  10.293 -0.0710  0.3365 -2.0381
 8693TIP3   OH250273   3.952   4.644   9.460  0.8157 -0.4320 -0.2672
 8693TIP3    H150274   3.994   4.594   9.530 -0.5202 -1.6091 -0.2524
 8693TIP3    H250275   3.861   4.655   9.490  1.0991  2.2450 -0.1825
 8694TIP3   OH250276   5.769   1.564  10.622  0.0327 -0.7499  0.1409
 8694TIP3    H150277   5.718   1.487  10.649 -0.0572 -0.4340  0.8993
 8694TIP3    H250278   5.825   1.532  10.551  0.4991 -1.6919  0.9083
 8695TIP3   OH250279   1.042   4.825  10.632 -0.1510  0.3731 -0.3811
 8695TIP3    H150280   0.967   4.787  10.678 -0.6563 -0.1014 -1.5400
 8695TIP3    H250281   1.028   4.801  10.540  1.2528  0.5729 -0.6700
 8696TIP3   OH250282   2.142   5.405  10.871 -0.3771 -0.5423  0.1749
 8696TIP3    H150283   2.100   5.423  10.787  0.6863 -0.2876 -0.3138
 8696TIP3    H250284   2.095   5.328  10.905 -1.2716 -0.2226 -0.3174
 8697TIP3   OH250285   1.714   0.881  11.843 -0.3279 -0.1453 -0.1672
 8697TIP3    H150286   1.684   0.876  11.934 -1.5943  2.2477 -0.3631
 8697TIP3    H250287   1.807   0.858  11.847 -0.3049  0.1175  1.7867
 8698TIP3   OH250288   3.747   1.060  11.125 -0.0681  0.3905  0.1716
 8698TIP3    H150289   3.784   0.975  11.148  1.0822  0.7937 -0.1390
 8698TIP3    H250290   3.806   1.096  11.059 -0.9868  1.0884 -0.3052
 8699TIP3   OH250291   5.703   3.559  10.758 -0.6593  0.6034 -0.4617
 8699TIP3    H150292   5.718   3.632  10.698  3.3330 -0.4858 -1.0986
 8699TIP3    H250293   5.777   3.563  10.819 -1.4393 -1.7081  0.7796
 8700TIP3   OH250294   1.696   1.395  10.566 -0.0187  0.7165  0.2448
 8700TIP3    H150295   1.724   1.333  10.499  0.5596 -0.0689  1.1887
 8700TIP3    H250296   1.698   1.481  10.522  0.4461  0.2342 -0.7019
 8701TIP3   OH250297   1.931   6.339  10.280  0.2624 -0.0377  0.4137
 8701TIP3    H150298   1.909   6.246  10.271 -0.3138 -0.1284  2.3887
 8701TIP3    H250299   1.914   6.375  10.193  1.2540 -1.9014 -0.6286
 8702TIP3   OH250300   4.259   1.056   9.081  0.3915  0.1621  0.5652
 8702TIP3    H150301   4.276   1.055   8.987 -1.0561 -1.1534  0.2918
 8702TIP3    H250302   4.345   1.042   9.121  0.7420 -1.3520 -0.6342
 8703TIP3   OH250303   3.206   4.151   9.717  0.3753  0.7939 -0.2074
 8703TIP3    H150304   3.302   4.158   9.717  0.8104 -2.9651  0.2831
 8703TIP3    H250305   3.186   4.097   9.794 -2.1621  1.3336 -0.4015
 8704TIP3   OH250306   6.254   4.070  10.134  0.0348 -0.4499 -0.0927
 8704TIP3    H150307   6.258   4.165  10.122 -2.3077 -0.0242  1.7100
 8704TIP3    H250308   6.345   4.042  10.128  0.7716  1.8591 -0.9800
 8705TIP3   OH250309   5.812   2.875   9.614 -0.0339 -0.3077 -0.9119
 8705TIP3    H150310   5.716   2.882   9.612 -0.0985 -0.9042 -0.3194
 8705TIP3    H250311   5.839   2.940   9.679 -0.1372 -0.9844 -0.1792
 8706TIP3   OH250312   4.600   0.630   9.742 -0.1368 -0.0701  0.0329
 8706TIP3    H150313   4.613   0.724   9.753  1.4123 -0.3195  0.5820
 8706TIP3    H250314   4.552   0.603   9.820  2.4328 -0.2406  1.7045
 8707TIP3   OH250315   6.008   3.890   8.445  0.9891  0.2115  0.0322
 8707TIP3    H150316   6.049   3.874   8.531  2.0731  0.0563 -0.4921
 8707TIP3    H250317   6.024   3.983   8.429  0.1860  0.4036  0.2858
 8708TIP3   OH250318   4.298   4.598  10.060 -0.2731 -0.8799  0.2644
 8708TIP3    H150319   4.358   4.548  10.115  0.4313 -1.0465 -0.6193
 8708TIP3    H250320   4.350   4.672  10.028 -0.9824 -0.1932  0.6682
 8709TIP3   OH250321   2.432   3.990  11.100 -0.2641 -0.4994 -0.0086
 8709TIP3    H150322   2.372   4.062  11.119  0.6787  1.1831 -2.7802
 8709TIP3    H250323   2.454   4.002  11.008  2.3688 -2.5368  0.2622
 8710TIP3   OH250324   4.462   4.211   9.798 -0.0499  0.0098 -0.1777
 8710TIP3    H150325   4.423   4.297   9.783  1.4366  1.0011  1.2523
 8710TIP3    H250326   4.445   4.193   9.891  0.4254 -0.8248 -0.2441
 8711TIP3   OH250327   2.188   1.315   9.467  0.1823  0.1590  0.0146
 8711TIP3    H150328   2.139   1.366   9.401  1.8582  2.2744  0.2963
 8711TIP3    H250329   2.274   1.302   9.427  1.0159  0.9229  1.4887
 8712TIP3   OH250330   1.236   1.773  10.540  0.6719  0.2074  0.3849
 8712TIP3    H150331   1.206   1.782  10.449  0.6223 -2.1870  0.1018
 8712TIP3    H250332   1.162   1.732  10.586  0.7051  1.3682  1.5466
 8713TIP3   OH250333   1.658   1.122   8.564  0.1599 -0.0134  0.1836
 8713TIP3    H150334   1.581   1.160   8.521  0.0213 -1.2747 -0.7466
 8713TIP3    H250335   1.625   1.093   8.650  0.1546  1.4504  0.7024
 8714TIP3   OH250336   5.752   2.336   9.579 -0.2322  0.1702  0.2324
 8714TIP3    H150337   5.659   2.315   9.572  0.0058 -0.4449 -1.6002
 8714TIP3    H250338   5.791   2.296   9.501  1.5304  0.6349  0.8415
 8715TIP3   OH250339   1.922   4.897  10.941 -0.5766 -0.2133 -0.2101
 8715TIP3    H150340   1.887   4.808  10.935 -1.3504  0.1837 -2.7263
 8715TIP3    H250341   1.860   4.950  10.891  0.0115  1.7163  1.0199
 8716TIP3   OH250342   4.528   4.872   9.204 -0.2342 -0.1885 -0.2811
 8716TIP3    H150343   4.578   4.881   9.123 -0.8966 -2.6858 -1.0555
 8716TIP3    H250344   4.497   4.781   9.204 -3.8543  0.8716  0.6658
 8717TIP3   OH250345   0.488   4.946  10.005  0.3411 -0.5822  0.2385
 8717TIP3    H150346   0.546   5.022  10.003  0.2778 -0.4425  2.2324
 8717TIP3    H250347   0.494   4.910   9.917  1.2562  1.0621 -0.4249
 8718TIP3   OH250348   1.942   4.582  10.314  0.5193 -0.5278  0.5988
 8718TIP3    H150349   2.028   4.540  10.321  0.2704 -1.1742 -0.1445
 8718TIP3    H250350   1.879   4.511  10.326  0.0911 -0.2695 -0.0513
 8719TIP3   OH250351   6.000   5.967  11.332  0.4472  0.6713 -0.0866
 8719TIP3    H150352   6.014   5.916  11.252  2.3892  0.7714  0.1348
 8719TIP3    H250353   5.976   5.902  11.398  0.4369  0.3708 -0.3839
 8720TIP3   OH250354   3.645   6.355  11.935  0.2401  0.3136  0.3321
 8720TIP3    H150355   3.727   6.368  11.983  0.5106 -1.8932  0.5512
 8720TIP3    H250356   3.654   6.412  11.858  2.1993 -0.2206  0.1154
 8721TIP3   OH250357   2.745   1.444  12.039  0.0218 -0.0590  0.4018
 8721TIP3    H150358   2.823   1.389  12.033  0.1819  0.3043 -2.9302
 8721TIP3    H250359   2.779   1.532  12.057  0.0504 -0.4105  2.2160
 8722TIP3   OH250360   4.132   2.869   9.378 -0.8211 -0.3537 -0.1292
 8722TIP3    H150361   4.130   2.810   9.303  1.9341 -2.7765  1.5142
 8722TIP3    H250362   4.209   2.924   9.363 -1.7102  0.9092 -0.2329
 8723TIP3   OH250363   2.452   3.544   9.069 -0.2591 -0.0835 -0.2608
 8723TIP3    H150364   2.415   3.621   9.112  0.2233  0.2130 -0.3658
 8723TIP3    H250365   2.511   3.579   9.003  0.0251 -0.5424 -0.2595
 8724TIP3   OH250366   5.298   4.605   9.815  0.5511  0.3526  0.0648
 8724TIP3    H150367   5.239   4.665   9.860 -0.2217  1.1656 -1.9148
 8724TIP3    H250368   5.346   4.561   9.886 -0.4280  1.6853  1.6370
 8725TIP3   OH250369   4.531   0.229  10.415  0.0957 -0.2270  0.2835
 8725TIP3    H150370   4.514   0.309  10.465  0.1882  0.1255 -0.2329
 8725TIP3    H250371   4.446   0.184  10.413 -0.7432  1.2615 -1.8253
 8726TIP3   OH250372   4.433   5.988   9.830  0.0518  0.6035  0.0515
 8726TIP3    H150373   4.388   6.060   9.873 -2.1573  0.6267 -2.0810
 8726TIP3    H250374   4.375   5.963   9.758  1.9561 -1.6171 -0.8396
 8727TIP3   OH250375   1.349   6.325   9.871  0.0257 -0.0234  0.1620
 8727TIP3    H150376   1.325   6.290   9.785 -0.9598  1.2969 -0.1365
 8727TIP3    H250377   1.267   6.327   9.919  0.4771 -0.2188  0.9568
 8728TIP3   OH250378   1.428   1.947  11.846  0.5719 -0.1149  0.1795
 8728TIP3    H150379   1.345   1.901  11.855  0.3244  0.6309  2.1818
 8728TIP3    H250380   1.405   2.039  11.850  1.6371  0.1197  3.2809
 8729TIP3   OH250381   6.029   5.081  10.105  0.1830  0.1387  0.1202
 8729TIP3    H150382   6.096   5.043  10.049  1.3353  1.0699  0.8037
 8729TIP3    H250383   6.042   5.176  10.096 -0.0149  0.3154  1.4448
 8730TIP3   OH250384   1.800   4.705   9.306 -0.1051 -0.0745 -0.2034
 8730TIP3    H150385   1.878   4.757   9.326  0.0614 -0.6255  0.6272
 8730TIP3    H250386   1.774   4.734   9.218  0.5620  0.6868 -0.1626
 8731TIP3   OH250387   2.331   0.048  11.755  0.0846 -0.0445 -0.0065
 8731TIP3    H150388   2.372   0.090  11.831  2.1073 -2.4971  0.4209
 8731TIP3    H250389   2.337   0.113  11.685  1.3493  1.0615  1.0700
 8732TIP3   OH250390   4.247   3.896   9.841 -0.2287 -0.0574  0.1412
 8732TIP3    H150391   4.258   3.812   9.797 -1.0249 -0.6587  1.0698
 8732TIP3    H250392   4.293   3.886   9.924 -1.8265 -0.2087  1.0323
 8733TIP3   OH250393   6.384   1.723  10.129 -0.3265  0.3116 -0.3794
 8733TIP3    H150394   6.327   1.758  10.061  0.4189 -1.4591 -2.0260
 8733TIP3    H250395   6.472   1.748  10.102 -0.0915  0.5209  0.5488
 8734TIP3   OH250396   2.652   3.638   9.987  0.1492 -0.5440 -0.1632
 8734TIP3    H150397   2.668   3.597  10.072  1.9154  0.3269 -0.0335
 8734TIP3    H250398   2.735   3.632   9.941 -0.0791  1.1832 -0.8786
 8735TIP3   OH250399   0.813   1.215  11.392  0.4138 -0.3537  0.0656
 8735TIP3    H150400   0.759   1.158  11.338 -1.2988  0.5195  0.7658
 8735TIP3    H250401   0.868   1.262  11.330 -0.6830 -0.2175 -0.8347
 8736TIP3   OH250402   4.619   1.937  10.315 -0.2271 -0.6514 -0.0965
 8736TIP3    H150403   4.681   2.010  10.312 -1.2783  0.3026  0.3979
 8736TIP3    H250404   4.565   1.955  10.392 -1.5615 -1.0601 -0.8943
 8737TIP3   OH250405   4.944   4.125  10.461  0.3131 -0.7215 -0.4365
 8737TIP3    H150406   5.025   4.073  10.468 -1.1541 -2.9373  3.6300
 8737TIP3    H250407   4.877   4.061  10.438 -0.7382  0.5471 -1.0010
 8738TIP3   OH250408   2.710   0.343   8.447  0.0127  0.0310 -0.2752
 8738TIP3    H150409   2.629   0.344   8.497  0.5181  0.0985  0.5633
 8738TIP3    H250410   2.709   0.260   8.401 -0.0448 -0.4352  0.5545
 8739TIP3   OH250411   6.337   5.850   8.942 -0.5073  0.4727  0.5136
 8739TIP3    H150412   6.335   5.764   8.985  0.2827  0.2010  0.0298
 8739TIP3    H250413   6.270   5.844   8.874  0.7154 -0.4045 -0.6679
 8740TIP3   OH250414   0.150   4.069   8.750  0.6467 -0.3138 -0.3089
 8740TIP3    H150415   0.096   4.031   8.820 -0.3570 -1.6632 -1.7471
 8740TIP3    H250416   0.137   4.163   8.758 -1.1056 -0.5583  0.0551
 8741TIP3   OH250417   1.393   1.761   9.375 -0.0437  0.0323  0.5212
 8741TIP3    H150418   1.473   1.783   9.327 -1.1614  2.7722 -0.3093
 8741TIP3    H250419   1.418   1.768   9.467  1.0266 -0.7414  0.3097
 8742TIP3   OH250420   6.276   1.602   8.519  1.3102  0.5030 -0.5989
 8742TIP3    H150421   6.195   1.558   8.548  1.2973 -0.0686 -1.4856
 8742TIP3    H250422   6.245   1.679   8.472  1.3258  1.2243  0.5289
 8743TIP3   OH250423   1.596   3.673   8.608 -0.4448 -0.2305  0.4254
 8743TIP3    H150424   1.659   3.633   8.549 -1.4338  1.8497 -2.2153
 8743TIP3    H250425   1.511   3.637   8.582 -1.2386  2.6956 -1.4164
 8744TIP3   OH250426   2.947   0.453  11.382  0.2602  0.1926  0.5207
 8744TIP3    H150427   3.009   0.381  11.378  0.5588  0.5012 -0.5330
 8744TIP3    H250428   2.975   0.514  11.315 -2.0617 -0.3820 -1.1103
 8745TIP3   OH250429   1.684   4.566  11.099 -0.0919 -0.8358  0.0483
 8745TIP3    H150430   1.635   4.573  11.017 -0.1970 -0.0651  0.1714
 8745TIP3    H250431   1.741   4.490  11.086  0.5250 -0.2016 -1.0876
 8746TIP3   OH250432   0.674   0.942   9.618 -0.2149  0.2731  0.5491
 8746TIP3    H150433   0.741   0.935   9.550  0.8021  0.6301  1.4880
 8746TIP3    H250434   0.591   0.942   9.570  0.5005  1.5648 -0.7878
 8747TIP3   OH250435   5.794   6.253  10.238  0.1250 -0.1957  0.3468
 8747TIP3    H150436   5.859   6.278  10.303 -0.0027  0.8517  0.0865
 8747TIP3    H250437   5.845   6.234  10.159  0.0397  2.5665 -0.4599
 8748TIP3   OH250438   3.746   0.671   9.527 -0.2568  0.6157  0.1436
 8748TIP3    H150439   3.712   0.587   9.557  2.1629 -0.5368 -0.1004
 8748TIP3    H250440   3.807   0.698   9.595  0.2175  1.3505 -0.5536
 8749TIP3   OH250441   1.649   6.173   8.876 -0.3551 -0.1717 -0.0948
 8749TIP3    H150442   1.645   6.081   8.902 -1.8082 -0.4025 -1.0639
 8749TIP3    H250443   1.711   6.174   8.803 -1.0818 -0.5552 -0.7277
 8750TIP3   OH250444   3.778   0.009  11.510  0.1617  0.5392  0.6269
 8750TIP3    H150445   3.757   0.100  11.487  0.9397  0.4553 -0.5063
 8750TIP3    H250446   3.872   0.001  11.492  0.1535 -0.4212  0.9638
 8751TIP3   OH250447   1.524   5.889  10.028 -0.0821 -0.4160 -0.5064
 8751TIP3    H150448   1.434   5.892   9.997  0.1774  0.7084 -1.2262
 8751TIP3    H250449   1.528   5.958  10.094 -0.0228 -1.2182  0.3507
 8752TIP3   OH250450   0.513   2.780  11.539 -0.1023 -0.3865 -0.0204
 8752TIP3    H150451   0.454   2.744  11.605 -0.8936  0.9750  0.0462
 8752TIP3    H250452   0.579   2.711  11.526  0.2568 -0.5855  2.4074
 8753TIP3   OH250453   0.905   5.055   9.062 -0.0164  0.3596 -0.3407
 8753TIP3    H150454   0.837   5.075   8.996  0.5358 -1.7054 -1.6151
 8753TIP3    H250455   0.872   5.095   9.142 -1.3879  1.8067 -1.5377
 8754TIP3   OH250456   5.685   5.263   8.541  0.2666  0.0799  0.0746
 8754TIP3    H150457   5.655   5.311   8.619 -0.4392  0.2333 -0.2896
 8754TIP3    H250458   5.683   5.327   8.471 -1.5474 -0.6784 -0.6113
 8755TIP3   OH250459   6.466   1.592   8.721  0.3780 -0.6288 -0.6195
 8755TIP3    H150460   6.538   1.651   8.699  1.2113 -1.5095 -0.3277
 8755TIP3    H250461   6.400   1.609   8.653 -0.1926  1.8648  0.4285
 8756TIP3   OH250462   4.261   3.291  10.895  0.3194 -0.0745  0.0203
 8756TIP3    H150463   4.270   3.243  10.813 -0.7881  0.5137 -0.4842
 8756TIP3    H250464   4.176   3.264  10.929  0.2204  0.6128  0.3378
 8757TIP3   OH250465   2.130   5.176  10.506 -0.2902 -0.5761 -0.3220
 8757TIP3    H150466   2.091   5.089  10.505  0.8213 -1.1032  0.6967
 8757TIP3    H250467   2.055   5.236  10.513 -1.0101 -1.4791 -0.1375
 8758TIP3   OH250468   6.191   1.897  10.316  0.3880  0.1519  0.3595
 8758TIP3    H150469   6.260   1.831  10.304  0.1111  0.0049 -0.4584
 8758TIP3    H250470   6.191   1.948  10.235  0.1765  0.7679  0.7399
 8759TIP3   OH250471   5.237   3.442  10.829 -0.4413 -0.1391 -0.5076
 8759TIP3    H150472   5.205   3.375  10.768 -0.7032 -1.9174  1.4702
 8759TIP3    H250473   5.160   3.495  10.848 -1.2115 -1.6748  0.8307
 8760TIP3   OH250474   1.658   3.798  10.041  0.3892 -0.5607 -0.2719
 8760TIP3    H150475   1.677   3.888  10.069  1.1017 -0.7407 -0.1536
 8760TIP3    H250476   1.725   3.745  10.084  1.4012 -0.8873 -2.1572
 8761TIP3   OH250477   5.756   5.731  10.781  0.3508 -0.4783 -0.0447
 8761TIP3    H150478   5.720   5.648  10.749 -1.4231 -0.1316  0.9220
 8761TIP3    H250479   5.721   5.740  10.870 -0.0908  1.6180 -0.3787
 8762TIP3   OH250480   0.066   3.810  11.084 -0.2984  0.4551 -0.1270
 8762TIP3    H150481   0.102   3.898  11.081  0.2528  0.2538  0.3303
 8762TIP3    H250482   0.139   3.753  11.062 -1.0542  0.1802 -2.1087
 8763TIP3   OH250483   3.393   0.915   9.151 -0.8199 -0.1855 -0.2785
 8763TIP3    H150484   3.335   0.951   9.218 -0.7385  0.9522 -0.7962
 8763TIP3    H250485   3.452   0.987   9.129  0.0203 -0.9566 -0.6260
 8764TIP3   OH250486   1.579   4.802  17.396  0.1077 -0.4502 -0.0987
 8764TIP3    H150487   1.534   4.868  17.449  0.0954 -0.1034 -0.5350
 8764TIP3    H250488   1.561   4.719  17.440  0.1771 -0.1548  0.4899
 8765TIP3   OH250489   0.518   4.323   8.434  0.1215  0.5934 -0.1377
 8765TIP3    H150490   0.431   4.339   8.471 -0.1855 -1.6301  0.2625
 8765TIP3    H250491   0.510   4.239   8.389  2.4689 -0.6485  1.5077
 8766TIP3   OH250492   2.428   6.256  10.698 -0.6455  0.4031 -1.7545
 8766TIP3    H150493   2.431   6.181  10.638  0.4305 -1.8991  0.9577
 8766TIP3    H250494   2.363   6.232  10.764  1.1220  0.9127  0.2637
 8767TIP3   OH250495   1.685   0.284  10.410  0.1158 -0.6064 -0.1856
 8767TIP3    H150496   1.611   0.334  10.376 -0.6321 -1.7297 -0.2499
 8767TIP3    H250497   1.676   0.290  10.505  0.4197 -0.0744 -0.1834
 8768TIP3   OH250498   1.968   0.932  10.389  0.1288 -0.1073  0.0928
 8768TIP3    H150499   1.879   0.933  10.355  0.4794  1.3879 -0.8935
 8768TIP3    H250500   1.973   1.008  10.446  0.6041 -0.5270  0.6245
 8769TIP3   OH250501   5.886   2.470  11.626  0.1984  0.1310  0.6259
 8769TIP3    H150502   5.910   2.563  11.631  0.8088 -0.0448  1.0942
 8769TIP3    H250503   5.796   2.467  11.656  0.1941  0.5657  0.6639
 8770TIP3   OH250504   1.413   6.450   9.100  0.1588  0.4984 -0.1467
 8770TIP3    H150505   1.329   6.414   9.131  0.3234  1.6176  1.7418
 8770TIP3    H250506   1.401   6.461   9.006 -1.6106  0.0769 -0.0066
 8771TIP3   OH250507   5.575   3.045   8.491  0.6095  0.0134 -0.0537
 8771TIP3    H150508   5.555   2.951   8.486  1.1231 -0.2430  1.8935
 8771TIP3    H250509   5.660   3.054   8.448  1.4552 -0.7658  1.3706
 8772TIP3   OH250510   2.424   2.013  10.899 -0.0204 -0.6684 -0.5551
 8772TIP3    H150511   2.421   2.100  10.938 -2.5734 -0.2225 -1.5901
 8772TIP3    H250512   2.507   2.011  10.851 -0.0314  1.2652 -0.7093
 8773TIP3   OH250513   5.155   3.630   9.805  0.0070 -0.1153 -0.3033
 8773TIP3    H150514   5.084   3.571   9.779 -0.6173  1.2258 -1.8355
 8773TIP3    H250515   5.194   3.658   9.723  0.5577  1.2478  0.3820
 8774TIP3   OH250516   6.179   1.759   9.682  0.0437 -0.1969  0.4191
 8774TIP3    H150517   6.186   1.757   9.587 -1.8999 -0.7515  0.2304
 8774TIP3    H250518   6.257   1.714   9.713 -0.7032 -2.7663 -1.0797
 8775TIP3   OH250519   1.121   0.701   9.889 -0.0329  0.2736 -0.0681
 8775TIP3    H150520   1.113   0.675   9.981  2.5769  2.1223  0.8187
 8775TIP3    H250521   1.032   0.720   9.861 -0.9620 -0.9749  1.8707
 8776TIP3   OH250522   0.438   2.831  18.047  0.1008  0.1734  1.2066
 8776TIP3    H150523   0.439   2.816  18.142 -1.0170 -0.9669  1.0687
 8776TIP3    H250524   0.417   2.746  18.010  2.1973  0.1850 -0.1995
 8777TIP3   OH250525   5.100   5.872  10.967  0.5568  0.2395 -0.4706
 8777TIP3    H150526   5.027   5.906  10.914 -0.6835 -0.9267  0.4250
 8777TIP3    H250527   5.126   5.792  10.922  0.6311  0.1341 -0.2390
 8778TIP3   OH250528   2.991   3.561   9.363 -0.2555 -0.0461 -0.3770
 8778TIP3    H150529   3.013   3.540   9.272 -1.5158 -0.6282 -0.5733
 8778TIP3    H250530   3.029   3.490   9.414 -0.4279 -0.2781 -0.5662
 8779TIP3   OH250531   0.829   2.465  10.729 -0.3791  0.3501  0.0905
 8779TIP3    H150532   0.868   2.393  10.680 -2.5194 -1.5785  1.0589
 8779TIP3    H250533   0.838   2.440  10.821 -2.6541  0.4325  0.3951
 8780TIP3   OH250534   0.903   0.701   9.122 -0.3369 -0.9031  0.6934
 8780TIP3    H150535   0.855   0.753   9.186  1.7133  0.7501  0.9682
 8780TIP3    H250536   0.977   0.664   9.170  2.6481  2.2911 -0.9803
 8781TIP3   OH250537   1.603   5.620  10.221  0.3406 -0.0295 -0.5737
 8781TIP3    H150538   1.515   5.582  10.219 -0.3679  1.5195 -0.5217
 8781TIP3    H250539   1.604   5.681  10.148  1.1204  0.5126 -0.1169
 8782TIP3   OH250540   3.254   2.879   8.221  0.2950  0.2945  0.7781
 8782TIP3    H150541   3.261   2.902   8.313  0.4578  0.9253  0.6167
 8782TIP3    H250542   3.243   2.963   8.176  2.1742  0.1949  0.0423
 8783TIP3   OH250543   3.620   2.398  11.604  0.2341  0.9550  0.1913
 8783TIP3    H150544   3.694   2.450  11.572  0.0100  1.3046  0.2398
 8783TIP3    H250545   3.595   2.440  11.686 -0.2162  1.0308  0.0217
 8784TIP3   OH250546   5.856   6.137   8.480  0.3532  0.7160 -0.2960
 8784TIP3    H150547   5.907   6.138   8.561 -0.5474  1.6766  0.2730
 8784TIP3    H250548   5.919   6.110   8.413  0.7532 -1.7387  0.9264
 8785TIP3   OH250549   0.173   3.506  10.842  0.4072 -0.1656 -0.1264
 8785TIP3    H150550   0.223   3.437  10.799 -0.0330 -0.1120 -0.7407
 8785TIP3    H250551   0.153   3.471  10.929 -0.9636 -1.3992 -0.8867
 8786TIP3   OH250552   4.586   1.041  11.113  0.4375  0.4053 -0.6199
 8786TIP3    H150553   4.502   1.001  11.134  1.2506 -2.1279 -1.7730
 8786TIP3    H250554   4.565   1.114  11.055 -0.9981  0.1826 -0.3962
 8787TIP3   OH250555   3.360   5.648  10.725  0.3115  0.1353 -0.0415
 8787TIP3    H150556   3.340   5.641  10.631 -0.0132 -0.8701  0.0931
 8787TIP3    H250557   3.281   5.685  10.763  0.9763  2.0011 -0.3454
 8788TIP3   OH250558   0.437   4.085   8.150 -0.3799 -0.2452  0.1678
 8788TIP3    H150559   0.410   4.011   8.205 -1.4317  1.1066  1.5599
 8788TIP3    H250560   0.356   4.116   8.110  0.0143  0.3541 -0.1720
 8789TIP3   OH250561   2.800   0.741   9.633  0.3013  0.0618 -0.2099
 8789TIP3    H150562   2.895   0.753   9.630  0.4261  1.3810  3.4483
 8789TIP3    H250563   2.788   0.657   9.676 -0.0644  0.6931  0.9899
 8790TIP3   OH250564   1.320   2.376  10.468  0.0272  0.2473  0.5075
 8790TIP3    H150565   1.358   2.291  10.446 -1.2384  0.1745 -1.6760
 8790TIP3    H250566   1.374   2.439  10.420  0.4194  0.6385  1.4241
 8791TIP3   OH250567   0.340   2.204  12.153 -0.3129  0.2541 -0.1576
 8791TIP3    H150568   0.345   2.273  12.087 -1.3627 -2.2443 -3.0831
 8791TIP3    H250569   0.247   2.200  12.176 -0.2402 -0.1131  0.0782
 8792TIP3   OH250570   4.595   3.291  11.908 -0.0712 -0.3933 -0.2135
 8792TIP3    H150571   4.535   3.334  11.969 -0.5207 -0.8109 -0.3604
 8792TIP3    H250572   4.557   3.205  11.892  0.0561 -0.2995 -1.0650
 8793TIP3   OH250573   0.477   4.540  10.883 -0.0480  0.4143 -0.2134
 8793TIP3    H150574   0.519   4.625  10.868 -1.2908  0.8960 -1.1772
 8793TIP3    H250575   0.411   4.557  10.950  0.2665  0.0200  0.1961
 8794TIP3   OH250576   5.509   0.414  10.568  0.6091  0.1310  0.0273
 8794TIP3    H150577   5.482   0.359  10.642 -1.5934  0.5030 -0.4093
 8794TIP3    H250578   5.488   0.362  10.490  0.7020  0.6627 -0.3603
 8795TIP3   OH250579   0.897   2.568   9.562  0.0898  0.5573 -0.3248
 8795TIP3    H150580   0.838   2.602   9.495  0.7177  0.5302 -0.9083
 8795TIP3    H250581   0.886   2.473   9.558  0.2410  0.5463 -0.5031
 8796TIP3   OH250582   2.472   6.450   8.537  0.0174 -0.2073  0.5531
 8796TIP3    H150583   2.390   6.492   8.562 -0.9084 -1.5990  0.0115
 8796TIP3    H250584   2.481   6.469   8.443 -0.5444 -1.3772  0.2440
 8797TIP3   OH250585   3.764   1.644   8.643 -0.4101  0.0030 -0.0842
 8797TIP3    H150586   3.697   1.576   8.654 -0.3331 -0.1357 -0.4420
 8797TIP3    H250587   3.847   1.596   8.644 -0.4088 -0.0582 -1.4726
 8798TIP3   OH250588   3.300   4.333  11.730  0.2981  0.1821  0.3451
 8798TIP3    H150589   3.382   4.284  11.725 -0.6917 -1.6795  1.0836
 8798TIP3    H250590   3.321   4.410  11.782  2.1152  1.0533 -1.5364
 8799TIP3   OH250591   1.651   1.547  11.217 -0.4299 -0.4257 -0.2745
 8799TIP3    H150592   1.723   1.539  11.153  0.2515  0.7141  0.3141
 8799TIP3    H250593   1.695   1.544  11.302 -0.8931  1.6731  0.0794
 8800TIP3   OH250594   4.469   5.867   9.410  0.7274 -0.1350 -0.0596
 8800TIP3    H150595   4.421   5.949   9.417 -1.1995 -1.2708  0.8149
 8800TIP3    H250596   4.429   5.810   9.476 -0.1070 -2.7586 -2.6092
 8801TIP3   OH250597   0.587   3.705  11.386  0.0292 -0.1661  0.4140
 8801TIP3    H150598   0.501   3.747  11.385 -0.5074 -1.1955  1.3022
 8801TIP3    H250599   0.572   3.621  11.428  1.1859 -1.0118 -0.7673
 8802TIP3   OH250600   0.466   5.145   8.563 -0.1898  0.9442  0.1187
 8802TIP3    H150601   0.436   5.203   8.493 -0.9163  0.1491 -0.2443
 8802TIP3    H250602   0.425   5.061   8.544  1.5444  0.0452  0.1088
 8803TIP3   OH250603   6.130   0.331  11.203 -0.0219 -0.1404  0.3972
 8803TIP3    H150604   6.190   0.258  11.192  0.0055  0.1615 -1.9115
 8803TIP3    H250605   6.119   0.367  11.115 -0.6066  2.1887  1.3418
 8804TIP3   OH250606   4.577   4.495  11.694  0.3043 -0.4897  0.3338
 8804TIP3    H150607   4.501   4.544  11.662  1.0693 -0.5002 -1.6413
 8804TIP3    H250608   4.609   4.546  11.768 -0.7977  0.2598  0.3150
 8805TIP3   OH250609   1.897   2.559  11.779  0.3745  0.1351 -0.0016
 8805TIP3    H150610   1.895   2.643  11.734  2.5227  0.1214 -0.2284
 8805TIP3    H250611   1.965   2.568  11.846 -0.6606 -0.8358  1.2560
 8806TIP3   OH250612   2.872   4.010   9.456 -0.0804 -0.0438 -0.5895
 8806TIP3    H150613   2.940   4.073   9.479  0.5385 -1.8096  3.2845
 8806TIP3    H250614   2.911   3.954   9.390  1.9856 -0.4657  0.9056
 8807TIP3   OH250615   4.448   2.981  10.577  0.5375  0.1770  0.0229
 8807TIP3    H150616   4.486   2.919  10.515 -0.1732 -2.1723  1.8177
 8807TIP3    H250617   4.354   2.964  10.573  0.4175  0.4671  1.2163
 8808TIP3   OH250618   4.455   6.096   8.919  0.0531  0.3957 -0.5344
 8808TIP3    H150619   4.396   6.068   8.988  0.6978 -1.1138 -0.5690
 8808TIP3    H250620   4.447   6.192   8.917 -0.2210  0.4343  1.3859
 8809TIP3   OH250621   1.437   6.229  10.270 -0.6428  0.4707  0.5007
 8809TIP3    H150622   1.354   6.197  10.304 -1.3138  1.9930  0.3537
 8809TIP3    H250623   1.497   6.154  10.279 -1.7157 -0.2863  1.6763
 8810TIP3   OH250624   3.306   2.137   9.492  0.0423  0.2906 -0.3022
 8810TIP3    H150625   3.379   2.078   9.510 -0.1572  0.4626  1.2091
 8810TIP3    H250626   3.329   2.219   9.535 -0.0524  1.0710 -1.7014
 8811TIP3   OH250627   6.378   5.781   9.432  0.1264  0.2331  0.0282
 8811TIP3    H150628   6.369   5.875   9.445 -2.6445 -0.1204  1.4060
 8811TIP3    H250629   6.440   5.753   9.499  0.5612  0.9766 -0.0498
 8812TIP3   OH250630   0.961   1.864  10.444 -0.1224  0.1213  0.1290
 8812TIP3    H150631   0.951   1.769  10.440 -1.4107  0.2556 -0.2700
 8812TIP3    H250632   0.902   1.893  10.513 -1.2017  0.7876 -1.0201
 8813TIP3   OH250633   6.323   4.911  10.638 -0.1219 -0.2914  0.1351
 8813TIP3    H150634   6.314   4.838  10.700  1.6915 -1.4809 -0.9214
 8813TIP3    H250635   6.412   4.943  10.651 -0.8586  1.7903  0.5437
 8814TIP3   OH250636   3.685   3.991   9.040  0.2436  0.3893  0.0701
 8814TIP3    H150637   3.764   4.031   9.076  0.8294 -0.1095 -0.6419
 8814TIP3    H250638   3.707   3.971   8.949 -1.0423  1.1633 -0.4375
 8815TIP3   OH250639   5.793   1.304   9.371 -0.0047 -0.3386  0.1063
 8815TIP3    H150640   5.808   1.266   9.457  0.2923  0.7096  0.5274
 8815TIP3    H250641   5.872   1.282   9.321 -0.1834 -0.9578  0.0843
 8816TIP3   OH250642   5.623   1.314  10.428 -0.2838 -0.3476 -0.1103
 8816TIP3    H150643   5.594   1.398  10.393 -1.1446 -0.1271  1.0707
 8816TIP3    H250644   5.601   1.317  10.521  3.2662 -0.2967  0.9031
 8817TIP3   OH250645   2.788   2.140   9.357 -0.0796 -0.3636  0.0490
 8817TIP3    H150646   2.722   2.128   9.289 -2.4342  0.8593  1.9737
 8817TIP3    H250647   2.836   2.057   9.359 -0.7893 -0.8939 -2.1495
 8818TIP3   OH250648   3.582   3.415   8.707 -0.1957 -0.3416 -0.0162
 8818TIP3    H150649   3.508   3.416   8.646 -0.5495 -1.3982  0.3756
 8818TIP3    H250650   3.544   3.441   8.791 -0.0975 -0.7753  0.1618
 8819TIP3   OH250651   2.746   1.343   9.317  0.4294 -0.0378  0.5179
 8819TIP3    H150652   2.832   1.327   9.278  0.3283  0.4721  0.0817
 8819TIP3    H250653   2.729   1.265   9.369  1.2565 -0.0415  0.7901
 8820TIP3   OH250654   0.634   1.991   8.674  0.3322 -0.1964  0.4947
 8820TIP3    H150655   0.701   2.012   8.739  0.7376 -2.0557  0.7176
 8820TIP3    H250656   0.672   2.020   8.591  1.0567 -0.4381  0.7333
 8821TIP3   OH250657   2.261   1.137  11.082 -0.3120  0.4031  0.2927
 8821TIP3    H150658   2.209   1.216  11.066 -1.3037 -0.2570  0.2074
 8821TIP3    H250659   2.349   1.161  11.054 -0.7470  1.2476 -0.4072
 8822TIP3   OH250660   4.975   0.901  11.483 -0.7464 -0.1923 -0.1393
 8822TIP3    H150661   5.048   0.920  11.542 -0.0995 -1.7679 -0.4027
 8822TIP3    H250662   4.920   0.838  11.531 -0.4413 -1.1557 -1.0333
 8823TIP3   OH250663   5.263   1.950  11.740  0.2241 -0.3114  1.3227
 8823TIP3    H150664   5.324   1.947  11.666 -1.0661  0.0671  0.2153
 8823TIP3    H250665   5.249   1.858  11.763  1.1225 -0.4077  1.5456
 8824TIP3   OH250666   3.369   1.403   9.123 -0.2540 -0.2083  0.1269
 8824TIP3    H150667   3.364   1.343   9.049 -1.3386 -1.4700  1.1770
 8824TIP3    H250668   3.459   1.394   9.156  0.0054 -0.1969 -0.5698
 8825TIP3   OH250669   1.218   5.156   8.532  0.3426  0.4900 -0.2945
 8825TIP3    H150670   1.268   5.077   8.510  2.3281  1.3199  0.9112
 8825TIP3    H250671   1.256   5.224   8.477 -0.6229  0.8177 -0.5599
 8826TIP3   OH250672   2.138   5.237   8.408  0.1884 -0.5041  0.6014
 8826TIP3    H150673   2.212   5.298   8.411  0.5080 -0.8606  0.1246
 8826TIP3    H250674   2.158   5.171   8.473 -0.1268 -0.1403  1.0722
 8827TIP3   OH250675   3.183   3.730  10.068  0.3483  0.0707  0.9529
 8827TIP3    H150676   3.189   3.669   9.995 -0.3243  0.3984  0.6118
 8827TIP3    H250677   3.257   3.707  10.124  0.1218 -1.0350  0.8237
 8828TIP3   OH250678   2.912   2.351  12.345  0.2636 -0.3041  0.1290
 8828TIP3    H150679   2.907   2.332  12.251 -0.2681  0.4307  0.0064
 8828TIP3    H250680   2.986   2.411  12.353 -0.3568  0.4870  0.0320
 8829TIP3   OH250681   2.079   0.217  11.767  0.1336 -0.6413 -0.1047
 8829TIP3    H150682   2.117   0.209  11.855  0.5940  0.0253 -0.2330
 8829TIP3    H250683   1.994   0.258  11.781 -0.3727 -1.7445  0.1454
 8830TIP3   OH250684   1.847   5.617  10.360 -0.4145 -0.2322  0.1104
 8830TIP3    H150685   1.774   5.594  10.304  0.3050  0.0504 -0.9737
 8830TIP3    H250686   1.925   5.586  10.313  0.3981  2.1268 -0.2737
 8831TIP3   OH250687   0.553   3.262  10.558 -0.1389 -0.7418 -0.2777
 8831TIP3    H150688   0.508   3.342  10.531 -0.9847 -1.5450 -1.3119
 8831TIP3    H250689   0.524   3.248  10.649  0.6755  0.5524  0.2065
 8832TIP3   OH250690   0.019   2.157   8.848  0.1949  0.3904 -0.5153
 8832TIP3    H150691   0.050   2.177   8.936 -2.2295 -0.4499  0.6103
 8832TIP3    H250692   0.057   2.072   8.827 -0.2570 -0.0148  0.2800
 8833TIP3   OH250693   0.245   2.879   9.399  0.0904 -0.4956  0.3207
 8833TIP3    H150694   0.212   2.794   9.428  0.1464 -0.6775 -0.1424
 8833TIP3    H250695   0.332   2.861   9.363  0.1797 -0.2158  0.3886
 8834TIP3   OH250696   2.984   6.307   9.462 -0.9599  0.6338  0.1421
 8834TIP3    H150697   2.940   6.318   9.378 -0.7609  1.4306  0.1347
 8834TIP3    H250698   2.917   6.329   9.527 -0.9339  0.6240  0.1719
 8835TIP3   OH250699   3.189   2.483   8.964 -0.0994 -0.5549  0.5494
 8835TIP3    H150700   3.194   2.568   8.921 -2.1139  0.3494  1.9792
 8835TIP3    H250701   3.275   2.473   9.006  0.8387 -0.1438 -1.1897
 8836TIP3   OH250702   5.527   1.089  10.259 -0.5978 -0.2611  0.2167
 8836TIP3    H150703   5.490   1.063  10.174 -1.3751  0.4179  0.3355
 8836TIP3    H250704   5.554   1.180  10.246 -0.3977 -0.2669  0.6000
 8837TIP3   OH250705   1.125   5.247   9.605  0.7144 -0.6784 -0.0485
 8837TIP3    H150706   1.076   5.166   9.590  1.4112 -1.0856 -0.1875
 8837TIP3    H250707   1.202   5.220   9.654  1.5524 -0.2867 -1.1186
 8838TIP3   OH250708   0.075   1.595  10.997 -0.1910  0.6241  1.1663
 8838TIP3    H150709   0.074   1.640  10.913  0.9375  0.4510  1.0393
 8838TIP3    H250710   0.049   1.505  10.976 -0.3196  0.6823  1.0747
 8839TIP3   OH250711   5.111   6.596  11.012  0.3274 -0.1190 -0.5148
 8839TIP3    H150712   5.071   6.592  11.098 -0.7551 -1.4455 -1.0456
 8839TIP3    H250713   5.062   6.663  10.965 -0.4895 -0.8675 -0.7571
 8840TIP3   OH250714   3.967   6.115   9.523  0.7711 -0.3653 -0.4653
 8840TIP3    H150715   3.912   6.083   9.594 -0.2277  0.7757 -0.7033
 8840TIP3    H250716   4.051   6.136   9.564  0.1869  0.3363  0.3764
 8841TIP3   OH250717   1.125   6.230   9.435 -0.0987  0.4478 -0.0510
 8841TIP3    H150718   1.033   6.204   9.446  0.3994 -1.1818  0.6124
 8841TIP3    H250719   1.128   6.320   9.466 -1.4747  0.5301 -0.0893
 8842TIP3   OH250720   2.596   4.902   9.448 -0.3890 -0.0272 -0.3159
 8842TIP3    H150721   2.610   4.925   9.540 -2.5768  2.3750 -0.4584
 8842TIP3    H250722   2.501   4.904   9.437 -0.2573 -1.7067 -2.3441
 8843TIP3   OH250723   6.209   2.561  10.094 -0.4399  0.0064  0.0082
 8843TIP3    H150724   6.125   2.516  10.097 -0.5014  0.1677  0.8901
 8843TIP3    H250725   6.214   2.610  10.176 -0.2495  1.4029 -0.8119
 8844TIP3   OH250726   3.303   1.312  10.550  0.6537 -0.2466  0.1280
 8844TIP3    H150727   3.237   1.244  10.536  0.0548  0.2865  0.3176
 8844TIP3    H250728   3.379   1.281  10.502 -0.5905  0.4299 -2.4173
 8845TIP3   OH250729   3.329   5.350  10.012 -0.0247 -0.2675 -0.1452
 8845TIP3    H150730   3.383   5.290  10.062 -1.8489 -0.5799  1.5980
 8845TIP3    H250731   3.320   5.427  10.068 -2.2986 -0.7155  0.2033
 8846TIP3   OH250732   3.247   3.316  10.741 -0.5952  0.1497  0.0019
 8846TIP3    H150733   3.159   3.355  10.743 -0.6245  0.0518  1.2400
 8846TIP3    H250734   3.244   3.246  10.805 -0.0909 -0.9669 -1.1556
 8847TIP3   OH250735   6.248   1.480  10.410  0.1561 -0.1531 -0.4792
 8847TIP3    H150736   6.233   1.482  10.315  2.2369  1.2816 -0.8317
 8847TIP3    H250737   6.305   1.554  10.427  0.7932 -1.0798  1.7521
 8848TIP3   OH250738   1.572   0.522   9.167  0.2383 -0.3780  0.3724
 8848TIP3    H150739   1.622   0.591   9.125  1.1748 -1.1364  0.2065
 8848TIP3    H250740   1.497   0.567   9.207  0.1220  0.5503 -0.8350
 8849TIP3   OH250741   0.728   0.275   9.172 -0.3117 -0.0807  0.0664
 8849TIP3    H150742   0.784   0.329   9.115 -1.2728  0.5879 -0.2631
 8849TIP3    H250743   0.789   0.238   9.236  0.6781 -0.2328 -0.9212
 8850TIP3   OH250744   5.373   2.539   9.940 -0.2783 -0.0300 -0.4160
 8850TIP3    H150745   5.329   2.460   9.909 -0.4619 -0.0485 -0.1153
 8850TIP3    H250746   5.466   2.517   9.940 -0.2860 -0.0702 -0.8319
 8851TIP3   OH250747   2.284   0.377  10.453  0.4018 -0.8492 -0.5316
 8851TIP3    H150748   2.210   0.393  10.395  1.7385  2.0134 -1.6218
 8851TIP3    H250749   2.292   0.281  10.456 -2.9135 -1.2387 -0.8071
 8852TIP3   OH250750   3.358   2.175   8.609 -0.0969  0.3916 -0.0814
 8852TIP3    H150751   3.390   2.089   8.635 -1.4255 -0.3580 -0.8377
 8852TIP3    H250752   3.293   2.198   8.675 -1.5788 -0.3556 -1.2109
 8853TIP3   OH250753   1.218   4.043  10.714  0.2541 -0.4815  0.1297
 8853TIP3    H150754   1.138   4.073  10.758 -0.1371 -0.6681 -0.4474
 8853TIP3    H250755   1.245   3.965  10.764  0.4972  0.0010  0.7751
 8854TIP3   OH250756   4.255   2.575   8.957 -0.4751 -0.4502  0.5399
 8854TIP3    H150757   4.218   2.488   8.947 -0.6553 -0.4766  1.3507
 8854TIP3    H250758   4.349   2.561   8.962 -0.5231 -0.6362  0.9834
 8855TIP3   OH250759   0.372   0.980  12.328  0.2994 -0.0882 -0.1211
 8855TIP3    H150760   0.281   1.005  12.316  0.8158  1.4218 -1.2010
 8855TIP3    H250761   0.378   0.892  12.290 -0.5451  0.0935 -0.6948
 8856TIP3   OH250762   3.059   3.949  11.086 -0.2899  0.5885  0.0345
 8856TIP3    H150763   3.025   4.014  11.025 -0.2015 -0.6639 -1.4251
 8856TIP3    H250764   2.988   3.884  11.094  0.4815 -0.3437 -0.4451
 8857TIP3   OH250765   0.540   5.613   9.491 -0.3684  0.2891  0.3699
 8857TIP3    H150766   0.580   5.542   9.539 -0.6482  0.9070  1.5533
 8857TIP3    H250767   0.457   5.629   9.536 -1.0100  0.3744 -0.7961
 8858TIP3   OH250768   1.512   1.300   9.629 -0.0564  0.2092 -0.5740
 8858TIP3    H150769   1.446   1.333   9.569  0.5888 -1.6455 -2.4355
 8858TIP3    H250770   1.590   1.288   9.574  0.8095 -0.8196  0.8070
 8859TIP3   OH250771   2.708   1.532  10.926 -0.4196  0.5348  0.1325
 8859TIP3    H150772   2.629   1.569  10.966 -0.4655 -0.3388  0.8681
 8859TIP3    H250773   2.689   1.439  10.916  0.4247  0.3598  0.0772
 8860TIP3   OH250774   4.627   5.742  11.966  0.3211 -0.5165 -0.3768
 8860TIP3    H150775   4.633   5.804  12.039 -0.9736 -0.6779 -0.0963
 8860TIP3    H250776   4.616   5.798  11.889  0.4049 -0.3713 -0.2848
 8861TIP3   OH250777   4.573   4.850  11.521  0.1377 -0.1199  0.3324
 8861TIP3    H150778   4.550   4.923  11.464  0.3423 -0.2159  0.1231
 8861TIP3    H250779   4.569   4.887  11.609 -2.1459 -0.4768  0.4315
 8862TIP3   OH250780   0.181   4.520   9.416 -0.2644 -0.2160  0.3929
 8862TIP3    H150781   0.089   4.540   9.399 -0.5076 -1.7212 -0.3039
 8862TIP3    H250782   0.229   4.560   9.343 -0.3563  0.6273  0.7941
 8863TIP3   OH250783   4.702   4.672   8.815 -0.6144 -0.2122  0.1208
 8863TIP3    H150784   4.764   4.605   8.784  0.6366  1.0897 -0.2624
 8863TIP3    H250785   4.717   4.676   8.910  1.9541  2.0270 -0.2768
 8864TIP3   OH250786   2.177   3.863   9.289 -0.3169  0.6489  0.0425
 8864TIP3    H150787   2.141   3.935   9.237 -0.3912  0.9458  0.4928
 8864TIP3    H250788   2.115   3.791   9.278 -0.1240  0.5772 -0.5941
 8865TIP3   OH250789   3.415   2.068  10.893 -0.1745 -0.7775  0.0932
 8865TIP3    H150790   3.468   1.996  10.928  0.7106 -0.5189 -0.6789
 8865TIP3    H250791   3.473   2.144  10.896 -0.8311 -0.2677  0.1327
 8866TIP3   OH250792   3.298   6.612   9.033  0.1295 -0.0447  0.4180
 8866TIP3    H150793   3.285   6.627   9.127 -2.2423  0.9867  0.0133
 8866TIP3    H250794   3.211   6.591   9.001  1.0550 -1.2280 -1.4466
 8867TIP3   OH250795   5.699   6.198   9.549  0.1700  0.0929 -0.4371
 8867TIP3    H150796   5.632   6.209   9.616 -0.3289 -0.5268 -0.8301
 8867TIP3    H250797   5.717   6.104   9.548 -0.3682 -0.0171 -1.6833
 8868TIP3   OH250798   0.269   1.107  11.960  0.5861  0.3423  0.1595
 8868TIP3    H150799   0.329   1.033  11.963  1.6262  1.1930  2.9903
 8868TIP3    H250800   0.205   1.090  12.028 -0.5074  1.0115 -0.6575
 8869TIP3   OH250801   1.059   0.117   9.900 -0.1775  0.2139  0.0917
 8869TIP3    H150802   1.141   0.078   9.872 -0.8723 -0.3602 -1.2394
 8869TIP3    H250803   1.029   0.166   9.824 -1.8034 -0.8225  0.0236
 8870TIP3   OH250804   6.401   1.434  10.132  0.0020 -0.0816 -0.1011
 8870TIP3    H150805   6.495   1.417  10.130 -0.1108 -0.7340  0.0799
 8870TIP3    H250806   6.393   1.523  10.099  0.6744 -0.0571 -0.2212
 8871TIP3   OH250807   1.733   0.478  10.801 -0.4010 -0.0359 -0.5086
 8871TIP3    H150808   1.751   0.530  10.879 -1.3167 -1.6981  0.8552
 8871TIP3    H250809   1.683   0.538  10.744 -0.3604  0.9659  0.4779
 8872TIP3   OH250810   3.259   0.579   8.697  0.5819 -0.2187 -0.4036
 8872TIP3    H150811   3.213   0.585   8.613 -1.4786  0.9828  0.7358
 8872TIP3    H250812   3.240   0.491   8.728 -1.9520  0.5795  0.5192
 8873TIP3   OH250813   2.154   4.494  10.019 -0.2524  0.6192  0.5499
 8873TIP3    H150814   2.169   4.491   9.925 -0.4571  1.2429  0.4924
 8873TIP3    H250815   2.170   4.405  10.049 -1.6704  0.0427 -0.3016
 8874TIP3   OH250816   0.588   6.030  11.367 -0.5137  0.3253  0.4079
 8874TIP3    H150817   0.523   5.975  11.324  0.8387 -1.1605  0.1750
 8874TIP3    H250818   0.616   6.092  11.299  0.2386 -0.7856 -0.3256
 8875TIP3   OH250819   4.223   2.503   9.352 -0.0992  0.1358 -0.1025
 8875TIP3    H150820   4.264   2.561   9.287 -0.5123  2.3301  1.4686
 8875TIP3    H250821   4.131   2.502   9.329  0.0327 -0.6074 -0.6207
 8876TIP3   OH250822   4.765   4.053  10.760  0.3111 -0.0568  0.0930
 8876TIP3    H150823   4.845   4.002  10.765  0.8149  0.3609 -2.4580
 8876TIP3    H250824   4.773   4.117  10.831  2.1478 -0.1447  0.0131
 8877TIP3   OH250825   4.212   3.080  12.131  0.4532 -0.5735  0.4325
 8877TIP3    H150826   4.251   3.007  12.083  0.8337  0.0429 -0.2072
 8877TIP3    H250827   4.284   3.117  12.182 -0.0738 -1.6081  1.9990
 8878TIP3   OH250828   6.373   5.404  10.369 -0.5630  0.0195  0.0523
 8878TIP3    H150829   6.376   5.495  10.339 -0.8903  0.0956  0.2361
 8878TIP3    H250830   6.327   5.357  10.300 -1.2137  0.1724  0.3686
 8879TIP3   OH250831   0.427   2.368  10.963  0.0203 -0.6713 -0.3390
 8879TIP3    H150832   0.342   2.400  10.994 -0.1280 -1.1457 -0.2481
 8879TIP3    H250833   0.483   2.370  11.041  0.1457 -0.1766 -0.4427
 8880TIP3   OH250834   2.380   0.690  10.857  0.3211  0.4130  0.6528
 8880TIP3    H150835   2.348   0.617  10.804 -0.1304 -0.0143  1.4814
 8880TIP3    H250836   2.361   0.768  10.806  0.9090 -0.0452 -0.2982
 8881TIP3   OH250837   6.663   1.246  11.959 -0.6981 -0.2728 -0.2605
 8881TIP3    H150838   6.706   1.179  12.013  0.5787 -0.3327 -1.2915
 8881TIP3    H250839   6.709   1.327  11.981 -2.1500  0.2852  0.8792
 8882TIP3   OH250840   6.618   0.899   8.499  0.1948 -0.2548  0.5667
 8882TIP3    H150841   6.595   0.977   8.449  1.7473 -0.3298 -0.3195
 8882TIP3    H250842   6.701   0.920   8.540  0.0704 -1.0465  1.2548
 8883TIP3   OH250843   6.303   5.721   9.871 -0.0994  0.1803 -0.3351
 8883TIP3    H150844   6.325   5.813   9.878 -0.8250  0.2511  1.6141
 8883TIP3    H250845   6.387   5.676   9.861  0.4887  0.8595  1.3998
 8884TIP3   OH250846   3.440   2.938   9.599  0.1919  0.1915  0.0790
 8884TIP3    H150847   3.472   2.904   9.682  1.9038  3.0789  0.7337
 8884TIP3    H250848   3.354   2.974   9.618  0.9527  1.6618  0.9023
 8885TIP3   OH250849   6.226   1.481  11.379  0.3727 -0.1456  0.3554
 8885TIP3    H150850   6.285   1.485  11.304 -0.7706  3.0344 -0.5481
 8885TIP3    H250851   6.184   1.567  11.381 -2.6890 -1.5141  2.2222
 8886TIP3   OH250852   3.863   2.802  11.291 -0.1272 -0.1652  0.1153
 8886TIP3    H150853   3.918   2.875  11.260 -1.3782  0.8424  0.1676
 8886TIP3    H250854   3.918   2.756  11.354  0.4350  1.2058  0.6720
 8887TIP3   OH250855   0.499   5.540   9.917 -0.0801 -0.3679  0.1963
 8887TIP3    H150856   0.438   5.472   9.888  0.5575 -1.1595  0.6714
 8887TIP3    H250857   0.444   5.617   9.930 -0.7270 -0.6025 -0.9390
 8888TIP3   OH250858   5.072   3.621  11.341 -0.5820 -0.0092 -0.0416
 8888TIP3    H150859   5.154   3.628  11.389  0.4821 -2.2972 -1.3627
 8888TIP3    H250860   5.009   3.670  11.393  0.6382 -1.7625  3.3456
 8889TIP3   OH250861   2.628   1.118   9.814 -0.2867 -0.0525  0.0374
 8889TIP3    H150862   2.611   1.043   9.871 -0.7229 -0.2886 -0.3977
 8889TIP3    H250863   2.708   1.094   9.767 -0.0155  0.0738  0.4257
 8890TIP3   OH250864   2.090   6.229   9.100  0.8468 -0.3076  0.1038
 8890TIP3    H150865   2.068   6.182   9.181 -0.9388 -1.5146 -1.0038
 8890TIP3    H250866   2.183   6.212   9.087  0.3127 -3.7064 -0.2482
 8891TIP3   OH250867   1.876   4.106  10.653  0.4061 -0.0872 -0.1981
 8891TIP3    H150868   1.901   4.199  10.652  1.1939 -0.2903 -1.4142
 8891TIP3    H250869   1.940   4.065  10.712 -0.2733  0.2101  0.7694
 8892TIP3   OH250870   6.488   1.248   8.920  0.2546 -0.2733 -0.5599
 8892TIP3    H150871   6.502   1.218   9.009  0.2939  0.3943 -0.3385
 8892TIP3    H250872   6.394   1.265   8.914  0.4295  0.8934 -0.2503
 8893TIP3   OH250873   5.675   2.008  11.027 -0.4496 -0.1001  0.1273
 8893TIP3    H150874   5.712   1.928  11.064  1.2505  0.2563 -0.7143
 8893TIP3    H250875   5.699   2.077  11.090  0.0642  0.0744 -0.2462
 8894TIP3   OH250876   4.422   3.008   9.009  0.2563 -0.0219  0.1434
 8894TIP3    H150877   4.387   2.960   9.084 -2.0101  0.9430 -0.1935
 8894TIP3    H250878   4.497   3.056   9.044  0.3272 -0.9642  1.3465
 8895TIP3   OH250879   0.117   3.383  10.087  0.4687 -0.9000 -0.4256
 8895TIP3    H150880   0.054   3.319  10.054  1.0533 -1.1708 -1.0519
 8895TIP3    H250881   0.200   3.358  10.046  1.2448 -1.2673  1.2809
 8896TIP3   OH250882   5.261   2.026  10.987  0.5274 -0.0876  0.1518
 8896TIP3    H150883   5.317   1.956  10.953  0.2415 -0.4346  0.3907
 8896TIP3    H250884   5.283   2.031  11.080  2.3944  1.8615 -0.3131
 8897TIP3   OH250885   0.258   2.855  10.245  0.0188  0.0541  0.1352
 8897TIP3    H150886   0.315   2.793  10.292 -0.9814 -0.5474  0.6040
 8897TIP3    H250887   0.208   2.800  10.184 -0.1384  0.5479 -0.1864
 8898TIP3   OH250888   2.768   2.219  12.616  0.5073 -0.2917 -0.2210
 8898TIP3    H150889   2.723   2.169  12.547  0.9409 -0.9416 -0.0331
 8898TIP3    H250890   2.769   2.309  12.583  2.0736 -0.8292 -1.8069
 8899TIP3   OH250891   6.118   6.041  10.936  0.0623  0.0649  0.4808
 8899TIP3    H150892   6.156   6.023  11.022  0.8166  0.8723  0.3338
 8899TIP3    H250893   6.028   6.068  10.954 -0.1301 -0.8227  0.9234
 8900TIP3   OH250894   1.299   4.612   9.066 -0.1715  0.1188  0.4160
 8900TIP3    H150895   1.233   4.552   9.099  0.6959 -1.3386 -0.4065
 8900TIP3    H250896   1.378   4.590   9.114  0.4469 -0.2414 -0.7183
 8901TIP3   OH250897   2.831   6.102   8.759 -0.1732  0.0376  0.2005
 8901TIP3    H150898   2.751   6.150   8.739 -0.2981  0.6374  1.9274
 8901TIP3    H250899   2.804   6.034   8.821  0.7392  0.7052  1.3709
 8902TIP3   OH250900   3.605   5.395  10.544 -0.0352  0.0523  0.2756
 8902TIP3    H150901   3.584   5.475  10.593 -0.5565 -0.7819  1.4829
 8902TIP3    H250902   3.545   5.396  10.469 -0.5773  0.4159  0.7045
 8903TIP3   OH250903   0.178   5.963   9.307 -0.3316  0.1806  1.1039
 8903TIP3    H150904   0.142   6.013   9.381  0.2724 -0.0079  1.5315
 8903TIP3    H250905   0.264   6.001   9.291 -0.2592 -0.1020  0.8158
 8904TIP3   OH250906   3.343   4.985  11.364 -0.0276  0.1001  0.2557
 8904TIP3    H150907   3.404   4.930  11.414 -0.1652  1.3046  1.8340
 8904TIP3    H250908   3.396   5.021  11.293  0.5219 -0.6458  0.2804
 8905TIP3   OH250909   0.894   1.852  11.592  0.2416 -0.2945 -0.0217
 8905TIP3    H150910   0.917   1.807  11.674  1.1590  1.4258  0.7166
 8905TIP3    H250911   0.806   1.887  11.609  0.7074  0.6457  0.5118
 8906TIP3   OH250912   3.183   0.970   8.924  0.2603 -0.5795  0.1028
 8906TIP3    H150913   3.246   0.920   8.975  0.7816  0.5778  0.6402
 8906TIP3    H250914   3.215   1.060   8.929 -2.3134  0.3668  1.8415
 8907TIP3   OH250915   0.161   4.505  11.546  0.2174  0.1200  0.3410
 8907TIP3    H150916   0.172   4.421  11.591  1.6658 -0.0216 -0.2266
 8907TIP3    H250917   0.076   4.499  11.504  0.9245 -1.7029 -0.9636
 8908TIP3   OH250918   5.262   3.723   9.107  0.3066  0.6621  0.0668
 8908TIP3    H150919   5.200   3.654   9.129  0.1247  0.4166 -1.1660
 8908TIP3    H250920   5.207   3.798   9.084  0.2968 -0.2323 -3.3403
 8909TIP3   OH250921   3.665   4.436  12.061 -0.5310 -0.2241 -0.3685
 8909TIP3    H150922   3.623   4.406  12.142  2.8595  0.7890  2.0153
 8909TIP3    H250923   3.628   4.523  12.045  0.5582  0.7236  1.7731
 8910TIP3   OH250924   1.369   4.462   9.691 -0.0356 -0.7398 -0.2789
 8910TIP3    H150925   1.440   4.426   9.743  0.8429  0.9494 -0.2382
 8910TIP3    H250926   1.295   4.469   9.752  0.7326  0.4406  0.5620
 8911TIP3   OH250927   5.324   4.816   9.237 -0.4795 -0.0437  0.1997
 8911TIP3    H150928   5.305   4.827   9.144 -0.0376 -0.6678  0.0246
 8911TIP3    H250929   5.243   4.840   9.281 -0.2964  1.4989 -0.2596
 8912TIP3   OH250930   3.359   3.093  10.144  0.3236  0.4873  0.2088
 8912TIP3    H150931   3.382   3.039  10.220  0.9792 -0.2229 -0.4758
 8912TIP3    H250932   3.412   3.172  10.155 -0.8647  1.1530  1.3724
 8913TIP3   OH250933   1.038   1.918   8.540 -0.2885 -0.0929  0.3457
 8913TIP3    H150934   1.017   2.009   8.517 -0.6916 -0.2515  0.0671
 8913TIP3    H250935   0.958   1.870   8.520  0.4799 -0.7885 -1.1594
 8914TIP3   OH250936   0.932   1.487   8.615 -0.0804  0.3159 -0.0432
 8914TIP3    H150937   0.903   1.461   8.702  0.4249  2.1121  0.7063
 8914TIP3    H250938   0.940   1.582   8.620 -1.5149  0.6554 -2.5067
 8915TIP3   OH250939   5.979   0.492   9.498  0.2232  0.0595 -0.0413
 8915TIP3    H150940   5.988   0.443   9.416 -0.0167  0.5606 -0.3691
 8915TIP3    H250941   5.903   0.453   9.542  0.0639  0.1076 -0.2773
 8916TIP3   OH250942   4.166   4.168   9.084 -0.5825  0.6366  0.2389
 8916TIP3    H150943   4.175   4.120   9.002 -1.1139  0.1050  0.4856
 8916TIP3    H250944   4.073   4.191   9.088 -0.2264  2.2584 -0.1824
 8917TIP3   OH250945   1.994   2.065   8.596  0.5091 -0.1219  0.0489
 8917TIP3    H150946   2.013   2.078   8.689 -0.5145 -1.1983  0.4379
 8917TIP3    H250947   2.021   2.147   8.554  2.1871 -0.1011  1.0858
 8918TIP3   OH250948   4.540   6.383  11.092 -0.1058  0.5211  0.4254
 8918TIP3    H150949   4.518   6.422  11.007 -0.9023 -1.2704 -0.2423
 8918TIP3    H250950   4.635   6.377  11.092 -0.1419 -0.3052 -0.7565
 8919TIP3   OH250951   4.670   5.888  11.734  0.0079 -0.4625 -0.5920
 8919TIP3    H150952   4.595   5.849  11.689  0.2723 -0.3606 -1.1266
 8919TIP3    H250953   4.637   5.970  11.770  0.4659  0.8312 -2.9547
 8920TIP3   OH250954   2.023   0.200  11.474 -0.1413  0.0831  0.5173
 8920TIP3    H150955   1.929   0.205  11.492 -0.3508 -0.5155 -0.3347
 8920TIP3    H250956   2.062   0.169  11.555 -0.6567  0.4758  0.9227
 8921TIP3   OH250957   2.405   5.465  10.069  0.3351 -0.3992  0.5761
 8921TIP3    H150958   2.362   5.431   9.991 -0.7672 -0.4765  1.2001
 8921TIP3    H250959   2.430   5.387  10.119 -2.7549 -0.4557  2.3143
 8922TIP3   OH250960   5.652   1.310  11.383 -0.8630 -0.6779 -0.1668
 8922TIP3    H150961   5.608   1.385  11.343  0.1371  0.4522  0.7411
 8922TIP3    H250962   5.642   1.324  11.477 -1.4368 -2.2019  0.0290
 8923TIP3   OH250963   4.670   3.943   8.607 -0.0195 -0.2160  0.4156
 8923TIP3    H150964   4.740   3.962   8.544  0.0070  0.3396  0.6065
 8923TIP3    H250965   4.709   3.963   8.692 -0.2582 -0.3624  0.5600
 8924TIP3   OH250966   1.471   4.449  10.025 -0.0182  0.1329 -0.1384
 8924TIP3    H150967   1.516   4.420  10.104 -0.8941  0.1761  0.3829
 8924TIP3    H250968   1.540   4.455   9.959  0.8310  0.6816  0.7684
 8925TIP3   OH250969   6.367   2.302  10.901  0.0535  0.1271  0.3391
 8925TIP3    H150970   6.310   2.318  10.976 -0.6054  0.2884 -0.1771
 8925TIP3    H250971   6.380   2.207  10.900  0.8936  0.2227  1.2327
 8926TIP3   OH250972   4.117   0.456  10.327  0.4613  0.2244 -0.4221
 8926TIP3    H150973   4.208   0.464  10.356  1.0081  0.2752 -2.0351
 8926TIP3    H250974   4.110   0.367  10.294 -0.5434 -0.2941  1.0600
 8927TIP3   OH250975   2.875   4.766  11.328  0.3842  0.1445  0.4010
 8927TIP3    H150976   2.965   4.733  11.336  0.4481  0.1203 -0.3891
 8927TIP3    H250977   2.861   4.815  11.409  1.6511  1.4136 -0.0958
 8928TIP3   OH250978   3.383   1.205   9.583 -0.0732  0.3851  0.3540
 8928TIP3    H150979   3.452   1.192   9.518  1.2677 -0.9409  1.9327
 8928TIP3    H250980   3.360   1.297   9.576 -1.3277 -0.0356 -3.2101
 8929TIP3   OH250981   2.463   2.450  10.440  0.5792  0.0607  0.2799
 8929TIP3    H150982   2.552   2.441  10.407  0.4476 -0.3066  0.0124
 8929TIP3    H250983   2.460   2.392  10.517  0.8582  0.8427  0.8976
 8930TIP3   OH250984   5.429   3.561  10.652  0.2140  0.0348 -0.2326
 8930TIP3    H150985   5.335   3.542  10.655 -0.1752  0.9447 -3.2872
 8930TIP3    H250986   5.470   3.477  10.634 -0.2929  0.0482 -1.5063
 8931TIP3   OH250987   4.725   3.558   9.185  0.1989 -0.1604  0.3705
 8931TIP3    H150988   4.798   3.496   9.189 -0.2774 -0.8433 -1.0725
 8931TIP3    H250989   4.653   3.512   9.229  0.4837  0.3367  1.3961
 8932TIP3   OH250990   5.422   1.627   8.713 -0.4939 -0.5643  0.2467
 8932TIP3    H150991   5.366   1.614   8.789  0.2870 -0.6506  0.8149
 8932TIP3    H250992   5.473   1.546   8.706  1.2573  0.3809  1.1777
 8933TIP3   OH250993   5.145   6.215   9.497 -0.0496 -0.5332 -0.2898
 8933TIP3    H150994   5.170   6.278   9.429  0.3418  0.0629  0.3999
 8933TIP3    H250995   5.139   6.267   9.577 -0.7363 -1.1907  0.0954
 8934TIP3   OH250996   3.964   0.727  10.474  0.1005 -0.3964  0.2013
 8934TIP3    H150997   3.907   0.804  10.483 -1.2522 -1.2299 -0.9022
 8934TIP3    H250998   3.946   0.694  10.386  1.8455 -1.0770  0.0624
 8935TIP3   OH250999   4.409   5.571  10.405  0.5775  0.1375  0.2749
 8935TIP3    H151000   4.359   5.651  10.395  0.1800 -0.0774  0.4870
 8935TIP3    H251001   4.475   5.574  10.337  1.2832  1.1731  0.9830
 8936TIP3   OH251002   0.805   3.552   8.456  0.1110  0.0234  0.1603
 8936TIP3    H151003   0.715   3.581   8.441 -0.0083 -0.9530 -1.1075
 8936TIP3    H251004   0.854   3.633   8.466 -0.7995  0.5865  0.2397
 8937TIP3   OH251005   3.868   1.443  10.673  0.3182  0.1245  0.0550
 8937TIP3    H151006   3.848   1.440  10.580 -2.4270 -1.5547  0.5991
 8937TIP3    H251007   3.849   1.355  10.705 -0.9021  1.1840  2.5532
 8938TIP3   OH251008   2.915   4.634   8.992 -0.4758 -0.0177  0.3798
 8938TIP3    H151009   3.009   4.649   8.984 -0.4444 -0.0240  0.7277
 8938TIP3    H251010   2.879   4.718   9.020 -0.5759 -0.0109  0.2303
 8939TIP3   OH251011   1.385   0.955  11.464 -0.0357 -0.3100  0.0999
 8939TIP3    H151012   1.352   1.036  11.425 -0.7600 -0.0016  1.2856
 8939TIP3    H251013   1.462   0.982  11.514 -0.2851 -0.3365  0.5063
 8940TIP3   OH251014   6.591   0.645  11.403  0.2779  0.6579 -0.3443
 8940TIP3    H151015   6.559   0.713  11.344  1.3463  1.9745  0.5366
 8940TIP3    H251016   6.549   0.663  11.487  0.6782  0.3224 -0.0645
 8941TIP3   OH251017   1.897   5.625  10.633  0.2912  0.6031 -0.2795
 8941TIP3    H151018   1.867   5.622  10.542 -0.2724 -1.3584 -0.0787
 8941TIP3    H251019   1.979   5.576  10.632  0.6100  1.1275  0.1627
 8942TIP3   OH251020   6.183   0.084   9.763 -0.5777  0.5514  0.1830
 8942TIP3    H151021   6.269   0.046   9.742 -0.1646  1.0866  0.8507
 8942TIP3    H251022   6.149   0.113   9.679 -0.4878 -0.4346 -0.2077
 8943TIP3   OH251023   5.341   2.208   8.977 -0.3260 -0.4125  0.4377
 8943TIP3    H151024   5.426   2.183   8.940 -0.4914 -0.9998  0.4447
 8943TIP3    H251025   5.322   2.294   8.938 -1.1941 -1.6300 -2.0890
 8944TIP3   OH251026   2.673   1.069   8.984 -0.4941 -0.2862  0.3667
 8944TIP3    H151027   2.760   1.069   9.023  0.0581 -1.5203 -0.7856
 8944TIP3    H251028   2.677   1.137   8.916  0.1954 -1.5591 -0.9169
 8945TIP3   OH251029   6.497   2.827  10.802 -0.0480 -0.1256  0.2642
 8945TIP3    H151030   6.533   2.914  10.817  0.3423 -0.5877  2.2655
 8945TIP3    H251031   6.547   2.793  10.728  0.6312  0.8964  0.2359
 8946TIP3   OH251032   0.120   2.450   9.226 -0.8303 -0.4496  0.1023
 8946TIP3    H151033   0.145   2.460   9.318  1.5718 -0.7406 -0.4679
 8946TIP3    H251034   0.141   2.535   9.186 -0.0569 -0.9422 -0.5537
 8947TIP3   OH251035   0.094   0.543   8.725  0.2874 -0.1360 -0.4757
 8947TIP3    H151036   0.051   0.621   8.758 -0.7244 -0.2885 -1.3741
 8947TIP3    H251037   0.167   0.527   8.786  1.5113  2.3971 -1.1436
 8948TIP3   OH251038   1.067   6.373   8.343 -0.1494  0.9712  0.1337
 8948TIP3    H151039   1.143   6.418   8.379  0.4799  1.6440 -1.8502
 8948TIP3    H251040   0.998   6.439   8.344  0.5579  1.8761 -2.0381
 8949TIP3   OH251041   5.004   2.556  10.439 -0.3321 -0.3195 -0.1990
 8949TIP3    H151042   5.025   2.463  10.426 -0.5351 -0.5395  0.9982
 8949TIP3    H251043   4.996   2.566  10.533 -2.0095  0.5599 -0.4108
 8950TIP3   OH251044   0.548   0.185  10.518  0.1833 -0.4209 -1.0548
 8950TIP3    H151045   0.607   0.238  10.464 -0.4965 -0.6107 -1.9992
 8950TIP3    H251046   0.461   0.205  10.485 -0.4286  0.6471  1.0033
 8951TIP3   OH251047   1.891   2.610  10.660 -0.0956  0.4705  0.2502
 8951TIP3    H151048   1.842   2.527  10.662 -0.6767  0.8146  0.4463
 8951TIP3    H251049   1.980   2.584  10.640 -0.2494 -0.2224  0.4335
 8952TIP3   OH251050   3.947   4.504   8.303 -0.2140 -0.5170 -0.3559
 8952TIP3    H151051   4.027   4.464   8.335  0.7396  1.0661 -0.6411
 8952TIP3    H251052   3.887   4.431   8.290  0.8358 -1.6396  0.8002
 8953TIP3   OH251053   3.696   2.067   9.828  0.0070  0.0482 -0.3174
 8953TIP3    H151054   3.768   2.129   9.831  0.5846 -0.6584  1.6996
 8953TIP3    H251055   3.624   2.112   9.872 -0.8135  0.7033 -2.2113
 8954TIP3   OH251056   0.835   1.870  10.950 -0.1046 -0.2347  0.3635
 8954TIP3    H151057   0.783   1.949  10.933  0.6053  0.0179 -0.7057
 8954TIP3    H251058   0.924   1.901  10.965  0.3925 -0.8686 -1.0552
 8955TIP3   OH251059   1.293   2.980  10.695 -0.3883  0.0624  0.3864
 8955TIP3    H151060   1.261   3.055  10.645 -1.3219  0.2359  1.2343
 8955TIP3    H251061   1.387   2.977  10.674 -0.4091  1.2153  0.0293
 8956TIP3   OH251062   4.141   5.833  11.431  0.1014  0.3793 -0.4006
 8956TIP3    H151063   4.237   5.837  11.421  0.3964 -2.1353  0.5532
 8956TIP3    H251064   4.125   5.851  11.523 -0.1632 -0.7733 -0.2073
 8957TIP3   OH251065   2.329   5.620  11.221 -0.3099 -0.2322 -0.1456
 8957TIP3    H151066   2.327   5.653  11.131  1.2947  0.8379  0.1728
 8957TIP3    H251067   2.364   5.532  11.213 -1.4437 -0.6489 -0.6869
 8958TIP3   OH251068   5.048   6.147  11.972 -0.4363  0.3332  0.4159
 8958TIP3    H151069   5.125   6.143  12.028 -1.2563  0.3719  1.5787
 8958TIP3    H251070   5.051   6.234  11.932 -0.5791  0.8596  1.5108
 8959TIP3   OH251071   5.831   6.636  10.812 -0.2450  0.3171  0.4529
 8959TIP3    H151072   5.735   6.633  10.806 -0.3448  2.4749  0.3674
 8959TIP3    H251073   5.854   6.725  10.787  1.9127 -0.4985 -0.7167
 8960TIP3   OH251074   6.585   5.659   9.239  0.0121 -0.6550  0.1753
 8960TIP3    H151075   6.665   5.701   9.271 -0.2686 -1.3904  1.9752
 8960TIP3    H251076   6.535   5.640   9.319 -1.4037 -1.3161 -0.8354
 8961TIP3   OH251077   0.441   0.669  10.244 -0.7181  0.2936 -0.0731
 8961TIP3    H151078   0.488   0.739  10.290  0.7719  0.3476 -1.5823
 8961TIP3    H251079   0.401   0.712  10.169  2.0401 -0.6976 -2.2851
 8962TIP3   OH251080   0.969   2.195   8.444  0.1228 -0.1208 -0.2876
 8962TIP3    H151081   0.889   2.200   8.391  0.2771  1.2368 -0.4185
 8962TIP3    H251082   1.001   2.285   8.448  2.3515 -0.7920 -1.2904
 8963TIP3   OH251083   6.101   6.207  11.359  0.2110 -0.1894  0.2147
 8963TIP3    H151084   6.059   6.121  11.354 -0.8992  0.3630 -0.3530
 8963TIP3    H251085   6.117   6.231  11.267 -0.2039  0.5447  0.3307
 8964TIP3   OH251086   4.766   6.239  11.277  0.0771  0.0977  0.1446
 8964TIP3    H151087   4.699   6.225  11.344  0.2075  0.7421  0.4166
 8964TIP3    H251088   4.800   6.152  11.259  0.7546  0.0117  1.6659
 8965TIP3   OH251089   6.142   6.290   9.841 -0.3082  0.2844 -0.1624
 8965TIP3    H151090   6.192   6.350   9.897  0.2745 -0.2744 -0.0843
 8965TIP3    H251091   6.101   6.229   9.902  0.0937 -0.1484 -0.3246
 8966TIP3   OH251092   3.021   1.547  11.497  0.1514  0.4882  0.3968
 8966TIP3    H151093   3.072   1.628  11.496  0.1518  0.5050  1.0606
 8966TIP3    H251094   2.951   1.561  11.434  0.1654  1.0009  0.4955
 8967TIP3   OH251095   6.146   2.088   9.022 -0.5071 -0.1983  0.3717
 8967TIP3    H151096   6.200   2.015   8.994  1.9477  1.2619  1.0352
 8967TIP3    H251097   6.139   2.144   8.944 -0.9065 -0.2827  0.3443
 8968TIP3   OH251098   4.312   3.517  10.744  0.0751  0.8859  0.1862
 8968TIP3    H151099   4.244   3.583  10.760  1.3769  2.5141 -0.7129
 8968TIP3    H251100   4.293   3.448  10.807 -1.3514  2.1055  1.1750
 8969TIP3   OH251101   5.872   5.233   9.468 -0.5132  0.2390  0.6494
 8969TIP3    H151102   5.839   5.191   9.547 -0.0271 -0.7288  0.3658
 8969TIP3    H251103   5.967   5.220   9.472 -0.5424 -0.4618 -0.4241
 8970TIP3   OH251104   5.039   0.568   9.840  0.2919 -0.2313  0.0807
 8970TIP3    H151105   4.983   0.643   9.860  0.6432 -0.5136  2.3417
 8970TIP3    H251106   5.072   0.586   9.752  0.2880  2.2320  0.5004
 8971TIP3   OH251107   1.844   4.312   9.042 -0.0904 -0.2829  0.3733
 8971TIP3    H151108   1.779   4.351   8.983  0.1372 -1.2419 -0.5334
 8971TIP3    H251109   1.921   4.297   8.987  0.3259 -0.7017  1.0517
 8972TIP3   OH251110   5.167   5.190   9.074  0.3520  0.1039 -0.4216
 8972TIP3    H151111   5.149   5.267   9.128 -1.4401  0.5285 -1.5471
 8972TIP3    H251112   5.082   5.163   9.041  1.2550 -0.6790 -2.2736
 8973TIP3   OH251113   0.192   1.910   8.815  0.3593  0.0219  0.3943
 8973TIP3    H151114   0.130   1.839   8.801  0.0162  0.2126  0.9304
 8973TIP3    H251115   0.276   1.875   8.786  0.1830 -0.5805  0.6177
 8974TIP3   OH251116   0.836   4.183   8.928  0.5179 -0.1076 -0.1910
 8974TIP3    H151117   0.924   4.215   8.950  0.6268 -0.4700 -0.1022
 8974TIP3    H251118   0.851   4.121   8.856  0.6729 -2.3918  1.7043
 8975TIP3   OH251119   3.626   5.452  10.217 -0.2988  0.1688 -0.1163
 8975TIP3    H151120   3.593   5.362  10.220 -0.1428  0.1315  0.5885
 8975TIP3    H251121   3.561   5.503  10.266  0.4502  0.1663  0.8977
 8976TIP3   OH251122   2.470   3.624   8.453  0.0678  0.3074  0.5158
 8976TIP3    H151123   2.484   3.604   8.360 -0.4551 -0.7283  0.6525
 8976TIP3    H251124   2.558   3.633   8.489  0.3790 -2.3089  0.5482
 8977TIP3   OH251125   0.497   0.950  10.567  0.3831  0.3396  0.4444
 8977TIP3    H151126   0.588   0.931  10.545  0.0880  0.2136 -0.7145
 8977TIP3    H251127   0.466   0.871  10.613  0.7473  0.2361  0.5103
 8978TIP3   OH251128   2.103   5.246  11.251 -0.0751 -0.3306 -0.8618
 8978TIP3    H151129   2.030   5.193  11.284  0.5922 -0.6699  0.1383
 8978TIP3    H251130   2.074   5.278  11.166 -1.6223  0.0184 -0.2293
 8979TIP3   OH251131   4.443   3.743   9.124  0.1665  0.0392 -0.1900
 8979TIP3    H151132   4.533   3.754   9.095  0.4753  0.6887  0.9392
 8979TIP3    H251133   4.424   3.823   9.174 -1.3559  0.3587 -1.1926
 8980TIP3   OH251134   4.035   1.809   8.869  0.2476  0.1162  0.0812
 8980TIP3    H151135   4.016   1.881   8.928  0.4214  0.8458 -0.7333
 8980TIP3    H251136   3.999   1.732   8.912  0.3031  0.6425  1.0925
 8981TIP3   OH251137   2.878   4.694  10.792  0.4560 -0.1998  0.2177
 8981TIP3    H151138   2.808   4.634  10.767  0.2821  0.5733 -1.3074
 8981TIP3    H251139   2.958   4.652  10.759  0.3727  0.2210 -0.5426
 8982TIP3   OH251140   5.057   1.429   9.363 -0.5100  0.0102 -0.1035
 8982TIP3    H151141   5.147   1.398   9.357  0.6986  2.5844  2.6803
 8982TIP3    H251142   5.010   1.358   9.407  0.8466 -0.2579  0.9690
 8983TIP3   OH251143   5.144   1.211  11.613  0.2301  0.1766  0.2064
 8983TIP3    H151144   5.154   1.116  11.622  1.3822  0.4080  1.6159
 8983TIP3    H251145   5.087   1.236  11.686  1.6814  0.8208  1.1637
 8984TIP3   OH251146   5.850   2.375   8.780 -0.7608 -0.2039  0.4083
 8984TIP3    H151147   5.888   2.432   8.847  0.3291  0.1451 -0.4890
 8984TIP3    H251148   5.822   2.298   8.829 -1.3341  0.6586  1.4839
 8985TIP3   OH251149   5.550   3.468   9.088  0.4664  0.0990  0.4547
 8985TIP3    H151150   5.571   3.538   9.027  2.0030 -0.3578  0.4132
 8985TIP3    H251151   5.484   3.505   9.146 -1.0340  0.5549 -1.4428
 8986TIP3   OH251152   3.682   0.432   9.674  0.2125  0.0773  0.5647
 8986TIP3    H151153   3.591   0.418   9.648  0.5498 -0.1809 -0.5731
 8986TIP3    H251154   3.720   0.344   9.673  0.7442  0.3052 -0.0940
 8987TIP3   OH251155   5.335   0.299   9.779 -0.2126  0.4648 -0.1183
 8987TIP3    H151156   5.260   0.352   9.804  0.5707  0.8258  1.5945
 8987TIP3    H251157   5.306   0.209   9.788 -0.7829  0.6001 -0.5809
 8988TIP3   OH251158   3.085   2.022   9.634 -0.5383 -0.2405  0.0603
 8988TIP3    H151159   3.145   2.071   9.577  2.1157 -0.1276  2.7082
 8988TIP3    H251160   3.029   2.089   9.673 -1.6252 -0.2005 -1.4795
 8989TIP3   OH251161   0.232   2.793  10.955 -0.3524  0.2212 -0.5280
 8989TIP3    H151162   0.189   2.832  10.880 -0.1251 -0.4211 -1.0012
 8989TIP3    H251163   0.325   2.789  10.930 -0.4790 -1.3477 -0.8288
 8990TIP3   OH251164   5.323   2.302  10.301  0.0751 -0.0336 -0.0601
 8990TIP3    H151165   5.263   2.278  10.372 -1.2229  0.5079 -0.9386
 8990TIP3    H251166   5.279   2.273  10.221  1.4004 -0.4205 -0.6899
 8991TIP3   OH251167   1.047   2.648   8.740  0.1574 -0.5493  0.3082
 8991TIP3    H151168   0.994   2.635   8.819  0.3727 -1.2218  0.3437
 8991TIP3    H251169   1.113   2.579   8.744 -0.3446 -1.1282 -0.9038
 8992TIP3   OH251170   5.677   2.661   9.869 -0.1520  0.1858  0.4219
 8992TIP3    H151171   5.668   2.589   9.931 -1.1909  0.2788  0.3859
 8992TIP3    H251172   5.648   2.625   9.785  0.8012  0.1999  0.0711
 8993TIP3   OH251173   2.023   3.257  10.449 -0.2037  0.4989 -0.5452
 8993TIP3    H151174   2.067   3.242  10.533  0.6494  1.7942 -0.7258
 8993TIP3    H251175   2.083   3.219  10.385 -1.1158 -0.9820 -0.5546
 8994TIP3   OH251176   5.515   1.708   9.233  0.6432 -0.2482 -0.1644
 8994TIP3    H151177   5.434   1.687   9.280  0.3350 -0.5315 -0.8028
 8994TIP3    H251178   5.490   1.779   9.174  0.2517 -1.7773 -1.9616
 8995TIP3   OH251179   2.152   3.814  11.040  0.0300 -0.0197  0.2386
 8995TIP3    H151180   2.223   3.866  11.077  1.6073 -1.6548 -0.3376
 8995TIP3    H251181   2.085   3.812  11.108  0.0077  2.4945  0.3656
 8996TIP3   OH251182   5.999   3.470  11.144 -0.3465  0.8274  0.5319
 8996TIP3    H151183   6.011   3.447  11.236 -1.1133  0.9305  0.6707
 8996TIP3    H251184   5.913   3.434  11.121  0.1210  0.2252 -0.3359
 8997TIP3   OH251185   4.471   4.807   8.904 -0.4630 -0.1024  0.0222
 8997TIP3    H151186   4.412   4.740   8.870  0.3566 -0.6154 -0.4307
 8997TIP3    H251187   4.558   4.767   8.899  0.1348  1.2508 -0.9407
 8998TIP3   OH251188   5.482   5.250   9.500 -0.6018 -0.0571 -0.0034
 8998TIP3    H151189   5.461   5.232   9.409 -0.1060  0.4332 -0.2253
 8998TIP3    H251190   5.403   5.290   9.536 -0.4653  0.6639 -0.4901
 8999TIP3   OH251191   2.652   3.043  10.377 -0.1677  0.5848 -0.2592
 8999TIP3    H151192   2.674   2.951  10.363 -0.1162  0.6761 -0.7876
 8999TIP3    H251193   2.688   3.088  10.301  0.0029  1.0760  0.1090
 9000TIP3   OH251194   4.813   1.664   8.749 -0.5799  0.0507  0.0390
 9000TIP3    H151195   4.851   1.593   8.697 -0.2740 -0.5622  1.0758
 9000TIP3    H251196   4.824   1.742   8.694  1.1732 -0.3002 -0.1605
 9001TIP3   OH251197   5.059   3.689  10.088 -0.0195  0.3529 -0.4762
 9001TIP3    H151198   4.976   3.671  10.044  0.4021 -1.7965 -0.4733
 9001TIP3    H251199   5.063   3.626  10.160  1.8491  0.0546 -0.8034
 9002TIP3   OH251200   5.825   2.113  11.262  0.2170  0.2598  0.1985
 9002TIP3    H151201   5.736   2.111  11.297 -0.5180  1.7296 -1.4505
 9002TIP3    H251202   5.857   2.201  11.282  1.4246 -0.3335  0.9951
 9003TIP3   OH251203   0.949   1.313  11.193  0.8127 -0.1633  0.1958
 9003TIP3    H151204   1.012   1.338  11.126  0.8899 -0.9065 -0.0194
 9003TIP3    H251205   0.864   1.317  11.149  0.6287  1.3374  0.6241
 9004TIP3   OH251206   1.332   4.059  10.454  0.0289 -0.5631 -0.4389
 9004TIP3    H151207   1.260   4.065  10.517 -0.8089  1.4686 -1.5130
 9004TIP3    H251208   1.307   3.988  10.396  0.4485 -1.9588  1.0078
 9005TIP3   OH251209   5.247   2.308  11.046  0.5302  0.3335  0.2340
 9005TIP3    H151210   5.245   2.352  10.961  0.2370  2.3678  1.2401
 9005TIP3    H251211   5.290   2.224  11.028  2.4944  1.5992 -1.5484
 9006TIP3   OH251212   6.465   5.356   8.975  0.2078  0.6954 -0.6457
 9006TIP3    H151213   6.392   5.300   8.945 -0.5432  2.4508 -2.3092
 9006TIP3    H251214   6.543   5.311   8.943 -0.2226 -0.4217 -0.2011
 9007TIP3   OH251215   1.389   5.991  10.951 -0.5110  0.2019 -0.4206
 9007TIP3    H151216   1.353   6.067  10.907  0.5663  1.0264  0.0701
 9007TIP3    H251217   1.342   5.988  11.035 -1.5894 -0.5649 -1.0219
 9008TIP3   OH251218   2.317   0.821   8.424  0.4149  0.1797  0.2584
 9008TIP3    H151219   2.315   0.914   8.445  0.5309 -0.0757  1.5293
 9008TIP3    H251220   2.238   0.806   8.371  0.4771  1.0184 -0.0763
 9009TIP3   OH251221   5.240   2.407  10.778 -0.5053 -0.6085  0.1318
 9009TIP3    H151222   5.300   2.403  10.704  0.2460 -1.5482  0.7570
 9009TIP3    H251223   5.177   2.475  10.755  1.7362  1.6279  0.1252
 9010TIP3   OH251224   0.032   0.083  10.738 -0.0935 -0.0792  0.2979
 9010TIP3    H151225   0.119   0.094  10.776 -0.4168  0.0929  0.9892
 9010TIP3    H251226   0.048   0.083  10.643  0.6794 -0.2473  0.4210
 9011TIP3   OH251227   0.675   1.930   9.258 -0.5751  0.5074 -0.3190
 9011TIP3    H151228   0.655   1.917   9.165 -0.1918 -0.0506 -0.3327
 9011TIP3    H251229   0.766   1.903   9.266 -1.0197 -0.8294  0.4805
 9012TIP3   OH251230   2.465   4.083  11.605  0.1548  0.2163 -0.1234
 9012TIP3    H151231   2.492   4.088  11.697  0.4171  0.7362 -0.2211
 9012TIP3    H251232   2.434   4.172  11.584  2.2131  0.7651 -1.1547
 9013TIP3   OH251233   5.360   1.004   9.729 -0.0397  0.0670  0.1645
 9013TIP3    H151234   5.454   1.021   9.742 -0.2062 -0.3225  2.2057
 9013TIP3    H251235   5.319   1.089   9.739  0.0151  0.1017  0.1020
 9014TIP3   OH251236   4.330   4.254  10.912 -0.1551  0.1196  0.3252
 9014TIP3    H151237   4.372   4.339  10.923  1.1768 -0.5070  0.1669
 9014TIP3    H251238   4.321   4.243  10.818 -2.5578  1.1152  0.3568
 9015TIP3   OH251239   4.405   6.386   9.810 -0.0265  0.6252 -1.0304
 9015TIP3    H151240   4.384   6.357   9.722 -0.7649  0.9374 -0.9725
 9015TIP3    H251241   4.365   6.473   9.817  1.2464  1.2248 -0.8607
 9016TIP3   OH251242   4.231   2.999   9.954  0.5300 -0.0907 -0.2685
 9016TIP3    H151243   4.319   2.977   9.924  0.7029 -0.9787  0.8337
 9016TIP3    H251244   4.183   3.019   9.874  1.4265 -0.7131 -0.9864
 9017TIP3   OH251245   2.639   2.421  10.087 -0.4492  0.3170 -0.0780
 9017TIP3    H151246   2.615   2.414   9.995  0.1874 -0.1860 -0.2127
 9017TIP3    H251247   2.718   2.368  10.096 -0.1654  0.8293  0.6327
 9018TIP3   OH251248   4.279   6.376  10.838 -0.4917 -0.0945 -0.0958
 9018TIP3    H151249   4.285   6.442  10.770  0.0414 -0.6626 -0.6142
 9018TIP3    H251250   4.228   6.305  10.799  0.9178 -0.9796 -0.3842
 9019TIP3   OH251251   2.253   5.463  12.430 -0.1529  0.3654 -0.2702
 9019TIP3    H151252   2.188   5.417  12.376  0.2042 -0.3071 -0.1334
 9019TIP3    H251253   2.239   5.429  12.518 -0.3194  1.0043 -0.0512
 9020TIP3   OH251254   2.529   5.567   9.286 -0.2214  0.4055  0.7358
 9020TIP3    H151255   2.577   5.520   9.355  0.2602 -0.3887 -0.1213
 9020TIP3    H251256   2.524   5.657   9.318  0.4364  0.1577  1.5821
 9021TIP3   OH251257   3.979   1.645  10.828 -0.7343  0.1633  0.3149
 9021TIP3    H151258   3.919   1.587  10.782 -0.6682  1.2247 -1.1733
 9021TIP3    H251259   3.930   1.677  10.903 -1.9934  0.8280 -0.7430
 9022TIP3   OH251260   2.959   1.033   9.352 -0.3177  0.0327  0.9072
 9022TIP3    H151261   2.940   1.069   9.265 -1.0298  0.7790  1.3590
 9022TIP3    H251262   2.930   0.942   9.347  1.9247 -0.6985 -0.3993
 9023TIP3   OH251263   5.622   5.108   9.673  0.4262  0.1076  0.2303
 9023TIP3    H151264   5.571   5.044   9.723 -2.3607 -1.0114 -3.6433
 9023TIP3    H251265   5.561   5.144   9.609  3.4293  2.2676 -1.7089
 9024TIP3   OH251266   3.220   0.258  10.552 -0.2298  0.9283 -0.7536
 9024TIP3    H151267   3.155   0.206  10.599 -2.6805  0.6218 -4.0973
 9024TIP3    H251268   3.248   0.202  10.479  1.7924  2.0850 -0.9514
 9025TIP3   OH251269   1.627   5.007   8.397  0.5593 -0.5549  0.2485
 9025TIP3    H151270   1.686   4.948   8.349  1.0962  0.7800 -0.7802
 9025TIP3    H251271   1.677   5.088   8.407 -0.7451  0.2858  0.1957
 9026TIP3   OH251272   6.155   0.186  11.671 -0.4238  0.8862 -0.3067
 9026TIP3    H151273   6.090   0.172  11.740  0.1804  2.0778  0.5459
 9026TIP3    H251274   6.228   0.228  11.716 -0.1293  1.9708 -1.7434
 9027TIP3   OH251275   2.096   0.983   8.697  0.0262 -0.0616  0.2308
 9027TIP3    H151276   2.107   0.889   8.715  0.8355  0.2717  1.6059
 9027TIP3    H251277   2.002   0.993   8.680 -0.4341 -0.8446  2.0260
 9028TIP3   OH251278   0.327   5.291   9.860  0.3334  0.1677 -0.1576
 9028TIP3    H151279   0.383   5.250   9.925 -0.9332 -0.9755  0.2513
 9028TIP3    H251280   0.296   5.219   9.806  1.4327  1.0939 -2.1497
 9029TIP3   OH251281   5.161   6.483  10.773 -0.1436  0.1197  0.0293
 9029TIP3    H151282   5.158   6.505  10.866  1.2399 -1.1511  0.4090
 9029TIP3    H251283   5.223   6.411  10.767  0.3119  0.6139 -1.9811
 9030TIP3   OH251284   4.766   1.100   9.915  0.3246 -0.3134 -0.2809
 9030TIP3    H151285   4.789   1.192   9.903 -2.7139  0.4884 -0.8590
 9030TIP3    H251286   4.813   1.073   9.994 -1.6746  2.9616  2.3044
 9031TIP3   OH251287   0.405   5.462  11.253  0.2437 -0.0120  0.2422
 9031TIP3    H151288   0.419   5.511  11.334 -0.5824  0.5010  0.0932
 9031TIP3    H251289   0.483   5.408  11.243 -0.2228 -1.1043  2.0891
 9032TIP3   OH251290   2.844   6.158  10.940 -0.2435  0.1794 -0.2533
 9032TIP3    H151291   2.848   6.254  10.932 -1.2941  0.1708 -1.0802
 9032TIP3    H251292   2.912   6.127  10.880 -0.2940  0.3974 -0.4257
 9033TIP3   OH251293   6.090   0.710   8.971  0.2803 -0.3948  0.3276
 9033TIP3    H151294   6.137   0.759   8.903  0.7504 -0.6960  0.4335
 9033TIP3    H251295   6.028   0.655   8.922  0.8607 -0.8684  0.1184
 9034TIP3   OH251296   4.159   2.761   9.144 -0.0361  0.5834 -0.1681
 9034TIP3    H151297   4.207   2.712   9.078  0.5568  1.1345 -0.1513
 9034TIP3    H251298   4.102   2.820   9.094 -0.5093  0.1239 -0.1846
 9035TIP3   OH251299   5.833   0.874   9.304  0.5477  0.1396  0.0203
 9035TIP3    H151300   5.927   0.863   9.291  0.3844 -2.4323  0.3665
 9035TIP3    H251301   5.794   0.857   9.218  0.4271  3.6001 -0.7366
 9036TIP3   OH251302   1.901   1.931   9.452 -0.5687  0.1295  0.2658
 9036TIP3    H151303   1.927   1.841   9.436 -1.1702  0.4098 -3.0012
 9036TIP3    H251304   1.809   1.925   9.479 -0.2279 -0.2655  1.3911
 9037TIP3   OH251305   4.513   2.990   8.616  0.0717  0.6516 -0.1363
 9037TIP3    H151306   4.421   3.005   8.592 -0.4641  1.1953  2.0102
 9037TIP3    H251307   4.517   2.899   8.644  0.7302 -0.0329 -2.3035
 9038TIP3   OH251308   0.856   1.215  11.766 -0.0229  0.0486  0.5688
 9038TIP3    H151309   0.829   1.140  11.818 -0.5934  0.4767  0.9031
 9038TIP3    H251310   0.910   1.268  11.825 -0.0705  0.1691  0.5055
 9039TIP3   OH251311   4.736   4.679   9.087  0.1559  0.5714  0.0344
 9039TIP3    H151312   4.733   4.743   9.158 -0.8325  0.0078  0.5273
 9039TIP3    H251313   4.806   4.619   9.112  0.7083  1.1261 -0.1492
 9040TIP3   OH251314   0.905   0.013   8.437 -0.2173  0.0305 -0.1977
 9040TIP3    H151315   0.855  -0.058   8.477  2.2435 -2.6490 -1.4899
 9040TIP3    H251316   0.965   0.041   8.506 -0.5793  0.2154  0.0433
 9041TIP3   OH251317   1.902   4.644   9.593 -0.6325 -0.0573  0.5213
 9041TIP3    H151318   1.850   4.662   9.515  3.0294  0.5081 -2.0738
 9041TIP3    H251319   1.919   4.730   9.631  1.9306  0.4101 -1.3516
 9042TIP3   OH251320   0.702   5.392   8.686  0.2739 -0.8495  0.6223
 9042TIP3    H151321   0.620   5.405   8.638 -0.0907  0.3842  1.5543
 9042TIP3    H251322   0.716   5.297   8.683  0.1547 -0.8520 -1.7247
 9043TIP3   OH251323   6.137   0.574  10.229  0.2997 -0.0526  0.3694
 9043TIP3    H151324   6.177   0.623  10.301  1.8956 -0.1627 -0.4064
 9043TIP3    H251325   6.205   0.570  10.162 -0.9030 -0.5947 -0.8563
 9044TIP3   OH251326   1.459   2.143  10.414 -0.4325  0.5406 -0.0061
 9044TIP3    H151327   1.521   2.117  10.482  0.2179 -1.2742 -1.2123
 9044TIP3    H251328   1.495   2.105  10.333 -1.4671  2.1382 -1.2825
 9045TIP3   OH251329   0.219   0.363  11.365  0.1185 -0.0195 -0.0929
 9045TIP3    H151330   0.208   0.314  11.283  0.5333  0.8044 -0.6512
 9045TIP3    H251331   0.183   0.305  11.432 -0.2580 -0.6959 -0.8585
 9046TIP3   OH251332   2.858   1.843  10.718  0.1868  0.0011 -0.4382
 9046TIP3    H151333   2.872   1.901  10.793  1.9305  1.0621 -1.5298
 9046TIP3    H251334   2.938   1.850  10.666 -0.4296 -1.7525 -1.7259
 9047TIP3   OH251335   2.919   4.971   9.723 -0.3682 -0.1087  0.1770
 9047TIP3    H151336   2.918   4.989   9.628  0.2178  0.2114  0.2223
 9047TIP3    H251337   3.011   4.979   9.747 -0.2796 -1.7091  0.4938
 9048TIP3   OH251338   0.855   4.974   9.682 -0.3512 -0.1700  0.8173
 9048TIP3    H151339   0.813   4.889   9.669  0.8804 -1.2279  3.0607
 9048TIP3    H251340   0.949   4.957   9.668 -0.2099  1.1309  0.0408
 9049TIP3   OH251341   3.668   1.381   8.924  0.4236  0.0663  0.5472
 9049TIP3    H151342   3.603   1.433   8.877 -0.5062 -1.1077  0.5116
 9049TIP3    H251343   3.693   1.312   8.863  1.1212  0.0428  0.8483
 9050TIP3   OH251344   2.510   4.777   9.146 -0.9258 -0.0322 -0.2340
 9050TIP3    H151345   2.419   4.804   9.149 -1.2789 -1.2198  0.5293
 9050TIP3    H251346   2.549   4.816   9.224 -0.9901 -0.2431 -0.0974
 9051TIP3   OH251347   3.181   6.124   9.876 -0.2470 -0.0985 -0.3039
 9051TIP3    H151348   3.135   6.043   9.895  0.7195 -1.0464 -1.7664
 9051TIP3    H251349   3.265   6.096   9.838  1.6870  1.5156  2.3765
 9052TIP3   OH251350   3.523   6.115   8.605  0.5523  0.6624  0.4986
 9052TIP3    H151351   3.490   6.025   8.605  0.5700  0.6455  1.3831
 9052TIP3    H251352   3.444   6.169   8.613  0.5660  0.7189  0.2701
 9053TIP3   OH251353   0.112   0.809   9.420  0.1931 -0.6236 -0.1486
 9053TIP3    H151354   0.168   0.739   9.453  0.2906 -0.8153 -0.7047
 9053TIP3    H251355   0.065   0.840   9.497  0.3085 -1.1527  0.1430
 9054TIP3   OH251356   4.244   3.812  11.257 -0.4968 -0.0289  0.4143
 9054TIP3    H151357   4.286   3.876  11.199  0.6584 -0.8060  0.3529
 9054TIP3    H251358   4.308   3.742  11.265 -0.7665 -0.1219  2.3477
 9055TIP3   OH251359   2.962   1.324  11.881  0.5045 -0.0483 -0.2271
 9055TIP3    H151360   2.924   1.240  11.910  0.0429 -0.3784 -1.7238
 9055TIP3    H251361   2.916   1.345  11.800  2.0523  0.6145 -0.9759
 9056TIP3   OH251362   3.082   4.910   9.992 -0.2458  0.0149  0.3669
 9056TIP3    H151363   3.169   4.946   9.977 -0.2266  0.2871  1.1065
 9056TIP3    H251364   3.096   4.838  10.053 -0.0152 -2.5762 -2.4755
 9057TIP3   OH251365   6.181   2.205   9.270 -0.0242 -0.3183  0.2905
 9057TIP3    H151366   6.099   2.254   9.271 -0.6454 -1.3290  1.0356
 9057TIP3    H251367   6.204   2.197   9.178 -0.8375 -0.1299  0.0671
 9058TIP3   OH251368   1.790   6.545   9.414 -0.6230  0.0552 -0.0002
 9058TIP3    H151369   1.866   6.582   9.370  0.2711 -1.8204 -0.1422
 9058TIP3    H251370   1.718   6.558   9.352  0.3792 -1.5017 -1.5740
 9059TIP3   OH251371   2.890   2.353   8.666 -0.3766  0.0081 -0.0052
 9059TIP3    H151372   2.872   2.306   8.584 -1.7889 -0.6171  0.6320
 9059TIP3    H251373   2.809   2.345   8.717  0.3055  0.8039  1.2571
 9060TIP3   OH251374   4.313   0.684  11.669  0.5409  0.1337  0.7752
 9060TIP3    H151375   4.346   0.597  11.691 -0.2572 -0.2717  0.4300
 9060TIP3    H251376   4.391   0.738  11.656  1.0380 -0.1918  2.2948
 9061TIP3   OH251377   4.764   1.919  11.169  0.0691  0.3037  0.2212
 9061TIP3    H151378   4.758   1.835  11.215  1.5706  0.7011  1.2021
 9061TIP3    H251379   4.735   1.899  11.080  1.3966 -1.5316  0.1403
 9062TIP3   OH251380   4.904   5.864   9.194  0.0416  0.2716  0.2158
 9062TIP3    H151381   4.854   5.889   9.271  0.8906 -2.0848  1.6469
 9062TIP3    H251382   4.994   5.892   9.213  0.1968 -0.0313 -0.0615
 9063TIP3   OH251383   2.462   4.101   9.163  0.2950 -0.1833 -0.2344
 9063TIP3    H151384   2.507   4.026   9.124 -0.8065 -0.5178 -0.9081
 9063TIP3    H251385   2.378   4.105   9.118 -1.1212 -0.6771  2.1633
 9064TIP3   OH251386   4.177   4.484  11.150 -0.0949  0.5939  0.5229
 9064TIP3    H151387   4.172   4.486  11.245 -0.3363  2.0944  0.5148
 9064TIP3    H251388   4.268   4.508  11.130 -0.1991  0.8696  0.3740
 9065TIP3   OH251389   0.306   4.219  11.917 -0.1853 -0.0197  0.3167
 9065TIP3    H151390   0.237   4.206  11.983  1.1970 -0.0786  1.8114
 9065TIP3    H251391   0.260   4.213  11.833 -2.1072  0.5581  1.2593
 9066TIP3   OH251392   4.206   0.916   9.691 -0.1192 -0.2241  0.2176
 9066TIP3    H151393   4.178   0.872   9.612  0.8972 -0.7466  0.1295
 9066TIP3    H251394   4.219   0.846   9.755  0.5778  0.0289  0.3640
 9067TIP3   OH251395   0.217   3.454   9.351  0.2210 -0.0731  0.1306
 9067TIP3    H151396   0.215   3.419   9.441  2.2307 -0.1303  0.2135
 9067TIP3    H251397   0.289   3.517   9.352  0.4541 -0.2653 -1.5053
 9068TIP3   OH251398   3.114   3.012  10.051  0.1036 -0.0640 -0.3568
 9068TIP3    H151399   3.204   3.005  10.080  0.6047  0.1790 -1.7628
 9068TIP3    H251400   3.102   2.939   9.990 -1.5829 -1.9034  1.9830
 9069TIP3   OH251401   1.901   1.316   8.486  0.5626 -0.5046 -0.4461
 9069TIP3    H151402   1.930   1.398   8.526  0.5430 -1.4674  1.6948
 9069TIP3    H251403   1.831   1.343   8.426 -0.9043  0.9237  1.7227
 9070TIP3   OH251404   2.904   1.168  11.227 -0.3731  0.2280  0.1861
 9070TIP3    H151405   2.834   1.233  11.235  0.3708  0.9908  0.7875
 9070TIP3    H251406   2.889   1.126  11.143 -1.8109  0.0579  0.4965
 9071TIP3   OH251407   0.093   4.162  11.348  0.1604  0.1490  0.1406
 9071TIP3    H151408   0.032   4.174  11.421  1.6334 -0.7310  1.5934
 9071TIP3    H251409   0.109   4.067  11.345  0.7545  0.2627 -0.7816
 9072TIP3   OH251410   6.043   1.950  11.220  0.4090 -0.0260  0.2292
 9072TIP3    H151411   5.963   1.999  11.241 -1.2307 -2.0692 -0.7940
 9072TIP3    H251412   6.082   1.998  11.146  0.7057  1.5336  1.3547
 9073TIP3   OH251413   1.287   1.825   8.683  0.0203  0.1437  0.8558
 9073TIP3    H151414   1.287   1.835   8.778  1.3411  1.4849  0.7671
 9073TIP3    H251415   1.215   1.880   8.652  0.3563  0.6859  1.0255
 9074TIP3   OH251416   4.311   6.536   8.759  0.4575 -0.5506 -0.5737
 9074TIP3    H151417   4.293   6.450   8.799 -0.2491 -0.6671 -1.1294
 9074TIP3    H251418   4.267   6.532   8.674  0.8375  0.1877 -0.8070
 9075TIP3   OH251419   2.413   3.660  10.876  0.2396 -0.0979 -0.0183
 9075TIP3    H151420   2.335   3.657  10.819  0.9295 -1.4611 -0.9396
 9075TIP3    H251421   2.487   3.659  10.815  0.9969 -0.2145  0.8858
 9076TIP3   OH251422   6.649   5.482  10.250 -0.4438  0.2615 -0.0709
 9076TIP3    H151423   6.643   5.471  10.345  0.9607 -1.5366 -0.1389
 9076TIP3    H251424   6.714   5.552  10.239 -0.9145  0.7674  0.2748
 9077TIP3   OH251425   2.365   3.316   9.206 -0.1990 -0.6727  0.9444
 9077TIP3    H151426   2.349   3.382   9.273 -2.4306  0.6790 -0.8015
 9077TIP3    H251427   2.354   3.361   9.123  1.8941 -2.4304 -0.4255
 9078TIP3   OH251428   2.477   5.461  11.936  0.2569 -0.5182 -0.2493
 9078TIP3    H151429   2.430   5.458  12.020  0.1132  1.4334 -0.2226
 9078TIP3    H251430   2.426   5.403  11.879 -0.1919 -1.1265  0.7303
 9079TIP3   OH251431   2.734   5.163  10.642 -0.3591  0.4951 -0.0804
 9079TIP3    H151432   2.820   5.194  10.670 -0.0870  0.4245 -0.8190
 9079TIP3    H251433   2.701   5.232  10.585  0.1131 -0.3948 -1.4744
 9080TIP3   OH251434   5.388   3.531   9.932 -0.2030 -0.4695 -0.1193
 9080TIP3    H151435   5.481   3.531   9.955  0.2171 -0.9263 -1.6779
 9080TIP3    H251436   5.366   3.438   9.919 -0.5486 -0.2828 -0.9477
 9081TIP3   OH251437   3.803   5.029   8.357 -0.6436 -0.1347 -0.2847
 9081TIP3    H151438   3.800   4.947   8.407 -0.6945 -0.9373 -1.5531
 9081TIP3    H251439   3.866   5.012   8.287 -1.3766  0.5583 -1.1393
 9082TIP3   OH251440   3.110   2.805   9.877  0.3224  0.4439 -0.1392
 9082TIP3    H151441   3.116   2.714   9.907 -1.4359  0.2684 -0.2054
 9082TIP3    H251442   3.118   2.799   9.782 -0.4678  0.2524 -0.2051
 9083TIP3   OH251443   5.714   1.543   8.858  0.6370 -0.4502 -0.0098
 9083TIP3    H151444   5.707   1.638   8.848  2.4962 -0.1087  1.3189
 9083TIP3    H251445   5.740   1.530   8.949 -1.4229 -2.3825  0.3812
 9084TIP3   OH251446   1.196   5.516   9.933  0.5652 -0.3014 -0.4825
 9084TIP3    H151447   1.137   5.454   9.890  0.4042 -1.3698  1.1545
 9084TIP3    H251448   1.252   5.548   9.863  1.3397 -3.0901 -1.2936
 9085TIP3   OH251449   1.034   2.441  10.369 -0.0596  0.1289 -0.1534
 9085TIP3    H151450   1.089   2.463  10.444  0.3017 -1.5225  0.0905
 9085TIP3    H251451   0.964   2.387  10.405  0.1419 -0.7279 -0.9904
 9086TIP3   OH251452   1.804   2.265   9.213  0.0230  0.1154  0.0333
 9086TIP3    H151453   1.787   2.286   9.305 -1.2677 -1.5362  0.2212
 9086TIP3    H251454   1.724   2.289   9.168  0.4720  0.4588 -0.6006
 9087TIP3   OH251455   1.662   1.369   8.976  0.4044 -0.8082 -0.4918
 9087TIP3    H151456   1.719   1.350   8.901  3.2940  2.0806  0.7150
 9087TIP3    H251457   1.715   1.344   9.052  0.1282  1.9053  0.6867
 9088TIP3   OH251458   5.084   3.091  10.006  0.8258 -0.1261 -0.3371
 9088TIP3    H151459   5.106   3.042  10.085 -1.6435 -0.2437  0.3624
 9088TIP3    H251460   5.036   3.168  10.038 -1.0074 -0.6180 -1.7145
 9089TIP3   OH251461   3.247   1.032  11.751 -0.3264 -0.2239  0.0618
 9089TIP3    H151462   3.222   0.955  11.701  0.5024 -2.0939  2.3419
 9089TIP3    H251463   3.189   1.031  11.828 -0.1917  1.3661  0.2368
 9090TIP3   OH251464   1.098   0.491   9.180 -0.1732  0.0743 -0.5419
 9090TIP3    H151465   1.125   0.456   9.265 -1.9000 -0.7825 -0.3045
 9090TIP3    H251466   1.154   0.446   9.116  0.3280 -0.1584  0.0555
 9091TIP3   OH251467   0.782   2.780   9.695 -0.2918  0.3647 -0.7529
 9091TIP3    H151468   0.830   2.701   9.670 -1.0158 -0.1090 -0.6723
 9091TIP3    H251469   0.847   2.850   9.690  0.3000 -0.1961 -1.0623
 9092TIP3   OH251470   0.275   4.878  11.150 -0.4435  0.1379  0.2973
 9092TIP3    H151471   0.261   4.927  11.232  1.5060 -1.5327  1.7321
 9092TIP3    H251472   0.213   4.917  11.088 -0.0779  3.3527  1.7433
 9093TIP3   OH251473   3.978   5.309  10.904 -0.3252  0.2188  0.0223
 9093TIP3    H151474   4.013   5.377  10.846  0.2986 -0.4914 -0.4507
 9093TIP3    H251475   4.028   5.317  10.984  0.4160 -0.2950 -0.3792
 9094TIP3   OH251476   0.124   0.579  11.171 -0.0469 -0.1429  0.0324
 9094TIP3    H151477   0.079   0.567  11.255 -0.5453  1.9015  0.1122
 9094TIP3    H251478   0.211   0.542  11.185 -0.0454  0.3538  1.5219
 9095TIP3   OH251479   3.551   4.753  10.489 -0.3010 -0.4990 -0.2215
 9095TIP3    H151480   3.471   4.794  10.456  0.5916  0.3659 -1.4384
 9095TIP3    H251481   3.529   4.724  10.577 -2.1187 -0.8095 -0.7353
 9096TIP3   OH251482   0.433   3.317  10.230  0.2671  0.5996  0.0663
 9096TIP3    H151483   0.528   3.324  10.233  0.3365  0.4489 -1.3471
 9096TIP3    H251484   0.416   3.225  10.209 -0.1514  0.9042 -0.9753
 9097TIP3   OH251485   5.073   4.177   9.899  0.9308  0.1251 -0.1132
 9097TIP3    H151486   5.070   4.098   9.953  2.3200  0.4749  0.5112
 9097TIP3    H251487   5.081   4.145   9.809 -0.0215 -0.4410 -0.0119
 9098TIP3   OH251488   6.557   3.719   8.545 -0.0901 -0.1171  0.1608
 9098TIP3    H151489   6.488   3.653   8.550  0.1198 -0.3154  0.4893
 9098TIP3    H251490   6.599   3.716   8.631  0.8449 -0.5577 -0.2975
 9099TIP3   OH251491   5.903   1.889  10.895  0.3973 -0.3565 -0.0539
 9099TIP3    H151492   5.839   1.942  10.846  1.2757  0.7868 -0.0005
 9099TIP3    H251493   5.957   1.953  10.941  0.6863 -1.3610  1.0575
 9100TIP3   OH251494   1.931   0.349   9.389  0.4068 -0.0565  0.3039
 9100TIP3    H151495   1.882   0.326   9.310  0.7154 -1.4777  0.5080
 9100TIP3    H251496   2.023   0.337   9.364  0.6203  1.2545  0.3509
 9101TIP3   OH251497   1.632   4.720  10.640 -0.0791  1.0344  0.1813
 9101TIP3    H151498   1.579   4.670  10.702  0.8021  0.2620  0.3338
 9101TIP3    H251499   1.614   4.680  10.555  3.6509 -2.4706  0.7109
 9102TIP3   OH251500   4.355   6.181  11.602 -0.1876  0.1552 -0.0844
 9102TIP3    H151501   4.303   6.104  11.625  1.4491 -0.3558  2.1389
 9102TIP3    H251502   4.360   6.233  11.682  0.0805  1.8147 -1.1152
 9103TIP3   OH251503   5.161   2.795   8.515  0.1224  0.1811 -0.3821
 9103TIP3    H151504   5.106   2.860   8.471  1.4972  0.6213 -1.5100
 9103TIP3    H251505   5.140   2.805   8.608 -1.6773  0.3358 -0.7708
 9104TIP3   OH251506   6.089   4.465   8.470  0.4976 -0.1571  0.6944
 9104TIP3    H151507   6.123   4.500   8.388  0.2921 -1.6658 -0.0684
 9104TIP3    H251508   6.148   4.498   8.537 -0.1793  2.3494  0.1731
 9105TIP3   OH251509   4.597   2.496  12.252 -0.6359  0.2007 -0.4742
 9105TIP3    H151510   4.611   2.562  12.183  1.4159 -0.0563 -0.3675
 9105TIP3    H251511   4.643   2.418  12.220  1.5672  0.4798  1.7211
 9106TIP3   OH251512   2.466   6.503  11.254 -0.4234 -0.4591  0.0739
 9106TIP3    H151513   2.490   6.565  11.322 -1.8159 -0.3669  0.5149
 9106TIP3    H251514   2.522   6.525  11.180 -0.0288  0.4966  0.6482
 9107TIP3   OH251515   0.838   0.562   8.572  0.0896  0.2942 -0.1812
 9107TIP3    H151516   0.754   0.538   8.611  0.7085 -1.3834  0.2171
 9107TIP3    H251517   0.821   0.564   8.478 -0.1939 -1.0722 -0.1799
 9108TIP3   OH251518   0.694   1.371  11.586  0.1134 -0.2062  0.8986
 9108TIP3    H151519   0.714   1.312  11.658  0.3416 -2.1104 -0.6416
 9108TIP3    H251520   0.730   1.327  11.508 -0.1041  1.7615 -0.3911
 9109TIP3   OH251521   4.309   2.956  10.968 -0.6345  0.3230  0.3183
 9109TIP3    H151522   4.339   2.990  11.053 -1.4109  0.2006  0.6476
 9109TIP3    H251523   4.382   2.974  10.909 -0.0245  0.2920  1.0345
 9110TIP3   OH251524   6.379   0.648  10.076 -0.3225 -0.2670 -0.4577
 9110TIP3    H151525   6.453   0.610  10.028  0.2051  1.7165 -1.3164
 9110TIP3    H251526   6.341   0.712  10.016  0.2555  2.2170  1.6106
 9111TIP3   OH251527   2.187   1.828   9.979  0.5467 -0.2554 -0.4710
 9111TIP3    H151528   2.240   1.898   9.940  0.4309 -0.0601 -0.2857
 9111TIP3    H251529   2.246   1.753   9.984  0.9911  0.1285  0.2664
 9112TIP3   OH251530   3.616   4.776  11.476 -0.1631 -0.4060  0.5531
 9112TIP3    H151531   3.599   4.843  11.542  0.4843  0.8940 -0.5422
 9112TIP3    H251532   3.674   4.819  11.413 -2.6536 -0.7225 -2.1873
 9113TIP3   OH251533   2.580   6.049  10.560 -0.0623  0.3210  0.6501
 9113TIP3    H151534   2.588   5.978  10.625  2.0609 -1.4927 -1.4157
 9113TIP3    H251535   2.660   6.100  10.572  1.1020 -0.9044 -1.3849
 9114TIP3   OH251536   5.562   6.451  10.815 -0.1039 -0.5711  0.4484
 9114TIP3    H151537   5.579   6.404  10.897  0.0683  1.6627  1.7847
 9114TIP3    H251538   5.475   6.490  10.826 -0.6715 -1.3481 -1.0259
 9115TIP3   OH251539   1.267   6.470   8.512  0.0008 -0.2191  0.6833
 9115TIP3    H151540   1.335   6.445   8.575 -0.2089  0.8245  1.3461
 9115TIP3    H251541   1.241   6.558   8.539  0.7083  0.7497 -1.5578
 9116TIP3   OH251542   6.074   4.617   9.342  0.2338 -0.3005 -0.3782
 9116TIP3    H151543   6.073   4.638   9.436  2.1909 -0.1269 -0.3525
 9116TIP3    H251544   5.983   4.625   9.315 -0.5100 -1.1073  1.6687
 9117TIP3   OH251545   2.944   0.926   9.952 -0.1754  0.6183  0.0078
 9117TIP3    H151546   2.976   0.881   9.874  1.1515 -0.4134  1.0813
 9117TIP3    H251547   3.019   0.978   9.981 -1.5027  3.2137 -0.8920
 9118TIP3   OH251548   0.658   5.359  11.300  0.5683  0.5052 -0.7557
 9118TIP3    H151549   0.658   5.265  11.315 -0.2143  0.1163 -2.7977
 9118TIP3    H251550   0.694   5.369  11.212 -0.1789  2.0240 -0.9257
 9119TIP3   OH251551   3.842   0.773   8.614 -0.4466  0.1600 -0.1418
 9119TIP3    H151552   3.910   0.720   8.655 -2.4773 -0.4737  2.7543
 9119TIP3    H251553   3.769   0.713   8.602 -1.7878  1.6120  0.4368
 9120TIP3   OH251554   0.347   4.653   9.253  0.1382 -0.0606  0.0273
 9120TIP3    H151555   0.419   4.691   9.303 -0.4263  0.6869  0.3012
 9120TIP3    H251556   0.356   4.690   9.165 -0.7219  1.1831  0.4320
 9121TIP3   OH251557   5.518   4.690   8.902 -0.1349  0.1244  0.5635
 9121TIP3    H151558   5.546   4.633   8.830 -0.9790  0.3615  0.0438
 9121TIP3    H251559   5.516   4.631   8.978 -0.6761 -0.4858  0.0973
 9122TIP3   OH251560   0.013   1.771   9.052 -0.8974 -0.1070  0.4674
 9122TIP3    H151561  -0.046   1.845   9.067 -0.4911  0.6373 -1.3760
 9122TIP3    H251562  -0.044   1.699   9.027 -1.0857  0.7307 -1.7671
 9123TIP3   OH251563   5.791   4.604  11.317 -0.5487  1.1381  0.4500
 9123TIP3    H151564   5.873   4.556  11.303 -0.9413  0.8398 -1.0033
 9123TIP3    H251565   5.795   4.631  11.409  1.3033  1.3834  0.3440
 9124TIP3   OH251566   1.589   3.709   9.455  0.0678 -0.5027 -0.0922
 9124TIP3    H151567   1.606   3.631   9.508  1.9195  0.6949  1.1773
 9124TIP3    H251568   1.571   3.778   9.518  0.5846  0.5812 -1.0841
 9125TIP3   OH251569   2.470   5.207   9.836  0.0001 -0.2269 -0.2061
 9125TIP3    H151570   2.549   5.176   9.792  0.1984  0.3621 -0.2835
 9125TIP3    H251571   2.427   5.263   9.772  0.0799  0.3115  0.2003
 9126TIP3   OH251572   1.302   4.339  10.768  0.3915 -0.2221 -0.3433
 9126TIP3    H151573   1.208   4.355  10.769  0.6434  1.5713 -1.3095
 9126TIP3    H251574   1.321   4.314  10.677  1.0010  0.4935 -0.4141
 9127TIP3   OH251575   0.549   4.661   8.743  0.1939 -0.2082  0.6098
 9127TIP3    H151576   0.626   4.716   8.754 -0.8672  1.2255  1.1806
 9127TIP3    H251577   0.540   4.614   8.826  0.4962 -0.4615  0.5025
 9128TIP3   OH251578   6.267   3.194  11.310  0.5097 -0.5544 -0.0060
 9128TIP3    H151579   6.194   3.252  11.334  0.5905  0.2347 -1.5826
 9128TIP3    H251580   6.287   3.147  11.391 -0.5243  0.5653  0.9430
 9129TIP3   OH251581   4.289   5.197  10.748  0.6180  0.1772 -0.6387
 9129TIP3    H151582   4.329   5.285  10.747 -0.4556  0.6825 -0.5797
 9129TIP3    H251583   4.246   5.189  10.663 -0.4789  0.2850 -0.1078
 9130TIP3   OH251584   3.325   1.831  10.280  0.9640  0.0621  0.0980
 9130TIP3    H151585   3.328   1.742  10.317 -1.0295 -1.3128 -2.6903
 9130TIP3    H251586   3.285   1.820  10.194  1.8999  3.5425 -0.9451
 9131TIP3   OH251587   4.967   6.602  10.327  0.0632  0.0731 -0.7620
 9131TIP3    H151588   4.895   6.543  10.308  0.8573 -0.2235 -3.1463
 9131TIP3    H251589   5.043   6.544  10.339  0.5732  0.5110 -1.7659
 9132TIP3   OH251590   3.226   0.795  12.118 -0.0547  0.2836  0.1254
 9132TIP3    H151591   3.263   0.850  12.049  0.9597  1.6983  1.7237
 9132TIP3    H251592   3.155   0.846  12.156  0.3068  0.1453  1.0340
 9133TIP3   OH251593   5.801   4.540   9.752  0.5263  0.3070  0.1393
 9133TIP3    H151594   5.783   4.556   9.844 -0.8482  0.1230 -0.0723
 9133TIP3    H251595   5.717   4.512   9.715  0.8006  1.3108 -1.3766
 9134TIP3   OH251596   3.491   1.198  11.067 -0.4193  0.1658 -0.1438
 9134TIP3    H151597   3.478   1.232  10.978 -1.9232  2.3079  0.7844
 9134TIP3    H251598   3.573   1.149  11.062  1.0589  2.5473 -2.1024
 9135TIP3   OH251599   1.486   3.513   9.068  0.3587 -0.4008 -0.3065
 9135TIP3    H151600   1.426   3.462   9.013 -0.6829  0.2364  0.2076
 9135TIP3    H251601   1.430   3.579   9.110  1.0770 -0.9055  1.5763
 9136TIP3   OH251602   4.269   3.383   8.588  0.7372 -0.4296  0.1966
 9136TIP3    H151603   4.209   3.426   8.648 -0.5491 -1.8919  0.0012
 9136TIP3    H251604   4.299   3.453   8.529  0.5303  0.6291  1.3287
 9137TIP3   OH251605   2.551   4.190   8.279  0.8138  0.2414  0.3492
 9137TIP3    H151606   2.456   4.182   8.294  0.9023  0.0758  0.8060
 9137TIP3    H251607   2.563   4.156   8.190  0.4783  0.0309  0.3812
 9138TIP3   OH251608   5.935   5.832   9.539 -0.3206 -0.0899  0.4130
 9138TIP3    H151609   5.961   5.823   9.447 -0.2741  0.8588  0.3134
 9138TIP3    H251610   5.840   5.820   9.539 -0.4814  1.0334  0.0475
 9139TIP3   OH251611   5.283   3.060   8.739  0.7690 -0.1718  0.1746
 9139TIP3    H151612   5.317   3.139   8.698  0.9551  0.0413  0.7446
 9139TIP3    H251613   5.348   2.992   8.720  1.2414  0.1052  0.7792
 9140TIP3   OH251614   5.232   1.603  10.694 -0.4823 -0.0923  0.6345
 9140TIP3    H151615   5.274   1.675  10.741  0.5528 -0.4490  0.2714
 9140TIP3    H251616   5.183   1.556  10.762 -0.7372  0.6337  0.9657
 9141TIP3   OH251617   6.669   4.241  10.759 -0.0220 -0.3313  0.7182
 9141TIP3    H151618   6.584   4.224  10.717  0.1750 -0.4235  0.3565
 9141TIP3    H251619   6.646   4.276  10.845 -0.4713  2.2653 -0.3712
 9142TIP3   OH251620   4.641   0.201   9.844  0.2045 -0.4681  0.2698
 9142TIP3    H151621   4.662   0.245   9.762  0.8605 -0.9855  0.1509
 9142TIP3    H251622   4.624   0.272   9.906  1.8048 -0.0081  0.2314
 9143TIP3   OH251623   4.789   2.854   8.818 -0.0098 -0.4693  0.3342
 9143TIP3    H151624   4.772   2.826   8.728  0.7132 -0.6869  0.2545
 9143TIP3    H251625   4.794   2.949   8.813 -0.8502 -0.4207  0.3066
 9144TIP3   OH251626   2.518   1.986  11.893  0.0570  0.2690  0.1064
 9144TIP3    H151627   2.603   1.954  11.860  1.1858  1.8442  1.3462
 9144TIP3    H251628   2.465   1.906  11.903  2.5944 -1.2755  2.7047
 9145TIP3   OH251629   0.141   1.887   8.419  0.3204  0.3181 -0.2257
 9145TIP3    H151630   0.236   1.896   8.413  0.3194 -0.0800 -0.9464
 9145TIP3    H251631   0.113   1.866   8.330 -0.5460  1.3121 -0.2103
 9146TIP3   OH251632   2.769   3.809   8.235 -0.6671  0.3699  0.5228
 9146TIP3    H151633   2.683   3.792   8.198 -0.9680  1.7352  0.5447
 9146TIP3    H251634   2.751   3.856   8.317  0.0898  1.2401  0.2116
 9147TIP3   OH251635   4.422   3.140  11.191 -0.5005  0.2110 -0.5571
 9147TIP3    H151636   4.401   3.225  11.152 -0.6320 -0.1668 -1.3238
 9147TIP3    H251637   4.346   3.118  11.244 -0.6399  0.3872 -0.6834
 9148TIP3   OH251638   3.642   3.039   8.577  0.5039  0.1726 -0.1782
 9148TIP3    H151639   3.664   2.954   8.615  0.9566  0.5422  0.3912
 9148TIP3    H251640   3.700   3.101   8.620  0.3148  0.7490 -0.7345
 9149TIP3   OH251641   4.954   1.197   9.470 -0.2287  0.2242  0.1817
 9149TIP3    H151642   4.867   1.179   9.507 -0.1254  1.1241  0.9137
 9149TIP3    H251643   4.992   1.110   9.455 -1.6372 -0.2052 -1.1396
 9150TIP3   OH251644   0.487   3.257   8.848 -0.0560 -0.3799 -0.3523
 9150TIP3    H151645   0.470   3.320   8.918  1.5973  1.3583 -1.3985
 9150TIP3    H251646   0.403   3.247   8.804 -0.3838  1.0768 -0.1146
 9151TIP3   OH251647   0.095   1.440   9.218 -0.0985  0.6098 -0.8683
 9151TIP3    H151648   0.112   1.500   9.291  1.4266 -0.3542 -0.3923
 9151TIP3    H251649   0.109   1.492   9.140 -2.0102  1.7343 -0.5304
 9152TIP3   OH251650   1.750   5.924   8.656  0.1761 -0.6007  0.2245
 9152TIP3    H151651   1.655   5.909   8.650  0.4429 -2.1829 -0.5116
 9152TIP3    H251652   1.787   5.837   8.672  1.3409  0.3107  3.1202
 9153TIP3   OH251653   4.324   4.209   8.797  0.2019 -0.0539  0.2432
 9153TIP3    H151654   4.231   4.190   8.804 -0.1480  1.3185 -0.3373
 9153TIP3    H251655   4.367   4.125   8.812 -1.2095 -1.1906 -1.6621
 9154TIP3   OH251656   2.509   4.238  10.852  0.2064 -0.3949  0.0567
 9154TIP3    H151657   2.444   4.249  10.920 -0.1074  1.3641 -0.4850
 9154TIP3    H251658   2.501   4.316  10.797  1.9644 -0.6879 -0.7040
 9155TIP3   OH251659   5.967   3.054  10.379  0.4566  0.7660  0.1931
 9155TIP3    H151660   5.938   3.133  10.425  0.7024  0.7808  0.3229
 9155TIP3    H251661   6.038   3.084  10.323 -0.0709  0.8159 -0.4639
 9156TIP3   OH251662   2.369   3.792  10.576 -0.3825 -0.4165 -0.4644
 9156TIP3    H151663   2.396   3.740  10.500 -1.1947 -0.7169 -0.5650
 9156TIP3    H251664   2.300   3.849  10.542  0.2447  0.4794 -0.2671
 9157TIP3   OH251665   5.807   3.411   8.958  0.1670 -0.1559 -0.1639
 9157TIP3    H151666   5.860   3.412   9.038 -0.4887  1.2695  0.2805
 9157TIP3    H251667   5.717   3.425   8.988 -0.5151 -2.4016 -0.9174
 9158TIP3   OH251668   4.239   5.596  10.908  0.7714 -0.2478 -0.2188
 9158TIP3    H151669   4.254   5.687  10.933  0.1036  0.0383 -0.8313
 9158TIP3    H251670   4.163   5.598  10.850  0.7781 -1.1899 -0.2907
 9159TIP3   OH251671   6.234   3.109  10.854  0.0875 -0.1100 -1.0379
 9159TIP3    H151672   6.157   3.141  10.901  0.2422 -1.1724 -0.0030
 9159TIP3    H251673   6.308   3.143  10.904  0.2563 -0.7071 -0.8605
 9160TIP3   OH251674   2.447   0.852  10.403 -0.5042 -0.7401 -0.1483
 9160TIP3    H151675   2.426   0.774  10.454 -0.9500 -0.3517  0.2640
 9160TIP3    H251676   2.426   0.827  10.313 -0.5064 -1.1467 -0.0372
 9161TIP3   OH251677   5.346   1.526  11.537 -0.2327 -0.8050 -0.1391
 9161TIP3    H151678   5.431   1.538  11.497 -0.6903 -0.8756 -1.1637
 9161TIP3    H251679   5.364   1.516  11.631  0.6978  1.4125 -0.0221
 9162TIP3   OH251680   6.328   5.159  10.221 -0.0982 -0.2788 -0.1812
 9162TIP3    H151681   6.327   5.080  10.167  2.4471 -1.0340  0.7206
 9162TIP3    H251682   6.308   5.128  10.309 -0.7470  0.3717 -0.0935
 9163TIP3   OH251683   4.200   2.656  10.208  0.3487  0.0723  1.0236
 9163TIP3    H151684   4.114   2.682  10.241 -1.1695 -1.6047 -1.3413
 9163TIP3    H251685   4.224   2.580  10.261  0.4139  0.5807  1.7299
 9164TIP3   OH251686   4.928   5.261   8.967 -0.1594  0.0689 -0.3175
 9164TIP3    H151687   4.842   5.256   9.009  1.0096  0.7143  2.4136
 9164TIP3    H251688   4.938   5.353   8.944  1.4047  1.0762  3.5159
 9165TIP3   OH251689   1.204   6.081   8.878  0.5014  0.1571 -0.0954
 9165TIP3    H151690   1.137   6.135   8.918 -1.5549 -2.7353  0.6806
 9165TIP3    H251691   1.165   6.050   8.796  1.0974 -1.1094  0.0677
 9166TIP3   OH251692   0.801   2.840  10.697 -0.0395  0.0443  0.3721
 9166TIP3    H151693   0.891   2.810  10.684 -0.0432  0.2634 -0.1657
 9166TIP3    H251694   0.750   2.793  10.631 -0.2219  0.3754  0.2755
 9167TIP3   OH251695   2.122   4.093  11.121 -0.2873  0.1156 -0.3457
 9167TIP3    H151696   2.041   4.078  11.073 -0.7244  0.7940  0.1418
 9167TIP3    H251697   2.098   4.078  11.213 -0.0896  1.1189 -0.1143
 9168TIP3   OH251698   0.756   6.359   9.971  0.4592 -0.3921 -0.5544
 9168TIP3    H151699   0.720   6.391   9.889 -0.0312 -2.4613 -1.2031
 9168TIP3    H251700   0.770   6.438  10.024 -0.5713  0.8555 -2.0683
 9169TIP3   OH251701   5.643   5.797  10.165  0.7340  0.0426  0.0771
 9169TIP3    H151702   5.737   5.792  10.179  0.8939  1.3112 -0.4174
 9169TIP3    H251703   5.606   5.735  10.228  1.9178 -0.9249 -0.1348
 9170TIP3   OH251704   0.673   1.834   8.981 -0.2087  0.0323 -0.8790
 9170TIP3    H151705   0.594   1.785   8.963 -0.2717  0.3590 -1.5182
 9170TIP3    H251706   0.731   1.771   9.025 -0.9712 -0.0864 -0.0001
 9171TIP3   OH251707   4.851   3.810   9.273  0.0063 -0.0970  0.5488
 9171TIP3    H151708   4.838   3.736   9.213 -1.4242  0.7230 -0.2216
 9171TIP3    H251709   4.778   3.869   9.254  0.1966  0.7641  2.2793
 9172TIP3   OH251710   6.336   4.313   9.957  0.0524  0.4675  0.5260
 9172TIP3    H151711   6.400   4.365   9.908  0.1850  0.0507  0.2530
 9172TIP3    H251712   6.251   4.336   9.918  0.1701  0.0470  0.0144
 9173TIP3   OH251713   0.689   1.359  11.128 -0.0001  0.6707 -0.1627
 9173TIP3    H151714   0.637   1.297  11.178  0.2228  0.9700  0.4487
 9173TIP3    H251715   0.674   1.443  11.171 -1.9194  1.4517 -2.1813
 9174TIP3   OH251716   3.327   3.447   9.333  0.5791 -0.1254 -0.0859
 9174TIP3    H151717   3.405   3.404   9.298 -0.5819 -1.6614 -0.9277
 9174TIP3    H251718   3.293   3.497   9.259 -0.2627 -1.0008 -0.3071
 9175TIP3   OH251719   0.576   2.343  11.186  0.2236  0.5067 -0.0311
 9175TIP3    H151720   0.595   2.422  11.237 -1.6415  1.0342 -0.0738
 9175TIP3    H251721   0.645   2.282  11.210  1.3569  1.9344  0.4805
 9176TIP3   OH251722   1.893   4.666  11.641 -0.1622 -0.0452 -0.4687
 9176TIP3    H151723   1.953   4.726  11.685 -0.5595 -0.8323  1.2184
 9176TIP3    H251724   1.844   4.721  11.580 -0.1531  1.2585  0.6546
 9177TIP3   OH251725   0.984   0.697  10.448  0.0478 -0.4390 -0.2763
 9177TIP3    H151726   1.047   0.761  10.479 -0.2236 -0.4240  0.2582
 9177TIP3    H251727   1.024   0.612  10.468  1.2722 -0.5281 -2.6603
 9178TIP3   OH251728   2.936   1.030   9.060  0.0512 -0.7473  0.3086
 9178TIP3    H151729   3.013   1.060   9.012  1.8413 -0.6007  3.0436
 9178TIP3    H251730   2.930   0.937   9.039  1.8744 -1.0853  1.1103
 9179TIP3   OH251731   6.031   0.427   9.216 -0.0043 -0.0690  0.2198
 9179TIP3    H151732   6.047   0.519   9.198 -2.6893  0.2531 -0.8794
 9179TIP3    H251733   6.112   0.383   9.186  0.2126  1.6500 -1.9784
 9180TIP3   OH251734   3.109   4.181   9.484 -0.3131  0.6466  0.6272
 9180TIP3    H151735   3.080   4.267   9.452 -0.1868  1.1307  1.7557
 9180TIP3    H251736   3.157   4.201   9.565  0.2612 -0.4384  0.5691
 9181TIP3   OH251737   2.091   0.715   8.776  0.3440  0.0461  0.0326
 9181TIP3    H151738   2.083   0.647   8.843  0.4276 -0.7383 -0.7528
 9181TIP3    H251739   2.003   0.753   8.771 -0.5199 -2.0116 -1.6228
 9182TIP3   OH251740   2.092   3.490  10.203  0.3731  0.9155 -0.1994
 9182TIP3    H151741   2.111   3.400  10.230 -0.0489  0.9553  0.2294
 9182TIP3    H251742   2.154   3.507  10.132  0.5588  0.3401 -0.1773
 9183TIP3   OH251743   1.460   4.734  11.438 -0.7466  0.6655  0.5459
 9183TIP3    H151744   1.498   4.672  11.375 -2.6677  0.3238 -0.3685
 9183TIP3    H251745   1.530   4.797  11.455 -0.1648  0.8726 -2.0928
 9184TIP3   OH251746   2.810   3.598  11.531 -0.1976 -0.1218 -0.1826
 9184TIP3    H151747   2.891   3.620  11.577 -1.2538  1.0973  1.1823
 9184TIP3    H251748   2.794   3.506  11.552 -0.9766  0.5513  2.5306
 9185TIP3   OH251749   0.295   5.232  10.243 -0.1020 -0.3427 -0.0566
 9185TIP3    H151750   0.306   5.158  10.303 -0.7413  0.2931  0.8616
 9185TIP3    H251751   0.209   5.217  10.202 -0.8987  0.6194  1.2016
 9186TIP3   OH251752   1.567   2.233   8.511 -0.2491 -0.2031  0.6133
 9186TIP3    H151753   1.571   2.226   8.416 -1.2925 -0.9181  0.5998
 9186TIP3    H251754   1.631   2.300   8.533  0.7142 -0.7187 -0.5032
 9187TIP3   OH251755   2.336   1.984  11.663 -0.0045 -0.3303  1.1405
 9187TIP3    H151756   2.406   2.016  11.720 -0.4415 -0.9691  2.0495
 9187TIP3    H251757   2.350   2.030  11.580  1.5899 -0.5710  1.2503
 9188TIP3   OH251758   3.748   4.936   9.745  0.1319 -0.0513 -0.5103
 9188TIP3    H151759   3.685   5.004   9.723  1.6679  0.9760 -1.9601
 9188TIP3    H251760   3.814   4.980   9.798  0.7508 -0.5685 -0.8295
 9189TIP3   OH251761   5.133   3.268  11.430 -0.6742  0.2352  0.3191
 9189TIP3    H151762   5.153   3.177  11.405 -0.2811  0.3038  0.3736
 9189TIP3    H251763   5.067   3.260  11.498 -0.8237 -0.0026  0.1490
 9190TIP3   OH251764   5.269   4.526  10.840 -0.3561 -0.5452  0.0939
 9190TIP3    H151765   5.216   4.481  10.906 -0.7333 -0.4182 -0.1171
 9190TIP3    H251766   5.323   4.587  10.890 -1.7561  0.6849  0.1956
 9191TIP3   OH251767   2.985   1.938   9.965  0.2036 -0.6917  0.0284
 9191TIP3    H151768   3.021   1.960  10.051  0.5439 -1.4604  0.0955
 9191TIP3    H251769   2.904   1.891   9.984  0.1661 -0.6708 -0.0780
 9192TIP3   OH251770   4.763   0.850  11.130  0.2317  0.4863  0.1558
 9192TIP3    H151771   4.739   0.941  11.146 -1.2377 -0.2412  2.5906
 9192TIP3    H251772   4.708   0.823  11.057 -1.0018  0.9477  0.8834
 9193TIP3   OH251773   2.544   6.096   9.643 -0.1379 -0.4820 -0.4102
 9193TIP3    H151774   2.499   6.019   9.677  3.1446 -2.5912 -0.3516
 9193TIP3    H251775   2.581   6.139   9.720 -0.5682  0.2164 -0.5835
 9194TIP3   OH251776   5.948   0.771   9.558 -0.2263  0.0855  0.6376
 9194TIP3    H151777   5.891   0.802   9.488  0.7541 -1.8462 -1.1183
 9194TIP3    H251778   5.988   0.692   9.523  2.5776  0.6547  2.2516
 9195TIP3   OH251779   0.195   5.054  10.928  0.6582 -0.1625 -0.2132
 9195TIP3    H151780   0.258   5.019  10.864  1.5956  0.3142  0.4270
 9195TIP3    H251781   0.205   5.149  10.923 -2.2862  0.1852 -2.3611
 9196TIP3   OH251782   1.577   0.847   9.692 -0.3029  0.4845  0.1798
 9196TIP3    H151783   1.672   0.846   9.700 -0.3036  2.7373  1.1437
 9196TIP3    H251784   1.561   0.830   9.599  1.0462  0.4958 -0.0809
 9197TIP3   OH251785   2.809   5.734  11.692  0.4853 -0.0534  0.0767
 9197TIP3    H151786   2.751   5.693  11.757  0.1307  1.4667  0.7632
 9197TIP3    H251787   2.826   5.821  11.726  2.8161 -0.2670 -0.3735
 9198TIP3   OH251788   4.692   3.636   8.617  0.6237 -0.2923  0.3700
 9198TIP3    H151789   4.680   3.641   8.711 -0.4370 -0.7707  0.2788
 9198TIP3    H251790   4.659   3.720   8.584  0.4842 -0.3398  0.3869
 9199TIP3   OH251791   1.453   0.606  11.011 -0.1809 -0.2236  0.5828
 9199TIP3    H151792   1.454   0.565  11.097  1.6017  0.7557  1.0669
 9199TIP3    H251793   1.422   0.537  10.952  1.8676 -2.0287  1.4826
 9200TIP3   OH251794   5.065   5.938  12.226 -0.5292  0.2847  0.3474
 9200TIP3    H151795   5.107   6.020  12.203 -0.8440  0.6065  0.8858
 9200TIP3    H251796   5.134   5.872  12.219 -0.6200  0.3537 -1.4919
 9201TIP3   OH251797   3.815   4.411   9.198  0.0059 -0.5940  0.5928
 9201TIP3    H151798   3.726   4.432   9.168  0.1635  1.0239  1.1453
 9201TIP3    H251799   3.806   4.399   9.293  0.4788  0.2917  0.7573
 9202TIP3   OH251800   2.768   0.443   8.754 -0.1419  0.2355  0.1808
 9202TIP3    H151801   2.747   0.473   8.666  0.8659  1.8373  0.4528
 9202TIP3    H251802   2.863   0.431   8.753 -0.3331 -1.5820  0.5303
 9203TIP3   OH251803   0.125   3.019   8.781  0.1519 -0.0163  0.5050
 9203TIP3    H151804   0.075   3.052   8.855 -1.0799  2.4863 -1.3293
 9203TIP3    H251805   0.072   2.948   8.745 -0.6848  0.6773  0.3363
 9204TIP3   OH251806   1.368   1.579   9.991 -0.5360 -0.7283  0.1944
 9204TIP3    H151807   1.283   1.613  10.018  0.6658  1.5566  1.3921
 9204TIP3    H251808   1.411   1.653   9.949  1.0419 -1.6909  0.0319
 9205TIP3   OH251809   0.000   4.443  10.483 -0.1019 -0.7139 -0.6650
 9205TIP3    H151810  -0.077   4.497  10.501  0.6580  0.1120  0.2220
 9205TIP3    H251811   0.048   4.491  10.416 -0.3588 -1.2358 -1.2276
 9206TIP3   OH251812   1.122   5.982   8.616 -0.3403 -0.0639 -0.1786
 9206TIP3    H151813   1.207   5.998   8.573 -0.4731  0.3543 -0.2950
 9206TIP3    H251814   1.059   6.029   8.561 -0.6437 -0.3606 -0.0805
 9207TIP3   OH251815   1.498   6.350  10.515  0.2089 -0.3404  0.0329
 9207TIP3    H151816   1.532   6.439  10.524  0.6360 -0.5271  0.3073
 9207TIP3    H251817   1.524   6.323  10.427  1.9570 -0.9625  0.7054
 9208TIP3   OH251818   2.406   5.891  10.838 -0.2400 -0.1029 -0.3380
 9208TIP3    H151819   2.488   5.851  10.809 -0.5812 -1.8051  0.8667
 9208TIP3    H251820   2.433   5.970  10.885  0.7803 -0.9344  0.5261
 9209TIP3   OH251821   3.445   0.297  11.399 -0.3833  0.4595  0.0535
 9209TIP3    H151822   3.513   0.312  11.333  0.1777  0.2591  0.5742
 9209TIP3    H251823   3.493   0.269  11.477 -1.2420 -3.2170 -0.5590
 9210TIP3   OH251824   6.545   3.057   9.728  0.2887  0.1227  0.0864
 9210TIP3    H151825   6.584   3.117   9.665  0.5463  0.1644  0.2820
 9210TIP3    H251826   6.456   3.042   9.696  0.5655 -0.2170 -0.5415
 9211TIP3   OH251827   2.027   3.479   9.393  0.3882 -0.1068  0.0271
 9211TIP3    H151828   2.073   3.410   9.345 -1.6488 -0.7634 -1.0931
 9211TIP3    H251829   1.985   3.433   9.466  1.7833  0.5634  1.3143
 9212TIP3   OH251830   3.662   4.779  12.194 -0.3793  0.2782 -0.1356
 9212TIP3    H151831   3.612   4.717  12.140  0.2599 -0.2117 -0.1789
 9212TIP3    H251832   3.735   4.805  12.138 -0.5540  0.9581 -0.0567
 9213TIP3   OH251833   1.975   5.444   8.998 -0.4134  0.5982 -0.1706
 9213TIP3    H151834   1.960   5.538   8.987 -1.9379  0.2368 -1.3423
 9213TIP3    H251835   1.896   5.412   9.040 -1.4120 -0.6978 -2.8496
 9214TIP3   OH251836   1.861   2.544   9.643 -0.4430 -0.1801  0.4732
 9214TIP3    H151837   1.901   2.594   9.714 -1.3087  1.5624 -0.2007
 9214TIP3    H251838   1.865   2.453   9.672  2.0882  0.1340  1.3248
 9215TIP3   OH251839   1.671   5.655  10.862 -0.1941 -0.0450 -0.3005
 9215TIP3    H151840   1.700   5.625  10.776  0.6033 -1.8385  0.5420
 9215TIP3    H251841   1.721   5.603  10.924 -1.5988  0.3589  1.2597
 9216TIP3   OH251842   6.547   1.422   9.768 -0.2478  0.1387  0.0082
 9216TIP3    H151843   6.476   1.358   9.757 -0.5504  0.6724 -1.3824
 9216TIP3    H251844   6.566   1.420   9.862 -0.2924 -1.9271  0.0352
 9217TIP3   OH251845   1.070   1.563   9.201  0.7163  0.2763 -0.8731
 9217TIP3    H151846   1.051   1.599   9.288  0.2377  1.6267 -1.5145
 9217TIP3    H251847   1.143   1.616   9.168  1.8074 -1.1031 -0.7813
 9218TIP3   OH251848   0.957   0.324   8.625  0.1186 -0.1433  0.0532
 9218TIP3    H151849   1.045   0.361   8.627 -0.1592  0.6092 -0.6740
 9218TIP3    H251850   0.904   0.392   8.584 -0.5387 -1.1382 -0.7934
 9219TIP3   OH251851   4.655   3.568   8.922 -0.4134  0.4140  0.3361
 9219TIP3    H151852   4.696   3.485   8.897  1.0629  0.8766  1.1045
 9219TIP3    H251853   4.710   3.602   8.992 -1.2348  1.8532  0.3248
 9220TIP3   OH251854   2.736   1.638   8.682  0.5640  0.4990  0.6763
 9220TIP3    H151855   2.784   1.556   8.671  0.5348  0.5236  0.3451
 9220TIP3    H251856   2.728   1.673   8.593 -0.7849  0.0800  0.6129
 9221TIP3   OH251857   5.413   6.069   8.816 -0.2299 -0.8347  0.2430
 9221TIP3    H151858   5.461   6.106   8.742 -2.7762  0.4571 -0.9052
 9221TIP3    H251859   5.457   6.104   8.893  1.6037 -1.0361 -0.6464
 9222TIP3   OH251860   3.276   1.363  10.192 -0.3552  0.0774 -0.2254
 9222TIP3    H151861   3.275   1.386  10.099 -3.0907  0.3927 -0.2011
 9222TIP3    H251862   3.335   1.427  10.232  0.0858  0.5562 -1.5845
 9223TIP3   OH251863   3.888   5.570  10.267 -0.4640  0.1243 -0.3757
 9223TIP3    H151864   3.822   5.530  10.324  1.7196 -2.0456  0.7846
 9223TIP3    H251865   3.857   5.548  10.178 -0.5180 -2.3862  0.1670
 9224TIP3   OH251866   2.490   0.784   8.814 -0.2814 -0.0004  0.1385
 9224TIP3    H151867   2.469   0.875   8.794  0.4480  0.3873  1.0339
 9224TIP3    H251868   2.427   0.733   8.763  0.0903  0.9578 -1.3574
 9225TIP3   OH251869   3.312   4.077  11.057 -0.0530  0.5511  0.1953
 9225TIP3    H151870   3.280   4.157  11.016 -0.0377  0.7037  0.4787
 9225TIP3    H251871   3.236   4.018  11.057  0.1267  0.2991 -0.6699
 9226TIP3   OH251872   3.564   6.396  10.196 -0.3362 -0.2150 -0.0624
 9226TIP3    H151873   3.647   6.350  10.188 -0.5671 -0.3891 -2.0654
 9226TIP3    H251874   3.507   6.355  10.130 -1.4589  1.0119  0.0924
 9227TIP3   OH251875   3.194   6.625   9.654 -0.1990  0.3267 -0.8042
 9227TIP3    H151876   3.156   6.690   9.595 -0.6687 -0.2898 -1.1887
 9227TIP3    H251877   3.124   6.561   9.668  0.6067 -0.7093 -1.3432
 9228TIP3   OH251878   3.835   0.436   8.852  0.3793 -0.2020  0.0981
 9228TIP3    H151879   3.864   0.437   8.944 -0.2591 -0.6900  0.3173
 9228TIP3    H251880   3.882   0.508   8.811  1.2995 -0.4838  0.6196
 9229TIP3   OH251881   2.703   3.345  10.448 -0.4897  0.3114  0.0264
 9229TIP3    H151882   2.736   3.300  10.525 -1.2569 -0.9753 -0.3629
 9229TIP3    H251883   2.775   3.339  10.384 -1.3556 -2.5048 -0.8305
 9230TIP3   OH251884   3.708   5.417  10.842  0.6501 -0.3624  0.3453
 9230TIP3    H151885   3.786   5.377  10.879  0.1864 -1.8090 -0.1645
 9230TIP3    H251886   3.719   5.408  10.747  1.0147  1.7186  0.1462
 9231TIP3   OH251887   2.764   4.045  11.558  0.2959 -0.7128 -0.7297
 9231TIP3    H151888   2.808   3.970  11.599  0.6468 -0.6849 -1.0538
 9231TIP3    H251889   2.799   4.121  11.605  1.4718 -0.5987 -1.7394
 9232TIP3   OH251890   3.031   1.677   8.518 -0.1677  0.2527  0.2023
 9232TIP3    H151891   3.074   1.738   8.578  1.6274  1.8565 -2.5166
 9232TIP3    H251892   2.957   1.727   8.482 -0.7470 -0.4085  0.4449
 9233TIP3   OH251893   2.838   2.150   8.962  0.0546 -0.3280 -0.0799
 9233TIP3    H151894   2.818   2.077   9.020  1.2946 -0.7764 -0.2005
 9233TIP3    H251895   2.810   2.121   8.875 -2.2748  0.5319  0.2807
 9234TIP3   OH251896   6.443   1.661  10.481 -0.1091 -0.2902 -0.0273
 9234TIP3    H151897   6.508   1.731  10.493  0.5215 -0.7252 -0.8282
 9234TIP3    H251898   6.414   1.641  10.570  0.7602  0.0047  0.3370
 9235TIP3   OH251899   2.127   2.340  10.640  0.4040  0.3665  0.0017
 9235TIP3    H151900   2.116   2.286  10.718 -1.3418  0.9077  0.1698
 9235TIP3    H251901   2.071   2.300  10.575  0.5932  0.8604 -0.4745
 9236TIP3   OH251902   4.524   2.466   9.683  0.1434 -0.8054  0.1887
 9236TIP3    H151903   4.581   2.478   9.759 -0.6328  0.5801  0.6008
 9236TIP3    H251904   4.441   2.436   9.720 -0.4939  0.6368  0.0296
 9237TIP3   OH251905   3.319   4.459   9.621  0.0748  0.2298  0.4911
 9237TIP3    H151906   3.300   4.539   9.671 -0.3922  0.6274 -0.2988
 9237TIP3    H251907   3.256   4.395   9.654  0.2949  0.2581  0.9679
 9238TIP3   OH251908   5.028   4.740   9.486  0.4896 -0.0641 -0.7315
 9238TIP3    H151909   5.093   4.792   9.534  1.8897 -1.7303 -0.7312
 9238TIP3    H251910   5.055   4.649   9.500 -2.0336 -0.8418 -0.5115
 9239TIP3   OH251911   0.120   4.568   8.662  0.2116 -0.0281  0.7746
 9239TIP3    H151912   0.177   4.642   8.684 -1.3082  1.9612 -1.5448
 9239TIP3    H251913   0.179   4.505   8.621  1.0289  1.4690 -0.4908
 9240TIP3   OH251914   3.175   4.316   9.162 -0.0351 -0.0173  0.0054
 9240TIP3    H151915   3.127   4.245   9.118  0.4838 -1.0482  1.0373
 9240TIP3    H251916   3.266   4.285   9.163  0.3158  0.9929 -0.1399
 9241TIP3   OH251917   5.116   5.022  10.784 -0.3665 -0.6826  0.0506
 9241TIP3    H151918   5.061   4.944  10.782  1.7462 -2.2562 -0.2817
 9241TIP3    H251919   5.119   5.052  10.694 -1.7170  0.2155  0.2859
 9242TIP3   OH251920   2.576   0.403   9.558 -0.1603 -0.0557 -0.1232
 9242TIP3    H151921   2.488   0.388   9.524  0.5412  1.1406 -2.6824
 9242TIP3    H251922   2.583   0.498   9.564  0.7294 -0.1599  0.8163
 9243TIP3   OH251923   2.928   3.307  11.464  0.1118  0.2985 -0.0884
 9243TIP3    H151924   2.971   3.222  11.460 -0.2914  0.0738  0.3091
 9243TIP3    H251925   2.877   3.305  11.545  0.7799  1.2481  0.3799
 9244TIP3   OH251926   2.483   5.090  11.058 -0.2756  0.0040  0.0490
 9244TIP3    H151927   2.438   5.175  11.055 -0.5880 -0.1464  0.3512
 9244TIP3    H251928   2.456   5.052  11.141 -0.6044 -0.6472 -0.3460
 9245TIP3   OH251929   2.412   3.739  10.311  0.1437 -0.8790  0.3672
 9245TIP3    H151930   2.325   3.711  10.340  0.1051 -0.1396  0.9951
 9245TIP3    H251931   2.459   3.657  10.295 -0.9141 -1.2925 -0.7961
 9246TIP3   OH251932   2.518   2.080   9.513  0.0134 -0.1025 -0.4715
 9246TIP3    H151933   2.592   2.122   9.469 -0.0843  0.1612 -0.3840
 9246TIP3    H251934   2.512   2.123   9.598  0.7090 -1.1643  0.1408
 9247TIP3   OH251935   1.310   2.525  11.616 -0.1635 -0.3909  0.2637
 9247TIP3    H151936   1.403   2.544  11.600 -0.2730 -0.0973 -0.0111
 9247TIP3    H251937   1.282   2.593  11.677  0.1477 -1.2657  1.4402
 9248TIP3   OH251938   1.444   4.084  10.144  0.4122  0.4940 -0.1786
 9248TIP3    H151939   1.433   4.039  10.228  1.4108  1.1831  0.3505
 9248TIP3    H251940   1.510   4.151  10.162  0.5392  0.7428 -1.4920
 9249TIP3   OH251941   1.376   3.404   9.336 -0.4116 -0.5469 -0.1628
 9249TIP3    H151942   1.445   3.355   9.292  0.0115  0.3253 -0.4994
 9249TIP3    H251943   1.392   3.495   9.312 -2.5253 -0.4537 -1.4219
 9250TIP3   OH251944   5.475   3.460   9.641 -0.4792  0.0792  0.1893
 9250TIP3    H151945   5.507   3.550   9.631  0.5900 -0.4145 -1.1747
 9250TIP3    H251946   5.446   3.455   9.732 -0.3174  1.7259  0.3634
 9251TIP3   OH251947   1.089   4.780   9.150 -0.1063 -0.7648 -0.2731
 9251TIP3    H151948   1.015   4.795   9.209  0.2858 -0.7876  0.2300
 9251TIP3    H251949   1.164   4.820   9.194 -0.3128  1.8566 -2.0804
 9252TIP3   OH251950   0.237   0.234   9.150 -0.7846  0.0805 -0.5014
 9252TIP3    H151951   0.194   0.319   9.159 -1.5574 -0.4290  0.8027
 9252TIP3    H251952   0.330   0.256   9.138 -0.6798  1.1092  1.6518
 9253TIP3   OH251953   5.753   4.773  10.213  0.1131 -0.0042  0.1672
 9253TIP3    H151954   5.810   4.716  10.162 -0.4479 -0.8684  0.4864
 9253TIP3    H251955   5.810   4.806  10.283  0.4423 -0.1847 -0.0110
 9254TIP3   OH251956   3.703   1.034   9.249 -0.2696  0.4743  0.2666
 9254TIP3    H151957   3.667   1.064   9.166  1.0078  1.6970  0.1257
 9254TIP3    H251958   3.795   1.057   9.246  0.2019 -1.0753  1.3084
 9255TIP3   OH251959   5.910   4.524  10.773 -0.3105 -0.1819  0.0485
 9255TIP3    H151960   5.837   4.543  10.832 -0.7819  0.9153 -0.8441
 9255TIP3    H251961   5.868   4.487  10.694  0.3210 -1.7696  0.4154
 9256TIP3   OH251962   0.852   4.371  11.248  0.3117  0.3331 -0.7120
 9256TIP3    H151963   0.779   4.432  11.234 -1.7125 -1.8781 -0.4451
 9256TIP3    H251964   0.853   4.357  11.343  0.5634 -0.2439 -0.7981
 9257TIP3   OH251965   0.235   2.965  10.737  0.1191  0.6991 -0.6265
 9257TIP3    H151966   0.324   2.929  10.729  0.6092  1.7308  0.0059
 9257TIP3    H251967   0.202   2.965  10.647  0.1111 -1.2329 -0.6830
 9258TIP3   OH251968   4.320   1.580  10.534  0.1465  0.5327 -0.2293
 9258TIP3    H151969   4.390   1.642  10.553  0.1042 -0.1196  2.3924
 9258TIP3    H251970   4.239   1.629  10.554  0.0492  0.1221  0.4100
 9259TIP3   OH251971   4.200   2.803  10.577 -0.6793  0.4516  0.1036
 9259TIP3    H151972   4.153   2.721  10.558 -0.0640  0.0669  0.2338
 9259TIP3    H251973   4.153   2.840  10.652  0.2838 -0.8345  1.4069
 9260TIP3   OH251974   3.718   3.796   9.439 -0.1379  0.0086  0.0830
 9260TIP3    H151975   3.799   3.788   9.389 -0.7833 -1.6551 -0.7809
 9260TIP3    H251976   3.718   3.719   9.496 -0.9208  0.2032  0.3545
 9261TIP3   OH251977   2.023   5.493   9.905 -0.1062  0.1776 -0.1632
 9261TIP3    H151978   1.968   5.418   9.927 -0.1869  0.5464  0.9152
 9261TIP3    H251979   2.112   5.457   9.899 -0.3289 -0.2511 -1.0292
 9262TIP3   OH251980   2.767   1.953  11.776 -0.8343 -0.3921 -0.0505
 9262TIP3    H151981   2.812   2.036  11.761 -2.8883  0.7536 -0.2010
 9262TIP3    H251982   2.776   1.938  11.871 -0.1502 -0.1979 -0.0780
 9263TIP3   OH251983   0.261   2.507  10.527  0.3448  0.0499  0.0760
 9263TIP3    H151984   0.184   2.481  10.478  0.6690 -1.3500  0.2708
 9263TIP3    H251985   0.334   2.496  10.466  0.6646 -1.0034  0.6287
 9264TIP3   OH251986   2.244   1.743   9.649 -0.6601 -0.1138 -0.4570
 9264TIP3    H151987   2.297   1.736   9.570  0.6376  1.3263  0.2397
 9264TIP3    H251988   2.235   1.653   9.680  0.0462 -0.5416 -1.4453
 9265TIP3   OH251989   0.770   4.075   9.591 -0.0658 -0.2765  0.2010
 9265TIP3    H151990   0.862   4.052   9.579 -0.4679 -1.8805 -0.1112
 9265TIP3    H251991   0.740   4.017   9.662 -0.8917  0.0418  0.1218
 9266TIP3   OH251992   5.453   2.676  10.554 -0.4904 -0.5689 -0.0495
 9266TIP3    H151993   5.453   2.721  10.639 -0.6774 -2.2637  0.8892
 9266TIP3    H251994   5.459   2.747  10.490 -1.3915  0.8348  1.3314
 9267TIP3   OH251995   3.253   5.229  10.601 -0.2565 -0.0008 -0.1585
 9267TIP3    H151996   3.347   5.245  10.606 -0.4383  0.7579  1.2049
 9267TIP3    H251997   3.234   5.175  10.678 -0.8414 -0.6931 -0.7775
 9268TIP3   OH251998   3.647   5.010  11.274 -0.2611 -0.0060 -0.0071
 9268TIP3    H151999   3.705   4.940  11.244  1.6982  1.0258  1.2031
 9268TIP3    H252000   3.635   5.066  11.197 -2.0987 -1.7097 -1.0858
 9269TIP3   OH252001   6.385   2.183  11.203 -0.1774 -0.2410  0.3577
 9269TIP3    H152002   6.345   2.125  11.268 -0.8470  1.6197  1.6815
 9269TIP3    H252003   6.312   2.232  11.166  0.4115  0.0345 -0.4665
 9270TIP3   OH252004   0.015   1.676  11.245 -0.4237 -0.2479  0.0496
 9270TIP3    H152005   0.034   1.647  11.156  0.2080  1.0580 -0.2781
 9270TIP3    H252006   0.070   1.621  11.301  1.0516  0.5238 -0.5753
 9271TIP3   OH252007   5.758   4.871   8.783 -0.0226  0.2960 -0.1819
 9271TIP3    H152008   5.697   4.832   8.845 -0.9681 -0.3097 -1.4660
 9271TIP3    H252009   5.778   4.957   8.820 -1.6197  0.4926  0.2738
 9272TIP3   OH252010   0.775   1.177   9.485  0.2938  0.3665  0.2622
 9272TIP3    H152011   0.770   1.155   9.578  0.3496 -1.4134 -0.1250
 9272TIP3    H252012   0.689   1.213   9.465 -0.1916 -0.4891  0.7203
 9273TIP3   OH252013   4.427   0.500   9.482 -0.7426 -0.1705 -0.0570
 9273TIP3    H152014   4.493   0.556   9.441  0.1685 -1.2666 -0.1347
 9273TIP3    H252015   4.433   0.521   9.575 -1.7763  1.2455 -0.2825
 9274TIP3   OH252016   4.702   0.191   9.412  0.3243  0.2164 -0.1294
 9274TIP3    H152017   4.665   0.238   9.487 -0.8773  0.1900 -0.6872
 9274TIP3    H252018   4.678   0.244   9.336  1.1484  0.0128 -0.5500
 9275TIP3   OH252019   2.442   2.308  10.677 -0.2372 -0.6830 -0.0134
 9275TIP3    H152020   2.349   2.294  10.699 -0.8304 -1.4001 -2.6259
 9275TIP3    H252021   2.464   2.392  10.718 -2.1608 -0.2940  0.3214
 9276TIP3   OH252022   0.737   0.113  10.158 -0.1418  0.4681 -0.0435
 9276TIP3    H152023   0.699   0.175  10.220  0.4803 -0.7262  1.6180
 9276TIP3    H252024   0.785   0.167  10.096 -0.3184  1.6968  0.8479
 9277TIP3   OH252025   6.058   1.910  10.560  0.4005  0.1445 -0.0854
 9277TIP3    H152026   6.090   1.904  10.470 -0.7080  1.0220 -0.5545
 9277TIP3    H252027   6.067   1.821  10.595  0.4570 -0.2928 -1.1871
 9278TIP3   OH252028   3.189   5.562  11.749 -0.7476 -0.2172 -0.3324
 9278TIP3    H152029   3.147   5.523  11.826 -0.6120 -0.1137 -0.2059
 9278TIP3    H252030   3.267   5.605  11.784 -1.2237  0.7108 -0.3706
 9279TIP3   OH252031   4.185   5.444   9.248 -0.2653 -0.0147  0.0881
 9279TIP3    H152032   4.172   5.353   9.222 -0.3226  0.6256 -2.3589
 9279TIP3    H252033   4.267   5.443   9.297 -0.3020 -1.3828  0.1777
 9280TIP3   OH252034   2.289   6.615   8.789  0.0109  0.2587  0.1650
 9280TIP3    H152035   2.251   6.579   8.709  1.0295  0.3818 -0.4028
 9280TIP3    H252036   2.216   6.660   8.832 -0.9440 -1.2200  0.1733
 9281TIP3   OH252037   6.632   1.074   9.992 -0.1776  0.1695  0.2015
 9281TIP3    H152038   6.614   0.985   9.963  1.9544 -0.1652 -0.2221
 9281TIP3    H252039   6.570   1.128   9.942 -0.3945 -0.9230 -0.7533
 9282TIP3   OH252040   1.744   4.276   9.938  0.0328  0.0494 -0.0710
 9282TIP3    H152041   1.824   4.291   9.887 -0.2239 -1.5907 -1.0544
 9282TIP3    H252042   1.773   4.275  10.029  1.4883 -2.2204 -0.4882
 9283TIP3   OH252043   6.341   3.503  10.361 -0.0524 -0.2957 -0.1501
 9283TIP3    H152044   6.331   3.421  10.313 -0.6632 -0.3971  0.1344
 9283TIP3    H252045   6.430   3.500  10.396 -0.1898 -0.9958  0.1484
 9284TIP3   OH252046   2.280   3.479   8.230  0.2348  0.0885  0.4988
 9284TIP3    H152047   2.222   3.550   8.256  0.8843  0.0179  2.3527
 9284TIP3    H252048   2.257   3.407   8.288  1.8450 -0.0745  0.9885
 9285TIP3   OH252049   3.809   0.823  11.394  0.6170  0.8417 -0.2522
 9285TIP3    H152050   3.770   0.863  11.316  0.3814 -0.1919 -0.6752
 9285TIP3    H252051   3.896   0.796  11.367  0.1562 -0.4850 -0.4931
 9286TIP3   OH252052   0.001   0.074   9.015 -0.0777 -0.0474  0.0801
 9286TIP3    H152053   0.034   0.159   8.988 -1.0614  0.4000  0.2496
 9286TIP3    H252054  -0.074   0.058   8.958  0.6954 -1.2715 -0.6367
 9287TIP3   OH252055   3.903   4.161   9.129 -0.6623 -0.0124 -0.0282
 9287TIP3    H152056   3.932   4.143   9.218 -1.0742 -0.5366  0.0018
 9287TIP3    H252057   3.853   4.243   9.136  0.1864  0.5126  0.0393
 9288TIP3   OH252058   5.889   4.189   8.851 -0.4485  0.0182 -0.2818
 9288TIP3    H152059   5.883   4.107   8.900 -0.2203  0.1942  0.0411
 9288TIP3    H252060   5.799   4.222   8.849 -0.6595 -0.5570 -0.9732
 9289TIP3   OH252061   1.798   6.179   9.878  0.0434 -0.2664 -0.2986
 9289TIP3    H152062   1.714   6.185   9.924 -0.2512  1.8212 -1.0127
 9289TIP3    H252063   1.774   6.186   9.785  0.8693 -1.6302 -0.6420
 9290TIP3   OH252064   5.061   0.949   9.469 -0.4487  0.2783 -0.5021
 9290TIP3    H152065   4.994   0.887   9.497 -0.1481  0.9826  2.0317
 9290TIP3    H252066   5.142   0.898   9.468 -0.4602  0.2429  0.0047
 9291TIP3   OH252067   1.040   6.239  10.826  0.3864 -0.4117  0.0176
 9291TIP3    H152068   0.965   6.264  10.880 -1.3835  0.6952 -2.7148
 9291TIP3    H252069   1.035   6.144  10.819 -2.1175 -0.2600 -1.7171
 9292TIP3   OH252070   3.466   6.378  10.933  0.6073  0.7736  0.4461
 9292TIP3    H152071   3.391   6.318  10.940  0.0162  1.5500  0.9659
 9292TIP3    H252072   3.535   6.336  10.984  1.1058 -0.7612 -1.3589
 9293TIP3   OH252073   2.098   2.371   9.238  0.1199  0.4807 -0.1214
 9293TIP3    H152074   2.134   2.428   9.307  0.3124  1.0601 -0.6940
 9293TIP3    H252075   2.078   2.289   9.283 -0.0695  0.9658  0.6986
 9294TIP3   OH252076   4.691   0.963   9.348 -0.2514 -0.4985 -0.0619
 9294TIP3    H152077   4.732   0.936   9.430 -0.5707 -1.0568 -0.0782
 9294TIP3    H252078   4.759   0.950   9.282 -0.3136 -1.0163 -0.0289
 9295TIP3   OH252079   5.965   2.423  10.061  0.4133  0.3814  0.5756
 9295TIP3    H152080   5.930   2.359   9.999 -0.7974 -0.0351  1.6525
 9295TIP3    H252081   5.974   2.374  10.143  0.1097  1.4188  1.2403
 9296TIP3   OH252082   4.129   2.707   8.435  0.4268 -0.4757  0.4377
 9296TIP3    H152083   4.048   2.757   8.426  1.7008  1.2919 -2.1817
 9296TIP3    H252084   4.099   2.619   8.462 -2.2743  0.2954  0.2701
 9297TIP3   OH252085   4.365   3.869  10.089  0.1574 -0.1072 -0.0624
 9297TIP3    H152086   4.373   3.892  10.182 -0.5546  1.7715 -0.4215
 9297TIP3    H252087   4.379   3.774  10.087 -1.6856 -0.5389  2.2203
 9298TIP3   OH252088   2.136   0.908   9.058 -0.5546  0.0260 -0.8685
 9298TIP3    H152089   2.044   0.930   9.045 -0.3433  1.1334 -0.5646
 9298TIP3    H252090   2.184   0.980   9.017  0.1575  0.7445  1.1390
 9299TIP3   OH252091   6.420   3.328  10.162  0.6342  0.3701 -0.0309
 9299TIP3    H152092   6.378   3.249  10.129 -0.8654  1.0820  0.1089
 9299TIP3    H252093   6.507   3.299  10.191 -0.9431 -1.9164  2.9920
 9300TIP3   OH252094   2.190   4.302   9.126  0.0910  0.0076  0.4886
 9300TIP3    H152095   2.119   4.244   9.153  0.8343  0.0850  2.8938
 9300TIP3    H252096   2.256   4.244   9.088  0.0712 -0.5057  1.2184
 9301TIP3   OH252097   6.469   1.110  10.735 -0.1801 -0.2560  0.1202
 9301TIP3    H152098   6.512   1.060  10.666  0.4675  1.6236 -0.9226
 9301TIP3    H252099   6.393   1.150  10.692 -1.0100 -0.7563  1.0682
 9302TIP3   OH252100   1.026   1.082   8.586  0.5901  0.2996  0.0417
 9302TIP3    H152101   0.931   1.068   8.587  0.7125 -0.7211  2.3016
 9302TIP3    H252102   1.063   0.994   8.582  1.4117  0.5435  1.6430
 9303TIP3   OH252103   5.202   2.571  10.159 -0.5057  0.0410  0.0364
 9303TIP3    H152104   5.116   2.530  10.158 -0.3761 -0.3064  1.1213
 9303TIP3    H252105   5.263   2.497  10.172 -0.4411  0.5954  5.4292
 9304TIP3   OH252106   0.257   6.510   9.592  0.0601 -0.1300  0.4085
 9304TIP3    H152107   0.283   6.596   9.623  0.4487 -0.0617 -0.0899
 9304TIP3    H252108   0.185   6.526   9.532  0.0197 -0.1642  0.4481
 9305TIP3   OH252109   1.606   6.029  10.260 -0.3108  0.4671  0.4334
 9305TIP3    H152110   1.692   6.047  10.222 -0.3765  0.0465  0.0681
 9305TIP3    H252111   1.624   5.976  10.337 -0.3556 -2.5225 -1.4268
 9306TIP3   OH252112   4.729   2.222   9.090  0.0290  0.2344 -0.2332
 9306TIP3    H152113   4.653   2.279   9.078 -1.0203 -1.3689 -1.7481
 9306TIP3    H252114   4.798   2.262   9.037  0.1012  1.3912  0.6924
 9307TIP3   OH252115   5.755   2.080   8.603 -0.8334 -0.2338  0.6603
 9307TIP3    H152116   5.746   2.168   8.566 -0.3804 -1.1782 -1.9632
 9307TIP3    H252117   5.836   2.083   8.653  0.3956  0.3483 -1.2349
 9308TIP3   OH252118   1.635   3.236  11.717 -0.2602 -0.1413 -0.0073
 9308TIP3    H152119   1.611   3.317  11.762 -1.3834 -0.8433  0.7150
 9308TIP3    H252120   1.651   3.263  11.626 -0.4503  0.9155  0.2583
 9309TIP3   OH252121   0.205   1.231   9.329  0.0596 -0.0388 -0.0037
 9309TIP3    H152122   0.181   1.230   9.422 -2.0491 -1.3181 -0.5135
 9309TIP3    H252123   0.159   1.307   9.293  1.7643  1.1298  0.1491
 9310TIP3   OH252124   4.672   0.582  10.374  0.9092 -0.5982 -0.5595
 9310TIP3    H152125   4.585   0.569  10.337  0.4714  0.5149  0.0188
 9310TIP3    H252126   4.671   0.531  10.455 -0.4250  1.9320  1.1585
 9311TIP3   OH252127   5.367   3.914   9.841 -0.4362 -0.1874 -0.5898
 9311TIP3    H152128   5.434   3.944   9.780 -0.5809 -0.1550 -0.7319
 9311TIP3    H252129   5.314   3.992   9.860 -0.4054 -0.2021 -0.4412
 9312TIP3   OH252130   0.349   1.731  11.563 -0.8141  0.1774  0.3349
 9312TIP3    H152131   0.344   1.734  11.659 -0.8165  2.1416  0.3103
 9312TIP3    H252132   0.289   1.661  11.538 -2.4144  0.9955  1.6924
 9313TIP3   OH252133   3.968   3.160  10.097  0.3873  0.0300 -0.0503
 9313TIP3    H152134   4.063   3.156  10.085  0.5070  0.4173  0.7142
 9313TIP3    H252135   3.953   3.242  10.145 -0.1311 -1.0049  1.6515
 9314TIP3   OH252136   5.632   2.184  10.020  0.5393  0.0590 -0.3251
 9314TIP3    H152137   5.721   2.179  10.054  0.4424  2.5214  0.4941
 9314TIP3    H252138   5.630   2.120   9.948  2.0910 -2.0451  1.3586
 9315TIP3   OH252139   2.311   4.869   9.416  0.2059  0.6462  0.3692
 9315TIP3    H152140   2.300   4.871   9.321 -1.1233 -0.6178  0.4748
 9315TIP3    H252141   2.290   4.780   9.441 -2.9591  1.7750  2.2323
 9316TIP3   OH252142   0.864   6.020  10.753  0.1733 -0.9372  0.4096
 9316TIP3    H152143   0.802   6.090  10.734 -0.1574 -1.0611  1.0054
 9316TIP3    H252144   0.897   5.993  10.667 -0.0816 -0.4030  0.1412
 9317TIP3   OH252145   5.373   0.255  10.344 -0.0706 -0.2987 -0.7633
 9317TIP3    H152146   5.281   0.243  10.368 -0.1354  0.8733 -0.3426
 9317TIP3    H252147   5.370   0.296  10.258 -0.0055  0.8084 -0.2682
 9318TIP3   OH252148   3.588   5.136   9.656  0.0865 -0.3986 -0.5245
 9318TIP3    H152149   3.634   5.171   9.579 -2.5094 -1.0261 -2.4777
 9318TIP3    H252150   3.520   5.201   9.674  2.3639  1.2869  3.2562
 9319TIP3   OH252151   3.042   2.703  10.645 -0.5337 -0.7537  0.1888
 9319TIP3    H152152   3.020   2.610  10.643 -0.0751 -0.8484 -0.4083
 9319TIP3    H252153   3.062   2.720  10.738  1.2750 -1.7032  0.0224
 9320TIP3   OH252154   5.143   0.636   9.272  0.1660 -0.2550  0.1817
 9320TIP3    H152155   5.050   0.652   9.260 -0.1422 -0.2390  2.1687
 9320TIP3    H252156   5.184   0.722   9.259 -0.3627  0.1821  1.2444
 9321TIP3   OH252157   3.476   1.810  10.658 -0.3071 -0.0610 -0.0340
 9321TIP3    H152158   3.517   1.726  10.638  0.8805  0.6070 -0.5156
 9321TIP3    H252159   3.546   1.861  10.699 -0.8182  0.9132 -0.3473
 9322TIP3   OH252160   1.078   6.427   9.913 -0.1560  0.3895 -0.0288
 9322TIP3    H152161   1.023   6.453   9.986  1.9607  1.4025  1.3262
 9322TIP3    H252162   1.144   6.497   9.906  1.7027 -1.3197 -0.7132
 9323TIP3   OH252163   4.962   1.470  10.488  0.5949 -0.1544 -0.3046
 9323TIP3    H152164   5.002   1.556  10.472 -1.9589  1.3872  0.8397
 9323TIP3    H252165   4.905   1.456  10.413  0.3855 -0.4479 -0.0937
 9324TIP3   OH252166   1.987   1.101  10.103  0.1685 -0.4192  0.0533
 9324TIP3    H152167   2.015   1.083  10.192 -1.3102 -0.1670  0.6015
 9324TIP3    H252168   1.993   1.197  10.095  0.6136 -0.4675 -0.2392
 9325TIP3   OH252169   5.531   4.491   8.658 -0.2296 -0.0207 -0.3426
 9325TIP3    H152170   5.443   4.483   8.621 -0.0110 -0.1834 -0.8406
 9325TIP3    H252171   5.578   4.549   8.597 -0.8436  2.5759  1.4806
 9326TIP3   OH252172   6.426   4.183  11.187  0.8274 -0.4591 -0.0509
 9326TIP3    H152173   6.419   4.227  11.271  2.1658 -0.2937 -0.0016
 9326TIP3    H252174   6.485   4.109  11.203 -0.1134 -1.3408 -0.5052
 9327TIP3   OH252175   6.014   1.052  10.691  0.6504 -0.4023  0.3837
 9327TIP3    H152176   6.080   1.079  10.627  2.5752  0.4055  2.5950
 9327TIP3    H252177   6.043   0.965  10.719 -0.4644 -0.9675 -0.1553
 9328TIP3   OH252178   1.120   1.354   8.499 -0.1749 -0.4367  0.3572
 9328TIP3    H152179   1.088   1.264   8.507  1.0810 -0.8349  1.1746
 9328TIP3    H252180   1.046   1.408   8.525 -0.5819 -1.2750  0.9987
 9329TIP3   OH252181   5.699   2.966  10.332  0.4390 -0.1028  0.1119
 9329TIP3    H152182   5.790   2.983  10.356  0.6448  0.8020 -1.1676
 9329TIP3    H252183   5.704   2.894  10.269  0.1135 -1.0418  1.1357
 9330TIP3   OH252184   0.031   3.115   9.289 -0.2430 -0.4669 -0.3342
 9330TIP3    H152185   0.016   3.160   9.371 -0.2074  0.6582 -0.9299
 9330TIP3    H252186   0.014   3.023   9.309 -1.0596 -0.1056  0.7142
 9331TIP3   OH252187   1.268   0.434   9.858  0.5275 -0.1682  0.2607
 9331TIP3    H152188   1.217   0.516   9.858  0.3014 -0.2848 -0.7516
 9331TIP3    H252189   1.227   0.382   9.789 -1.5777 -2.6018  3.0859
 9332TIP3   OH252190   5.022   6.161  10.367 -0.2342  0.3018 -0.4208
 9332TIP3    H152191   4.978   6.206  10.294  0.0734  0.0568 -0.7574
 9332TIP3    H252192   5.033   6.229  10.434 -0.5005  0.5314 -0.6096
 9333TIP3   OH252193   4.390   5.602  11.154  0.4469 -0.5143  0.1183
 9333TIP3    H152194   4.450   5.668  11.120 -0.8974  0.5005 -0.3631
 9333TIP3    H252195   4.335   5.579  11.079 -0.4673 -0.6225  0.8141
 9334TIP3   OH252196   0.287   1.757   9.781 -0.0593 -0.3350 -0.0042
 9334TIP3    H152197   0.199   1.776   9.816  0.3801  1.8604  0.0653
 9334TIP3    H252198   0.274   1.680   9.725 -1.6775 -1.1208  1.3316
 9335TIP3   OH252199   3.777   3.259  11.082 -0.6033 -0.0764  0.6514
 9335TIP3    H152200   3.706   3.323  11.076 -2.5192 -2.0617  0.8480
 9335TIP3    H252201   3.776   3.231  11.174  1.1093  0.5497  0.8927
 9336TIP3   OH252202   3.644   1.850   8.768 -0.0302  0.2944 -0.2716
 9336TIP3    H152203   3.704   1.780   8.743  1.2635  1.2986 -0.1144
 9336TIP3    H252204   3.655   1.917   8.700 -1.8385  0.0368 -0.8601
 9337TIP3   OH252205   0.820   5.320   9.406  0.4285  0.6720  0.5749
 9337TIP3    H152206   0.885   5.361   9.462  1.2639  0.5194 -0.2486
 9337TIP3    H252207   0.736   5.343   9.445  0.9135  2.1523  0.8126
 9338TIP3   OH252208   1.365   5.167   9.718 -0.1970 -0.3078  0.0227
 9338TIP3    H152209   1.405   5.253   9.707 -0.6817  0.0654  1.0352
 9338TIP3    H252210   1.390   5.118   9.639 -1.0900  1.2111 -1.2609
 9339TIP3   OH252211   3.925   3.493  10.032  0.1762 -0.6087 -0.3158
 9339TIP3    H152212   3.996   3.459   9.978  0.4118  0.4217 -0.6731
 9339TIP3    H252213   3.847   3.485   9.978  0.2922 -0.2472 -0.5373
 9340TIP3   OH252214   2.010   2.033  10.666  0.2707 -0.1438 -0.0476
 9340TIP3    H152215   1.949   2.083  10.721 -0.4343  0.0630 -0.9891
 9340TIP3    H252216   1.958   2.008  10.589  0.7878 -1.7777  0.0949
 9341TIP3   OH252217   1.415   5.120   9.215  0.0797  0.3545 -0.0854
 9341TIP3    H152218   1.419   5.122   9.310 -0.2321 -0.6867 -0.0427
 9341TIP3    H252219   1.327   5.089   9.195  0.1408  0.5651 -0.7198
 9342TIP3   OH252220   6.123   0.666   9.853 -0.1122  0.2323 -0.5062
 9342TIP3    H152221   6.170   0.651   9.772  0.8102 -0.0528  0.0662
 9342TIP3    H252222   6.147   0.755   9.879  1.0992 -0.3350  0.4048
 9343TIP3   OH252223   1.670   1.780  10.850  0.0274 -0.0582 -0.2362
 9343TIP3    H152224   1.754   1.758  10.810 -0.4452 -0.9325 -0.7771
 9343TIP3    H252225   1.687   1.778  10.944  0.4259 -1.0711 -0.3162
 9344TIP3   OH252226   5.849   5.104   8.914  0.2551  0.0691 -0.0894
 9344TIP3    H152227   5.842   5.129   9.006  2.1084  0.0084  0.1042
 9344TIP3    H252228   5.936   5.134   8.887  0.4141 -1.3620 -1.3532
 9345TIP3   OH252229   1.965   0.541   8.543 -0.5586  0.4285 -0.6041
 9345TIP3    H152230   1.980   0.635   8.552  0.8057  0.1801 -0.0595
 9345TIP3    H252231   1.910   0.518   8.619  1.0310  0.4173  0.6024
 9346TIP3   OH252232   4.720   0.391  10.822  0.3615  0.0428 -0.1678
 9346TIP3    H152233   4.805   0.375  10.781  0.0675 -0.1905 -0.7034
 9346TIP3    H252234   4.739   0.449  10.895  0.8382  0.9647 -0.9946
 9347TIP3   OH252235   0.037   3.206  11.017 -0.8233  0.1862 -0.2353
 9347TIP3    H152236   0.050   3.295  11.050  0.0089  0.0819 -0.2668
 9347TIP3    H252237   0.115   3.159  11.045 -0.9469 -0.3662 -0.8074
 9348TIP3   OH252238   3.108   5.266   9.657 -0.6229 -0.9162 -0.0604
 9348TIP3    H152239   3.040   5.333   9.651 -2.0352 -2.2593  0.3074
 9348TIP3    H252240   3.090   5.207   9.584  2.2532  0.4382 -2.0937
 9349TIP3   OH252241   6.161   2.089  10.729  0.3155 -0.1265  0.1393
 9349TIP3    H152242   6.235   2.034  10.753  0.2533  0.2354  1.2248
 9349TIP3    H252243   6.117   2.041  10.659  0.9654 -0.8573  0.2204
 9350TIP3   OH252244   1.522   1.016  11.723 -0.1676 -0.4047 -0.3812
 9350TIP3    H152245   1.597   0.991  11.777 -0.1030  1.2002  0.3317
 9350TIP3    H252246   1.501   1.105  11.751 -0.7147  0.1500 -2.3748
 9351TIP3   OH252247   1.169   3.176  11.680 -0.3823 -0.1399  0.7935
 9351TIP3    H152248   1.173   3.272  11.686 -1.1156 -0.0614  0.0447
 9351TIP3    H252249   1.096   3.152  11.737 -2.4622  0.0367 -1.6574
 9352TIP3   OH252250   5.943   2.242  10.566 -0.3808 -0.3956  0.1969
 9352TIP3    H152251   5.852   2.255  10.593 -0.5419 -0.5256 -0.2776
 9352TIP3    H252252   5.980   2.186  10.635 -0.6017 -0.1721  0.4985
 9353TIP3   OH252253   2.597   4.457  10.462 -0.3281  0.1814 -0.0665
 9353TIP3    H152254   2.563   4.520  10.399  2.0742  2.1314  0.4477
 9353TIP3    H252255   2.557   4.373  10.437 -2.4216  1.5884 -1.7364
 9354TIP3   OH252256   1.495   0.638   8.583 -0.2396  0.1942  0.2185
 9354TIP3    H152257   1.534   0.564   8.630  0.2164 -0.4197 -1.0542
 9354TIP3    H252258   1.415   0.658   8.631  0.3396 -0.2049  1.4033
 9355TIP3   OH252259   1.156   3.058   8.505 -0.2092 -0.3356 -0.1471
 9355TIP3    H152260   1.076   3.024   8.545 -0.5918  0.9499  0.2240
 9355TIP3    H252261   1.220   3.060   8.576 -0.1878 -0.2803 -0.1673
 9356TIP3   OH252262   4.057   2.971  11.156  0.1553  0.2500  0.0997
 9356TIP3    H152263   4.099   2.978  11.242 -0.2808  1.3265  0.2396
 9356TIP3    H252264   4.092   2.890  11.119  2.0751  0.9105  0.3649
 9357TIP3   OH252265   5.998   1.689   9.079  0.7674 -0.4095  0.3536
 9357TIP3    H152266   5.968   1.740   9.154 -1.4781  0.1194 -0.7884
 9357TIP3    H252267   6.049   1.617   9.116  1.7094  1.1275  2.1845
 9358TIP3   OH252268   0.487   3.072   8.448 -0.1140 -0.1269 -0.0751
 9358TIP3    H152269   0.569   3.052   8.403 -0.8300 -2.4621 -0.4597
 9358TIP3    H252270   0.424   3.008   8.415 -2.1262  1.5735  0.2357
 9359TIP3   OH252271   3.203   4.899   8.870 -0.3760 -0.2194 -0.0548
 9359TIP3    H152272   3.181   4.808   8.851  0.0777 -0.1750 -0.7937
 9359TIP3    H252273   3.130   4.930   8.925 -0.5552 -1.0036  0.1590
 9360TIP3   OH252274   3.856   1.991   9.615 -0.3701  0.0414  0.4238
 9360TIP3    H152275   3.800   1.993   9.693 -0.7629 -0.2782  0.1561
 9360TIP3    H252276   3.877   2.083   9.598 -2.9516  0.4577 -0.9805
 9361TIP3   OH252277   5.579   3.149   9.510 -0.0073  0.2507 -0.1829
 9361TIP3    H152278   5.595   3.063   9.550  0.2783 -0.0872 -1.0010
 9361TIP3    H252279   5.652   3.203   9.540  0.4325 -0.1190 -0.5698
 9362TIP3   OH252280   5.145   5.712   8.913 -0.7258  0.1296 -0.2486
 9362TIP3    H152281   5.153   5.741   8.822 -2.2225  1.5924  0.0293
 9362TIP3    H252282   5.185   5.783   8.963  0.1796 -0.7170  0.2584
 9363TIP3   OH252283   1.070   5.583  11.654 -0.0173 -0.5554  0.2801
 9363TIP3    H152284   1.098   5.673  11.641  1.4208 -1.2670 -2.1938
 9363TIP3    H252285   1.111   5.557  11.737  0.5563  0.6703  0.3988
 9364TIP3   OH252286   6.660   3.972   8.493  0.3243 -0.2605 -0.7065
 9364TIP3    H152287   6.608   3.893   8.475 -0.0021  0.0392 -1.1016
 9364TIP3    H252288   6.706   3.952   8.574  1.1254 -1.3056 -1.3873
 9365TIP3   OH252289   6.545   4.384   9.786 -0.2392  0.0136 -0.5987
 9365TIP3    H152290   6.535   4.366   9.693 -0.2215 -1.4149 -0.3528
 9365TIP3    H252291   6.631   4.425   9.794 -0.4645  0.6240 -1.2626
 9366TIP3   OH252292   3.656   2.714  11.622 -0.5772  0.1271  0.3281
 9366TIP3    H152293   3.705   2.764  11.687 -1.0146 -0.9498  1.5341
 9366TIP3    H252294   3.646   2.627  11.662 -0.7993 -0.5880 -1.2115
 9367TIP3   OH252295   3.897   0.969  10.724 -0.2349 -0.5713 -0.9442
 9367TIP3    H152296   3.857   0.975  10.637 -0.4845  0.8760 -0.7507
 9367TIP3    H252297   3.990   0.989  10.709 -0.1986 -0.7227 -0.9267
 9368TIP3   OH252298   3.933   2.550   9.573  0.4333 -0.2396  0.4729
 9368TIP3    H152299   3.891   2.634   9.589 -0.7251 -0.9410  1.3613
 9368TIP3    H252300   3.902   2.523   9.487 -2.2015 -1.3885  1.6771
 9369TIP3   OH252301   5.653   6.607   9.063 -0.1183 -0.7037 -0.1378
 9369TIP3    H152302   5.730   6.580   9.013 -0.7669 -0.0736 -1.5191
 9369TIP3    H252303   5.581   6.606   9.000 -1.3462 -1.6318  1.2108
 9370TIP3   OH252304   3.888   4.464  11.297 -0.2801 -0.0213 -0.3722
 9370TIP3    H152305   3.951   4.536  11.285 -1.2689  1.0548  0.6265
 9370TIP3    H252306   3.866   4.437  11.208 -0.2140  1.2183 -0.7806
 9371TIP3   OH252307   3.194   3.082   9.640 -0.1437  0.0675  0.2753
 9371TIP3    H152308   3.104   3.066   9.612 -0.4534  0.0710  1.2132
 9371TIP3    H252309   3.185   3.132   9.721  0.7377  1.8353 -0.6516
 9372TIP3   OH252310   3.429   2.973  11.828  0.2251  0.0103  0.4828
 9372TIP3    H152311   3.524   2.980  11.820  0.2731  0.3979  1.2866
 9372TIP3    H252312   3.409   3.018  11.910 -0.5100 -1.2076  1.0034
 9373TIP3   OH252313   1.025   3.306  10.362 -0.0215  0.5506 -0.8151
 9373TIP3    H152314   0.974   3.366  10.417 -1.3025 -0.4085 -0.9164
 9373TIP3    H252315   1.052   3.359  10.287  3.0340  2.3350  1.2936
 9374TIP3   OH252316   6.378   1.202   9.872  0.2409  0.1230  0.3706
 9374TIP3    H152317   6.310   1.179   9.935  1.6500  1.0735  2.3790
 9374TIP3    H252318   6.359   1.150   9.795 -2.0707 -0.4815  1.2744
 9375TIP3   OH252319   2.324   4.739   8.440 -0.1236 -0.0769  0.1109
 9375TIP3    H152320   2.324   4.660   8.495  1.1522 -0.5483 -0.5352
 9375TIP3    H252321   2.300   4.706   8.353  0.2303  0.2834 -0.1203
 9376TIP3   OH252322   4.888   6.079  11.506 -0.8352  0.3587 -0.5628
 9376TIP3    H152323   4.973   6.081  11.551 -1.4886 -1.6354  0.9053
 9376TIP3    H252324   4.872   5.986  11.490 -1.5558  0.8712 -3.2467
 9377TIP3   OH252325   2.873   1.015  10.688 -0.2147 -0.3079  0.1439
 9377TIP3    H152326   2.901   0.934  10.729 -1.8702 -1.7446 -1.4064
 9377TIP3    H252327   2.778   1.012  10.691 -0.4131 -0.0112 -2.7751
 9378TIP3   OH252328   0.715   5.461  10.845  0.6981  0.3469  0.3283
 9378TIP3    H152329   0.702   5.544  10.890  0.6926 -0.8413  2.6757
 9378TIP3    H252330   0.785   5.418  10.895  0.8868 -0.9479 -0.9964
 9379TIP3   OH252331   4.762   1.496  10.683 -0.2773 -0.1083 -0.1716
 9379TIP3    H152332   4.822   1.463  10.617 -0.1186 -1.3664  0.5800
 9379TIP3    H252333   4.805   1.477  10.767 -0.2192  1.9123  0.3343
 9380TIP3   OH252334   4.809   1.413   9.921 -0.1860 -0.1939  0.0614
 9380TIP3    H152335   4.753   1.461   9.860  1.0257 -2.2341 -2.8956
 9380TIP3    H252336   4.898   1.441   9.899  0.2588 -0.5157  1.3737
 9381TIP3   OH252337   3.580   4.502  10.377 -0.2071 -0.4616  0.1092
 9381TIP3    H152338   3.488   4.528  10.375  0.0443  0.4960 -1.9567
 9381TIP3    H252339   3.624   4.576  10.419  0.0501  1.0371 -2.5511
 9382TIP3   OH252340   0.280   0.449  10.156 -0.2120  0.3109 -0.0074
 9382TIP3    H152341   0.368   0.417  10.138  0.2531  1.5121  0.0912
 9382TIP3    H252342   0.290   0.543  10.169 -1.1853  0.1875  2.0525
 9383TIP3   OH252343   6.583   0.526   9.645  0.1824  0.2659 -0.4139
 9383TIP3    H152344   6.522   0.510   9.574 -1.6223 -0.6556  1.2450
 9383TIP3    H252345   6.568   0.454   9.707  1.4121  1.2146  1.0821
 9384TIP3   OH252346   5.953   0.709  10.086 -0.1249 -0.1952  0.3338
 9384TIP3    H152347   6.012   0.672  10.151 -0.0333  0.6290  0.7332
 9384TIP3    H252348   5.963   0.653  10.009  1.7316  0.3737  0.1292
 9385TIP3   OH252349   6.276   3.256  11.716 -0.2521  0.3541  0.4509
 9385TIP3    H152350   6.368   3.283  11.713 -0.0821 -0.2695 -0.4522
 9385TIP3    H252351   6.276   3.166  11.681 -1.3251  0.7135 -0.5387
 9386TIP3   OH252352   6.655   3.506   9.189 -0.5277  0.2389  0.1041
 9386TIP3    H152353   6.743   3.476   9.211 -0.1827  2.1002  1.5626
 9386TIP3    H252354   6.601   3.474   9.261 -0.5790  1.1183  0.4636
 9387TIP3   OH252355   2.031   4.835  11.789  1.1615 -0.7970  0.1174
 9387TIP3    H152356   2.108   4.892  11.789 -0.9268  2.3396 -2.0091
 9387TIP3    H252357   1.988   4.854  11.873  1.8925 -1.4810  0.6704
 9388TIP3   OH252358   3.564   2.140  11.536 -0.6439  0.1103  0.5720
 9388TIP3    H152359   3.635   2.077  11.528  0.6225  1.3069  1.8890
 9388TIP3    H252360   3.607   2.224  11.548 -2.2896  1.0759  0.0943
 9389TIP3   OH252361   3.136   5.761  10.870  0.7448 -0.6981  0.2073
 9389TIP3    H152362   3.083   5.689  10.904 -0.6653  0.2082  0.0017
 9389TIP3    H252363   3.148   5.819  10.945 -2.8587  1.5953 -0.7853
 9390TIP3   OH252364   1.196   1.199  10.773 -0.4995 -0.0682 -0.0081
 9390TIP3    H152365   1.265   1.146  10.733 -1.4676  0.3281 -2.3650
 9390TIP3    H252366   1.243   1.258  10.833  1.1066 -0.3408 -0.9378
 9391TIP3   OH252367   3.685   6.325   9.271 -0.0973  0.0909 -0.2791
 9391TIP3    H152368   3.662   6.303   9.181  0.7382 -2.5123  0.0644
 9391TIP3    H252369   3.773   6.363   9.265 -1.1463  2.6302 -0.7770
 9392TIP3   OH252370   2.454   4.840  10.429 -0.1115 -0.0946 -0.0792
 9392TIP3    H152371   2.419   4.849  10.518 -0.1281 -0.2202 -0.0727
 9392TIP3    H252372   2.495   4.925  10.411 -0.6962  0.1679 -0.2117
 9393TIP3   OH252373   2.842   4.236  11.716 -0.0054  0.1765  0.2835
 9393TIP3    H152374   2.855   4.246  11.810  0.5133  0.9067  0.1452
 9393TIP3    H252375   2.916   4.283  11.677 -0.0947 -0.3076 -0.4851
 9394TIP3   OH252376   1.381   6.108   9.205  0.4192 -0.4673  0.3391
 9394TIP3    H152377   1.342   6.193   9.185 -0.1465 -0.4477  1.4703
 9394TIP3    H252378   1.308   6.046   9.198 -0.5422 -0.1576  4.6554
 9395TIP3   OH252379   1.025   5.714   9.681 -0.0995 -0.1171 -0.7206
 9395TIP3    H152380   1.113   5.721   9.644 -0.3441  0.5170 -1.1971
 9395TIP3    H252381   1.007   5.620   9.683  1.6950 -0.5058  2.0506
 9396TIP3   OH252382   4.231   2.365  10.303  0.1851 -0.0539  0.0261
 9396TIP3    H152383   4.310   2.324  10.267 -1.0932  0.6224 -4.0827
 9396TIP3    H252384   4.167   2.294  10.306  0.7356 -0.5890  3.2983
 9397TIP3   OH252385   5.484   0.550  10.923  0.2382 -0.0609  0.4878
 9397TIP3    H152386   5.430   0.596  10.987 -2.2430 -1.1586 -0.6669
 9397TIP3    H252387   5.471   0.457  10.943  1.0701 -0.3771 -0.3449
 9398TIP3   OH252388   5.158   3.974  10.055  0.0156  0.1527  0.0658
 9398TIP3    H152389   5.205   4.026  10.121  0.4439  0.1772 -0.2502
 9398TIP3    H252390   5.125   3.898  10.102  0.0394  0.3352  0.3761
 9399TIP3   OH252391   2.051   1.775  10.435 -0.0337 -0.5580  0.5403
 9399TIP3    H152392   1.981   1.822  10.479 -0.2886 -0.6978  0.2847
 9399TIP3    H252393   2.057   1.814  10.348 -0.3402 -1.0859  0.2785
 9400TIP3   OH252394   3.138   2.694   9.604  0.2009 -0.0030 -0.3217
 9400TIP3    H152395   3.055   2.686   9.557  1.0196 -1.5017 -1.6249
 9400TIP3    H252396   3.194   2.745   9.545  0.2309  1.0337  0.5657
 9401TIP3   OH252397   3.539   4.752   9.328 -0.2461 -0.1406 -0.2124
 9401TIP3    H152398   3.470   4.777   9.266 -2.4226 -0.8415  1.8148
 9401TIP3    H252399   3.519   4.662   9.351  1.1735 -0.2498  0.6705
 9402TIP3   OH252400   0.008   6.542  10.468 -0.2308 -0.3068  0.1258
 9402TIP3    H152401   0.072   6.501  10.526  1.4391  0.1928 -1.2989
 9402TIP3    H252402  -0.059   6.475  10.456  0.0092 -0.8533  1.6204
 9403TIP3   OH252403   2.209   0.048  10.822  0.1108  0.1096  0.5287
 9403TIP3    H152404   2.198   0.140  10.847 -1.9232 -0.3148  1.3715
 9403TIP3    H252405   2.136   0.003  10.863  0.9752 -1.8906 -0.0049
 9404TIP3   OH252406   0.347   5.344   9.448  0.1595  0.2805  0.4291
 9404TIP3    H152407   0.321   5.259   9.414 -0.1943  0.5884 -0.0935
 9404TIP3    H252408   0.265   5.390   9.463  0.3335  0.3590  1.1651
 9405TIP3   OH252409   3.071   2.742  11.368  0.1740  0.0862 -0.2057
 9405TIP3    H152410   3.136   2.806  11.341 -0.8422  0.6108 -1.5541
 9405TIP3    H252411   3.085   2.668  11.309 -0.1224 -0.0007 -0.1686
 9406TIP3   OH252412   5.890   3.294   9.912  0.1149 -0.0723  0.0967
 9406TIP3    H152413   5.963   3.330   9.862 -0.8527 -1.2425 -2.3698
 9406TIP3    H252414   5.929   3.223   9.963  0.8665 -0.1302 -0.5275
 9407TIP3   OH252415   3.786   0.939   9.486  0.4931 -0.3602  0.7936
 9407TIP3    H152416   3.723   0.955   9.416  0.9431  2.8910  0.9678
 9407TIP3    H252417   3.782   0.844   9.501 -0.7992 -0.9400 -2.4365
 9408TIP3   OH252418   2.444   4.228  10.428  0.3010  0.2127  0.2196
 9408TIP3    H152419   2.399   4.177  10.361  0.5489  1.6320 -1.0713
 9408TIP3    H252420   2.509   4.168  10.464 -0.5906 -0.9165 -0.0075
 9409TIP3   OH252421   4.209   5.555   9.005  0.6303 -0.1970 -0.0396
 9409TIP3    H152422   4.265   5.491   8.960  2.5989  1.7130 -0.5084
 9409TIP3    H252423   4.197   5.518   9.092  1.4396 -1.3586 -0.3870
 9410TIP3   OH252424   2.306   4.905  10.022  0.6764 -0.4185  0.3607
 9410TIP3    H152425   2.258   4.838  10.070 -0.1349 -0.4244 -0.4446
 9410TIP3    H252426   2.391   4.864  10.003  0.4632 -0.9444  0.5138
 9411TIP3   OH252427   3.854   4.408  10.302 -0.0048  0.0122  0.0782
 9411TIP3    H152428   3.759   4.406  10.313 -0.0031  1.3627  0.4798
 9411TIP3    H252429   3.882   4.489  10.345  1.4574 -0.8736  0.8706
 9412TIP3   OH252430   0.248   6.080  10.631  0.5913 -0.0240  0.2455
 9412TIP3    H152431   0.269   5.990  10.608 -1.3929 -0.5240  0.1747
 9412TIP3    H252432   0.295   6.095  10.713  1.6444 -0.8062 -0.1938
 9413TIP3   OH252433   3.074   5.877   9.853 -0.1678  0.1364  0.2208
 9413TIP3    H152434   3.103   5.832   9.773 -0.5138 -0.7853  0.6001
 9413TIP3    H252435   3.085   5.811   9.922 -1.0370  0.5163  0.7272
 9414TIP3   OH252436   0.055   4.940   9.874  0.1833 -0.1791  0.3658
 9414TIP3    H152437   0.122   4.984   9.822 -2.0321  0.8392 -1.8524
 9414TIP3    H252438   0.028   4.866   9.820 -0.0443 -0.9545  1.5121
 9415TIP3   OH252439   3.688   4.548  10.906 -0.0402 -0.1403 -0.7904
 9415TIP3    H152440   3.742   4.479  10.943  0.2980  0.0667 -0.8970
 9415TIP3    H252441   3.657   4.513  10.823  0.8779  0.1863 -1.2786
 9416TIP3   OH252442   6.649   1.478   8.933 -0.0011 -0.3613  0.3235
 9416TIP3    H152443   6.581   1.412   8.941  0.9940 -1.3845  0.6881
 9416TIP3    H252444   6.642   1.510   8.843 -0.6680 -0.7609  0.2284
 9417TIP3   OH252445   6.465   2.218  10.286 -0.0503  0.1764 -0.1261
 9417TIP3    H152446   6.380   2.233  10.327  0.0023 -0.1043  0.0844
 9417TIP3    H252447   6.454   2.136  10.237  0.6442 -0.8773  1.4008
 9418TIP3   OH252448   5.118   2.078  11.922  0.1884  0.2526  0.0300
 9418TIP3    H152449   5.129   2.170  11.898  0.4926  0.7239  1.8712
 9418TIP3    H252450   5.178   2.031  11.864  1.1967  1.3849  0.1201
 9419TIP3   OH252451   1.589   3.851   9.700  0.0150 -0.0567 -0.4114
 9419TIP3    H152452   1.599   3.946   9.698 -1.5271  0.1417  0.0745
 9419TIP3    H252453   1.554   3.832   9.787 -1.0213 -0.9107 -0.9921
 9420TIP3   OH252454   4.237   4.961   9.029  1.0165 -0.2602  0.3000
 9420TIP3    H152455   4.321   4.932   8.993  2.4270  1.8677  1.6394
 9420TIP3    H252456   4.243   5.057   9.030 -1.7095  0.0004 -0.1097
 9421TIP3   OH252457   3.425   4.993  11.774 -0.0736  0.1352 -0.0170
 9421TIP3    H152458   3.499   4.982  11.715 -0.9469  1.4128 -1.4394
 9421TIP3    H252459   3.459   4.970  11.860  1.4514 -1.0668 -0.8973
 9422TIP3   OH252460   3.317   3.447  11.030  0.0232  0.0421  0.9334
 9422TIP3    H152461   3.371   3.382  10.985  0.0957 -0.5967  1.9131
 9422TIP3    H252462   3.379   3.500  11.079 -0.1127  0.2510  0.8784
 9423TIP3   OH252463   1.885   4.641  10.831  0.0479  0.1895  0.1276
 9423TIP3    H152464   1.813   4.578  10.826  0.5325 -0.3254 -0.6968
 9423TIP3    H252465   1.913   4.652  10.740  2.0684 -0.8952  0.5634
 9424TIP3   OH252466   5.831   3.318   8.175  0.3009 -0.0776  0.1833
 9424TIP3    H152467   5.861   3.408   8.180  1.0208 -0.2828 -0.2931
 9424TIP3    H252468   5.781   3.313   8.094  1.0777 -0.3342 -0.2894
 9425TIP3   OH252469   2.632   0.903  10.041  0.4527  0.2135  0.0533
 9425TIP3    H152470   2.634   0.984  10.092 -0.0217  0.8581 -0.9294
 9425TIP3    H252471   2.725   0.886  10.021  0.6790 -0.2386  1.3909
 9426TIP3   OH252472   5.275   1.390  10.411 -0.1134  0.0256  0.0456
 9426TIP3    H152473   5.241   1.479  10.408 -1.4568 -0.4696 -0.2664
 9426TIP3    H252474   5.349   1.394  10.472 -0.1847  1.3302  0.0662
 9427TIP3   OH252475   0.474   0.138   9.992 -0.4387 -0.3335 -0.4179
 9427TIP3    H152476   0.513   0.225  10.005 -0.7218 -0.3310  0.4760
 9427TIP3    H252477   0.490   0.092  10.074  1.1906 -1.7403 -1.4449
 9428TIP3   OH252478   4.072   1.175   8.663 -0.0988 -0.5817 -0.1807
 9428TIP3    H152479   4.157   1.156   8.704  0.1587  0.4887 -0.1969
 9428TIP3    H252480   4.061   1.106   8.597  0.8450 -0.6136 -0.3148
 9429TIP3   OH252481   5.396   5.507  10.155 -0.3362  0.2791  0.3493
 9429TIP3    H152482   5.449   5.525  10.077  0.2153 -0.7170  0.4809
 9429TIP3    H252483   5.451   5.450  10.209 -0.6484  1.0744  1.5462
 9430TIP3   OH252484   0.016   1.651  10.709 -0.0386 -0.5120 -0.9023
 9430TIP3    H152485   0.030   1.737  10.669  0.7731 -0.6917 -1.0157
 9430TIP3    H252486   0.059   1.589  10.650  1.0652 -0.7958  0.1439
 9431TIP3   OH252487   4.177   1.793  11.449  0.4162  0.1195  0.0614
 9431TIP3    H152488   4.156   1.702  11.468  0.2339 -0.1024 -1.1854
 9431TIP3    H252489   4.210   1.793  11.359  1.4103  1.1295  0.3941
 9432TIP3   OH252490   0.049   2.694   8.426 -0.4880  0.3007 -0.4246
 9432TIP3    H152491   0.103   2.626   8.465 -0.6862  0.0845 -0.5289
 9432TIP3    H252492  -0.035   2.652   8.407 -1.3436  1.0607  1.3760
 9433TIP3   OH252493   4.779   1.202  10.478 -0.0454  0.3214 -0.4944
 9433TIP3    H152494   4.768   1.234  10.389 -0.1655 -1.8736 -1.3243
 9433TIP3    H252495   4.869   1.172  10.483  0.1584  1.0279  0.3476
 9434TIP3   OH252496   2.535   1.777   9.722 -0.2422  0.8369 -0.1046
 9434TIP3    H152497   2.545   1.784   9.817  0.0055 -2.4708  0.2486
 9434TIP3    H252498   2.450   1.818   9.704 -0.2253  1.6604  1.5251
 9435TIP3   OH252499   5.347   6.514  12.084 -0.1756 -0.1065 -0.0844
 9435TIP3    H152500   5.371   6.600  12.050 -2.2786  0.4648 -0.2374
 9435TIP3    H252501   5.425   6.460  12.069  0.6963  1.3930 -1.2469
 9436TIP3   OH252502   4.712   1.720  10.132  0.2515  0.0488  0.1077
 9436TIP3    H152503   4.658   1.759  10.200  0.3541  1.6306 -0.6596
 9436TIP3    H252504   4.661   1.732  10.051 -0.0191 -2.0765 -0.1038
 9437TIP3   OH252505   4.908   3.149  11.237 -0.0896 -0.0493 -0.0684
 9437TIP3    H152506   4.945   3.061  11.239 -0.2253 -0.1202 -0.7699
 9437TIP3    H252507   4.881   3.163  11.147  0.7535  1.0518 -0.1689
 9438TIP3   OH252508   1.516   5.580   9.417 -0.1016 -0.2018 -0.3975
 9438TIP3    H152509   1.594   5.634   9.401 -0.2007 -0.0315 -0.3165
 9438TIP3    H252510   1.505   5.529   9.337  0.0607 -0.1842 -0.4321
 9439TIP3   OH252511   3.794   1.746  12.146  0.1098  0.3523 -0.0946
 9439TIP3    H152512   3.738   1.764  12.222 -0.7675  0.8234 -0.8380
 9439TIP3    H252513   3.834   1.831  12.125  1.1802  0.0082  0.4700
 9440TIP3   OH252514   1.337   4.777   9.515  0.2859  0.5154  0.3219
 9440TIP3    H152515   1.355   4.710   9.449 -0.7552  0.7200 -0.1932
 9440TIP3    H252516   1.394   4.754   9.588  1.0898 -0.0142 -0.4482
 9441TIP3   OH252517   6.655   4.701   9.754 -0.0347  0.0447 -0.0218
 9441TIP3    H152518   6.581   4.696   9.815 -0.7173  1.2019 -0.6995
 9441TIP3    H252519   6.614   4.699   9.667  0.7720  0.1437 -0.4158
 9442TIP3   OH252520   1.716   0.617  10.380  0.4198 -0.2753  0.4696
 9442TIP3    H152521   1.669   0.536  10.364  1.1140 -0.6504  0.3240
 9442TIP3    H252522   1.705   0.668  10.300  0.1378 -0.2915  0.4949
 9443TIP3   OH252523   2.040   4.269  10.400 -0.4099 -0.2206 -0.1293
 9443TIP3    H152524   2.014   4.282  10.491 -0.0086  0.8426 -0.1481
 9443TIP3    H252525   2.123   4.317  10.392 -0.4339 -0.3138 -1.0459
 9444TIP3   OH252526   0.931   0.214  10.583 -0.7606 -0.4213 -0.2265
 9444TIP3    H152527   0.983   0.175  10.652 -1.5566 -0.4100  0.4007
 9444TIP3    H252528   0.894   0.139  10.536 -1.0185 -0.4312 -0.0111
 9445TIP3   OH252529   3.403   0.658  11.140  0.0814 -0.3857  0.0813
 9445TIP3    H152530   3.423   0.750  11.124 -0.6827 -0.1550  0.3940
 9445TIP3    H252531   3.348   0.632  11.067  0.9288 -0.8190 -0.4130
 9446TIP3   OH252532   2.718   5.231   8.765 -0.0546 -0.3917 -0.3528
 9446TIP3    H152533   2.637   5.183   8.779  0.2003 -0.7017  0.0642
 9446TIP3    H252534   2.757   5.238   8.852 -1.3263  2.8097  0.0962
 9447TIP3   OH252535   3.678   1.102  11.783 -0.0512 -0.0961  0.0283
 9447TIP3    H152536   3.596   1.093  11.735  1.0258  0.5664 -2.0492
 9447TIP3    H252537   3.716   1.014  11.782 -0.0893 -0.1102 -0.2305
 9448TIP3   OH252538   3.839   4.795  10.187 -0.1227 -0.2218 -0.3335
 9448TIP3    H152539   3.749   4.778  10.159 -0.3066  0.1765  0.0169
 9448TIP3    H252540   3.893   4.773  10.111 -0.3933 -1.8417 -0.1065
 9449TIP3   OH252541   4.285   3.196  10.633 -0.1742 -0.0800  0.5332
 9449TIP3    H152542   4.355   3.131  10.619 -0.4246 -0.1049 -0.7783
 9449TIP3    H252543   4.220   3.174  10.566  0.2797  2.2660 -0.7781
 9450TIP3   OH252544   6.257   4.239   9.604 -0.0334 -0.0362 -0.0525
 9450TIP3    H152545   6.217   4.284   9.678 -0.4688  1.3096 -1.0727
 9450TIP3    H252546   6.312   4.305   9.561 -0.5624 -0.4863 -1.4996
 9451TIP3   OH252547   1.781   2.915  11.176 -0.1650 -0.1434 -0.2723
 9451TIP3    H152548   1.822   3.001  11.167  0.1150 -0.3304 -0.9014
 9451TIP3    H252549   1.706   2.919  11.116 -0.5048 -0.1331  0.1503
 9452TIP3   OH252550   3.555   4.381   8.617 -0.1139  0.4545 -0.2303
 9452TIP3    H152551   3.596   4.448   8.563  3.2496 -0.2177  1.2271
 9452TIP3    H252552   3.490   4.428   8.668 -0.9294  1.7197 -2.3042
 9453TIP3   OH252553   3.074   4.789   9.311 -0.1812  0.4667  0.4135
 9453TIP3    H152554   3.086   4.761   9.402  1.0115 -1.1354 -0.1958
 9453TIP3    H252555   3.118   4.722   9.259  0.4314  2.0902 -1.2888
 9454TIP3   OH252556   5.555   2.068   8.841 -0.3609  0.0178 -0.2812
 9454TIP3    H152557   5.623   2.128   8.871 -0.4751  0.1258 -0.2376
 9454TIP3    H252558   5.599   1.983   8.833 -0.3416 -0.0200  0.2331
 9455TIP3   OH252559   4.004   5.484   9.827  0.0627 -0.9912 -0.3701
 9455TIP3    H152560   4.045   5.401   9.802 -0.1695 -1.4660  0.7351
 9455TIP3    H252561   3.970   5.468   9.915 -1.5437 -0.2759 -0.8116
 9456TIP3   OH252562   1.433   1.509   9.011  0.3667 -0.3892 -0.0798
 9456TIP3    H152563   1.463   1.597   9.030 -0.3714 -0.1319 -0.0732
 9456TIP3    H252564   1.511   1.454   9.021  0.9431  0.3193 -0.5553
 9457TIP3   OH252565   3.288   0.964  10.660 -0.1663 -0.5853 -0.2347
 9457TIP3    H152566   3.237   1.022  10.716 -0.4140  1.2158 -2.1930
 9457TIP3    H252567   3.293   1.010  10.576  2.7279 -1.7414 -0.8200
 9458TIP3   OH252568   4.430   5.843  11.635  0.0991 -0.0606  0.1606
 9458TIP3    H152569   4.362   5.900  11.669  1.1522  1.6799 -0.5246
 9458TIP3    H252570   4.416   5.840  11.541  0.5776 -0.2383  0.0899
 9459TIP3   OH252571   5.155   3.388   9.085  0.8861  1.1736 -0.0032
 9459TIP3    H152572   5.136   3.430   9.001  1.6295 -1.6936 -1.7125
 9459TIP3    H252573   5.211   3.314   9.064  0.6836  0.0191  2.9826
 9460TIP3   OH252574   0.785   4.616   9.858  0.3836 -0.5090  0.2600
 9460TIP3    H152575   0.740   4.584   9.937 -1.8683  0.7015 -0.4422
 9460TIP3    H252576   0.776   4.545   9.795  1.2304 -1.0454  0.7215
 9461TIP3   OH252577   6.403   3.181  11.043  0.1583 -0.2131  0.2164
 9461TIP3    H152578   6.498   3.175  11.054  0.2501  0.7185 -0.0290
 9461TIP3    H252579   6.369   3.175  11.132  0.5531  1.0906  0.4775
 9462TIP3   OH252580   5.129   0.563  11.629 -0.6621  0.4472 -0.0040
 9462TIP3    H152581   5.161   0.624  11.696 -0.5221  0.9328 -0.5034
 9462TIP3    H252582   5.036   0.554  11.647 -0.6997  0.8710  0.0383
 9463TIP3   OH252583   2.486   2.948   9.812 -0.4025 -0.2681  0.3718
 9463TIP3    H152584   2.483   3.020   9.748  2.8586 -0.0122  0.3419
 9463TIP3    H252585   2.419   2.887   9.782 -0.2603  0.7181 -2.2478
 9464TIP3   OH252586   4.071   4.986   8.794 -0.0925 -1.0430 -0.2285
 9464TIP3    H152587   4.126   5.044   8.741 -0.0227  0.6304  1.5478
 9464TIP3    H252588   4.126   4.961   8.868 -1.1667 -0.6581  0.7425
 9465TIP3   OH252589   3.866   2.658   9.933  0.0674 -0.2976  0.0384
 9465TIP3    H152590   3.799   2.662   9.864  0.2366  0.0779 -0.1104
 9465TIP3    H252591   3.877   2.750   9.959 -0.6585 -0.5269  1.2092
 9466TIP3   OH252592   6.596   0.924  10.529  0.6840 -0.5336 -0.0246
 9466TIP3    H152593   6.632   0.865  10.595 -0.4539 -0.1763  0.9528
 9466TIP3    H252594   6.563   0.866  10.460  0.2612 -1.0155  0.5709
 9467TIP3   OH252595   3.395   1.639   8.956  0.5981  0.3843 -0.3967
 9467TIP3    H152596   3.473   1.649   9.011  1.0147  0.8326 -1.0563
 9467TIP3    H252597   3.333   1.592   9.012  2.0488 -1.8851 -0.5755
 9468TIP3   OH252598   1.522   4.477   9.202 -0.4375  0.3001  0.0834
 9468TIP3    H152599   1.467   4.414   9.155 -0.0158 -0.2644  0.3367
 9468TIP3    H252600   1.600   4.428   9.227  0.9634  1.5060 -1.6759
 9469TIP3   OH252601   1.721   5.050   9.722  0.5492 -0.6042 -0.2124
 9469TIP3    H152602   1.648   5.043   9.661  0.0960 -1.1793  0.3820
 9469TIP3    H252603   1.681   5.074   9.805  1.3274  1.9364 -0.4906
 9470TIP3   OH252604   2.358   0.887   9.850 -0.3842 -0.0856 -0.0742
 9470TIP3    H152605   2.333   0.874   9.758  0.4792 -1.6197 -0.1178
 9470TIP3    H252606   2.345   0.802   9.891  2.2712 -0.3003  0.4753
 9471TIP3   OH252607   4.309   6.169   9.985  0.1290  0.3048  0.6170
 9471TIP3    H152608   4.225   6.200  10.019 -0.7192 -0.3777 -0.7765
 9471TIP3    H252609   4.343   6.244   9.935  0.2288  0.5004  0.9790
 9472TIP3   OH252610   3.182   1.629  10.134 -0.3100  0.2315 -0.5027
 9472TIP3    H152611   3.108   1.588  10.179 -0.3079  1.0216  0.2564
 9472TIP3    H252612   3.148   1.652  10.048 -0.4220 -0.9937 -0.7967
 9473TIP3   OH252613   0.772   2.312   8.902 -0.6622  0.0102 -0.0757
 9473TIP3    H152614   0.785   2.219   8.884 -0.4869 -0.0802  0.4908
 9473TIP3    H252615   0.849   2.337   8.953 -0.1469  0.7378 -1.1692
 9474TIP3   OH252616   1.963   3.038   8.153  0.2403  0.1929 -0.0899
 9474TIP3    H152617   1.914   3.055   8.073 -0.1087  2.2242  0.4928
 9474TIP3    H252618   2.055   3.043   8.127  0.1865 -1.5551 -0.7750
 9475TIP3   OH252619   4.600   3.762  11.241 -0.0411 -0.4249  0.0240
 9475TIP3    H152620   4.626   3.854  11.244  0.9385 -0.6204 -1.3500
 9475TIP3    H252621   4.667   3.716  11.291  0.5250 -0.5839 -0.8651
 9476TIP3   OH252622   5.665   1.693  11.651  0.3774 -0.4151  0.1332
 9476TIP3    H152623   5.674   1.671  11.743 -0.4599  0.6036  0.4917
 9476TIP3    H252624   5.705   1.621  11.604  0.0171 -1.3913  1.2796
 9477TIP3   OH252625   2.810   2.520  10.624 -0.2575  0.1813 -0.3176
 9477TIP3    H152626   2.760   2.589  10.668 -0.9096 -0.5345  0.1048
 9477TIP3    H252627   2.774   2.515  10.536 -1.4629 -0.8118  0.2001
 9478TIP3   OH252628   2.245   2.628  11.753 -0.2090 -0.1819 -0.3546
 9478TIP3    H152629   2.196   2.611  11.834  1.0217 -0.1961  0.4167
 9478TIP3    H252630   2.298   2.550  11.740 -1.3618 -0.7671 -1.9614
 9479TIP3   OH252631   4.093   2.113   8.574 -0.2946 -0.3883  0.4891
 9479TIP3    H152632   4.075   2.033   8.525  0.4826 -0.5134  0.4018
 9479TIP3    H252633   4.032   2.111   8.648  0.3852 -1.5421  1.0339
 9480TIP3   OH252634   3.645   2.373  10.545 -0.3630  0.2822 -0.6424
 9480TIP3    H152635   3.669   2.285  10.517 -1.5310 -0.0666 -0.5861
 9480TIP3    H252636   3.584   2.404  10.479 -1.4320  0.2991  0.3109
 9481TIP3   OH252637   2.490   6.126   9.365 -0.2492 -0.3526  0.6360
 9481TIP3    H152638   2.497   6.119   9.460  0.7990  0.8084  0.6579
 9481TIP3    H252639   2.568   6.081   9.332 -1.1612 -1.7364  0.2473
 9482TIP3   OH252640   3.642   6.481   9.888 -0.8342 -0.3159 -0.1379
 9482TIP3    H152641   3.597   6.552   9.841  0.5293  0.6781 -0.0143
 9482TIP3    H252642   3.696   6.527   9.953  1.0252 -1.3887 -0.8760
 9483TIP3   OH252643   2.401   1.035  11.436  0.4314  0.4602  0.3496
 9483TIP3    H152644   2.414   0.941  11.435 -1.3345  0.1824 -1.0179
 9483TIP3    H252645   2.393   1.057  11.529  0.8099 -0.7220  0.6804
 9484TIP3   OH252646   0.681   3.890  10.154  0.0433 -0.3125 -0.2941
 9484TIP3    H152647   0.704   3.905  10.245  0.7630 -0.5715 -0.4296
 9484TIP3    H252648   0.586   3.879  10.154 -0.2317  1.6926  0.1568
 9485TIP3   OH252649   5.754   2.475  10.292  0.3380 -0.0105 -0.0666
 9485TIP3    H152650   5.838   2.519  10.305 -1.1534  3.3637 -0.7931
 9485TIP3    H252651   5.706   2.492  10.373 -0.1020 -0.7832 -0.1607
 9486TIP3   OH252652   4.879   3.310   9.132 -0.1928 -0.2877  0.7409
 9486TIP3    H152653   4.963   3.307   9.085  0.1923  0.6314  1.3513
 9486TIP3    H252654   4.813   3.309   9.063  0.3032 -1.2331  0.2542
 9487TIP3   OH252655   3.679   0.758  10.230  0.0530  0.0613 -0.0911
 9487TIP3    H152656   3.709   0.671  10.259  1.0559  0.6711  0.7651
 9487TIP3    H252657   3.652   0.802  10.310 -1.3437  0.2330 -0.6303
 9488TIP3   OH252658   6.249   4.720  11.125  0.1673  0.4387 -0.6242
 9488TIP3    H152659   6.326   4.722  11.182  0.6830 -0.4184 -1.2714
 9488TIP3    H252660   6.271   4.779  11.053  0.3920 -0.1229 -1.0190
 9489TIP3   OH252661   2.799   3.297  10.019  0.0097  0.0455 -0.1764
 9489TIP3    H152662   2.711   3.280   9.986 -0.2767 -1.3184  1.2078
 9489TIP3    H252663   2.812   3.391  10.003 -2.0912  0.5049  0.4949
 9490TIP3   OH252664   5.075   2.825   8.790 -0.1224  0.3978  0.2253
 9490TIP3    H152665   4.981   2.808   8.802  0.3009 -2.1397  0.5465
 9490TIP3    H252666   5.083   2.920   8.795 -2.6634  0.6858  0.2453
 9491TIP3   OH252667   0.504   1.358   8.504 -0.0228  0.3563  0.0028
 9491TIP3    H152668   0.587   1.360   8.552 -0.9126 -0.6913  1.6674
 9491TIP3    H252669   0.468   1.271   8.522 -2.2638  1.3716  0.7260
 9492TIP3   OH252670   1.933   2.801   9.349 -0.0589 -0.1402  0.2728
 9492TIP3    H152671   1.999   2.783   9.417  1.1728 -0.3901 -0.9324
 9492TIP3    H252672   1.946   2.730   9.285 -1.1849  0.0949 -0.2305
 9493TIP3   OH252673   3.416   0.498  11.577 -0.1419 -0.0793  0.2576
 9493TIP3    H152674   3.402   0.430  11.512 -1.1882  0.7735 -0.4467
 9493TIP3    H252675   3.497   0.541  11.549  0.6766 -1.1785  0.8672
 9494TIP3   OH252676   5.543   4.884   9.398 -0.2459  0.1285 -0.6316
 9494TIP3    H152677   5.492   4.935   9.461 -0.5416 -0.4473 -0.3956
 9494TIP3    H252678   5.480   4.822   9.362  0.8818 -2.7557  1.9405
 9495TIP3   OH252679   3.499   3.753  10.654 -0.4361  0.2001 -0.7809
 9495TIP3    H152680   3.566   3.691  10.627 -1.4695 -0.4965 -1.8134
 9495TIP3    H252681   3.416   3.711  10.632 -1.3304  0.3411  1.9113
 9496TIP3   OH252682   2.489   0.327  11.394  0.4761  0.7232 -0.4555
 9496TIP3    H152683   2.542   0.308  11.472 -3.1351  1.5486  2.5275
 9496TIP3    H252684   2.524   0.410  11.361  2.0458  0.4210  0.3339
 9497TIP3   OH252685   0.098   1.140  10.499  0.7790 -0.2213  0.2357
 9497TIP3    H152686   0.027   1.076  10.494  1.7090 -1.2685  0.0471
 9497TIP3    H252687   0.084   1.198  10.425 -0.5286  0.3064  0.8544
 9498TIP3   OH252688   0.926   2.392  10.089 -0.4306 -0.3253 -0.3676
 9498TIP3    H152689   0.992   2.397  10.159  0.0839 -1.9894 -0.6999
 9498TIP3    H252690   0.969   2.344  10.018 -1.9748 -1.4329 -0.6136
 9499TIP3   OH252691   4.084   1.774   9.249 -0.3928 -0.2356  0.0883
 9499TIP3    H152692   3.999   1.809   9.274 -0.1285 -0.4329  1.3644
 9499TIP3    H252693   4.065   1.686   9.217 -0.4779 -1.4327  3.0574
 9500TIP3   OH252694   2.306   3.644   8.674  0.2212  0.5949 -0.1380
 9500TIP3    H152695   2.245   3.718   8.679 -1.1093 -0.2561 -2.2288
 9500TIP3    H252696   2.339   3.646   8.584  2.9704  0.7097  0.7719
 9501TIP3   OH252697   5.321   3.955  10.353  0.9185 -0.6869 -0.5951
 9501TIP3    H152698   5.361   3.883  10.401  0.3073 -0.5288  0.1658
 9501TIP3    H252699   5.241   3.976  10.402  0.2913 -0.5012 -1.6636
 9502TIP3   OH252700   2.126   6.231  11.323  0.1926 -0.1574 -0.4864
 9502TIP3    H152701   2.077   6.298  11.274 -0.1565 -0.6892 -0.8831
 9502TIP3    H252702   2.060   6.165  11.345  0.4985 -0.2875  0.0572
 9503TIP3   OH252703   3.038   4.431   9.357 -0.8149 -0.0904  0.1736
 9503TIP3    H152704   3.068   4.380   9.281 -0.6479 -0.4651  0.4889
 9503TIP3    H252705   2.946   4.450   9.338  0.0802  3.0410 -1.9067
 9504TIP3   OH252706   1.665   6.023  11.314  0.4798  0.0584 -0.0892
 9504TIP3    H152707   1.583   6.071  11.310  1.1409  1.1566 -0.8828
 9504TIP3    H252708   1.670   5.992  11.404 -0.4761  0.5535  0.1475
 9505TIP3   OH252709   4.668   5.945  10.200 -0.8261  0.6697 -0.5851
 9505TIP3    H152710   4.763   5.947  10.194 -0.5240  0.0746  2.6555
 9505TIP3    H252711   4.642   5.868  10.150  0.7291 -1.0424  1.1367
 9506TIP3   OH252712   3.425   0.641   9.634  0.1702  0.1954  0.3091
 9506TIP3    H152713   3.488   0.648   9.705  1.5604 -1.3711 -0.6868
 9506TIP3    H252714   3.344   0.611   9.677  0.0642  2.0979  1.5741
 9507TIP3   OH252715   1.642   3.478  11.891  0.0883 -0.2385 -0.0216
 9507TIP3    H152716   1.666   3.415  11.959 -0.0633 -0.3553 -0.0741
 9507TIP3    H252717   1.546   3.473  11.888 -0.0259  0.8892  0.8353
 9508TIP3   OH252718   1.146   5.620   9.359  0.5206  0.5351 -0.7496
 9508TIP3    H152719   1.069   5.674   9.340  0.6168  0.3020 -1.8559
 9508TIP3    H252720   1.215   5.683   9.379  0.3536  0.7867 -0.9647
 9509TIP3   OH252721   1.659   3.674  10.757 -0.0965 -0.4641  0.4619
 9509TIP3    H152722   1.730   3.700  10.697 -0.2560 -0.0597  0.4474
 9509TIP3    H252723   1.583   3.725  10.727 -0.8667 -2.1625 -0.6178
 9510TIP3   OH252724   5.507   5.610   8.622 -0.3997 -0.4280 -0.1146
 9510TIP3    H152725   5.480   5.574   8.707  2.0362  1.0439  1.3882
 9510TIP3    H252726   5.573   5.675   8.643  1.2647 -0.8989 -3.2512
 9511TIP3   OH252727   1.941   1.773   9.841  0.4887  0.8041  0.7308
 9511TIP3    H152728   1.875   1.834   9.873 -1.0600  0.0573 -0.8625
 9511TIP3    H252729   2.024   1.805   9.877 -0.6859  1.9491  2.5454
 9512TIP3   OH252730   1.520   1.868   8.201 -0.3187 -0.2252 -0.6520
 9512TIP3    H152731   1.565   1.795   8.242 -0.8471 -0.0955  0.1955
 9512TIP3    H252732   1.427   1.843   8.202 -0.4884  0.3775 -0.4822
 9513TIP3   OH252733   4.425   4.135  10.057  1.0682  0.3061  0.7209
 9513TIP3    H152734   4.391   4.045  10.058  1.0381  0.2619 -0.8031
 9513TIP3    H252735   4.387   4.176  10.134  0.8458 -0.9106  1.2877
 9514TIP3   OH252736   0.219   4.980  11.828 -0.0232  0.0242 -0.2281
 9514TIP3    H152737   0.227   5.032  11.748 -0.6874  0.3629 -0.0911
 9514TIP3    H252738   0.297   5.000  11.879  0.3392 -0.0952 -0.7376
 9515TIP3   OH252739   3.761   0.778  10.841 -0.0860  0.0790 -0.3797
 9515TIP3    H152740   3.673   0.811  10.859 -0.1551 -0.5096  0.4139
 9515TIP3    H252741   3.804   0.848  10.793 -0.8706  0.5195 -0.4441
 9516TIP3   OH252742   4.883   6.386  11.092 -0.1199  0.1437  0.1324
 9516TIP3    H152743   4.820   6.330  11.138 -1.0477  1.2467  0.2443
 9516TIP3    H252744   4.931   6.431  11.162 -0.1855  0.3694  0.0318
 9517TIP3   OH252745   4.563   1.510   9.423 -0.2188 -0.0821  0.3724
 9517TIP3    H152746   4.635   1.556   9.379 -0.1739 -0.4953  0.0068
 9517TIP3    H252747   4.535   1.444   9.360 -1.9574  1.0625 -0.1389
 9518TIP3   OH252748   2.352   5.041  11.409  0.2890  1.0038 -0.0475
 9518TIP3    H152749   2.334   5.129  11.375  1.1565  1.0378 -0.4530
 9518TIP3    H252750   2.389   5.057  11.496  0.0775  1.0152  0.0422
 9519TIP3   OH252751   0.233   1.618   9.007 -0.6461  0.0449 -0.2985
 9519TIP3    H152752   0.197   1.706   9.011 -1.8692 -0.4718  1.5931
 9519TIP3    H252753   0.162   1.565   8.970 -0.0975 -0.2405 -0.9670
 9520TIP3   OH252754   2.067   2.721  11.534  0.4321 -0.0653  0.0233
 9520TIP3    H152755   2.066   2.760  11.446  0.3498 -0.2808 -0.0699
 9520TIP3    H252756   2.160   2.716  11.556  0.4923 -0.6740 -0.3467
 9521TIP3   OH252757   2.930   1.187  10.298  0.5285  0.3780 -0.1716
 9521TIP3    H152758   2.953   1.196  10.205 -1.3861  1.0322 -0.6256
 9521TIP3    H252759   2.878   1.107  10.302  0.2385  0.5861  0.2508
 9522TIP3   OH252760   2.580   2.973  11.694 -0.3036 -0.6012 -0.1583
 9522TIP3    H152761   2.513   3.041  11.707  0.1410 -0.0088 -0.9119
 9522TIP3    H252762   2.660   3.011  11.731 -0.4315 -1.4480  1.0685
 9523TIP3   OH252763   2.984   2.020  12.642  0.3568 -0.4820 -0.3074
 9523TIP3    H152764   2.910   2.080  12.648  1.4814  0.8729  0.6749
 9523TIP3    H252765   2.949   1.943  12.597 -1.7728 -0.1320  0.6480
 9524TIP3   OH252766   3.349   5.574   8.460 -0.6739 -0.3299 -0.3938
 9524TIP3    H152767   3.258   5.545   8.460 -0.2812 -1.7644  1.3869
 9524TIP3    H252768   3.372   5.583   8.367 -2.6738  0.3225 -0.8728
 9525TIP3   OH252769   4.761   1.711   9.280  0.2568  0.4326  0.5044
 9525TIP3    H152770   4.674   1.751   9.282  0.7891  1.7059 -0.1702
 9525TIP3    H252771   4.764   1.663   9.197  0.7046  1.6785 -0.2314
 9526TIP3   OH252772   1.418   6.474  11.439  0.2856  0.4680  0.0107
 9526TIP3    H152773   1.405   6.498  11.531  3.9968 -0.0774  0.8434
 9526TIP3    H252774   1.392   6.553  11.390 -3.1304  0.2911  1.2562
 9527TIP3   OH252775   1.642   4.963  10.790 -0.0554  0.0383 -0.4456
 9527TIP3    H152776   1.687   5.012  10.721 -0.7159  0.4775 -0.5774
 9527TIP3    H252777   1.639   4.873  10.757  0.1704  0.1275 -0.7155
 9528TIP3   OH252778   5.950   5.402  10.867 -0.0296  0.4940 -0.1521
 9528TIP3    H152779   5.993   5.479  10.829  0.9033  0.1699  0.2321
 9528TIP3    H252780   5.997   5.327  10.830  1.3660  0.1672  2.1015
 9529TIP3   OH252781   1.840   2.442   8.293  0.7379 -0.5385 -0.0808
 9529TIP3    H152782   1.932   2.436   8.317  0.4338 -2.9409  0.7794
 9529TIP3    H252783   1.816   2.352   8.270 -1.5078 -0.0541  0.1839
 9530TIP3   OH252784   2.710   2.191  12.171  0.4956  0.3583  0.2190
 9530TIP3    H152785   2.713   2.260  12.105  0.1319 -0.6378 -0.8865
 9530TIP3    H252786   2.699   2.110  12.120  0.5258 -0.4747  1.4894
 9531TIP3   OH252787   5.304   0.826   9.539  0.0668 -0.0648  0.0802
 9531TIP3    H152788   5.394   0.807   9.513  0.5630 -1.5543  2.5609
 9531TIP3    H252789   5.312   0.887   9.612 -1.0441  0.7367 -0.4237
 9532TIP3   OH252790   6.242   4.693  11.521 -0.1072 -0.4483 -0.2921
 9532TIP3    H152791   6.182   4.767  11.530 -0.3657 -0.3718 -2.3319
 9532TIP3    H252792   6.321   4.730  11.481  0.1431 -1.0906 -0.4043
 9533TIP3   OH252793   0.179   5.701   9.294  0.0795 -0.2454  0.4879
 9533TIP3    H152794   0.174   5.665   9.383  1.1253 -0.0467  0.6466
 9533TIP3    H252795   0.181   5.796   9.306  1.8378 -0.2297  0.3965
 9534TIP3   OH252796   5.654   2.755   8.549  0.0473 -0.1192  0.1147
 9534TIP3    H152797   5.708   2.687   8.509  0.0058 -0.7206  1.0799
 9534TIP3    H252798   5.565   2.719   8.549 -0.0636  0.1492  0.1601
 9535TIP3   OH252799   3.294   0.714   8.967 -0.1809  0.0713  0.1413
 9535TIP3    H152800   3.203   0.712   8.997 -0.5034 -0.8497 -0.8343
 9535TIP3    H252801   3.287   0.722   8.872  0.7015 -1.7274 -0.1179
 9536TIP3   OH252802   1.715   3.644   9.189 -0.2047 -0.0721 -0.4866
 9536TIP3    H152803   1.690   3.661   9.280 -0.4366 -1.5199 -0.2520
 9536TIP3    H252804   1.644   3.589   9.155  1.0563 -1.5918 -0.7837
 9537TIP3   OH252805   2.696   0.008  10.667 -0.0154  0.2627 -0.8485
 9537TIP3    H152806   2.741   0.022  10.750  1.7367  1.2143 -1.9055
 9537TIP3    H252807   2.605  -0.010  10.691  0.2775  1.3484  1.2208
 9538TIP3   OH252808   5.575   2.928   9.914 -0.2793  0.0583  0.3488
 9538TIP3    H152809   5.629   2.963   9.984  0.7324  0.1333 -0.4403
 9538TIP3    H252810   5.620   2.847   9.887 -1.6253 -0.9343  0.9734
 9539TIP3   OH252811   3.206   5.616  11.287 -0.1485  0.2777  0.1910
 9539TIP3    H152812   3.223   5.532  11.244  0.7726  0.3140  0.4710
 9539TIP3    H252813   3.184   5.675  11.215  0.6272  0.1482 -0.1606
 9540TIP3   OH252814   3.298   2.512  10.786 -0.2582  0.1190  0.0282
 9540TIP3    H152815   3.207   2.489  10.769  0.2049 -2.3674  0.5747
 9540TIP3    H252816   3.304   2.516  10.882  0.5464 -1.5216  0.0824
 9541TIP3   OH252817   2.920   6.307  10.423  0.6190  0.3587  0.2356
 9541TIP3    H152818   2.851   6.285  10.486  0.9680 -1.1913  0.1052
 9541TIP3    H252819   2.898   6.257  10.345  0.4930  1.8577 -0.7217
 9542TIP3   OH252820   1.653   0.679  10.098 -0.5487 -0.0646 -0.0252
 9542TIP3    H152821   1.696   0.759  10.068 -0.0228 -0.4117 -0.2030
 9542TIP3    H252822   1.573   0.674  10.045 -2.1481  1.8965  2.0068
 9543TIP3   OH252823   4.376   5.969  10.181  0.2572  0.1375  0.2162
 9543TIP3    H152824   4.469   5.983  10.193  0.5582 -0.2886 -1.3980
 9543TIP3    H252825   4.349   6.036  10.119 -0.5510  0.3539  0.7828
 9544TIP3   OH252826   4.665   1.717   8.979  0.2678 -0.6919 -0.7385
 9544TIP3    H152827   4.716   1.690   8.902 -0.0390 -0.3142 -1.0767
 9544TIP3    H252828   4.665   1.812   8.976  1.7309 -0.5974  0.7127
 9545TIP3   OH252829   4.048   5.914  11.164 -0.0881  0.1593  0.1575
 9545TIP3    H152830   4.070   5.902  11.257  0.8918 -0.0650 -0.0940
 9545TIP3    H252831   3.976   5.854  11.149 -1.3805  1.3931  1.1697
 9546TIP3   OH252832   6.562   6.056   9.213 -0.2176 -0.2157  0.5456
 9546TIP3    H152833   6.638   6.082   9.263 -0.2404 -1.9972  1.5932
 9546TIP3    H252834   6.513   5.997   9.271 -2.0902  0.4184 -0.2973
 9547TIP3   OH252835   0.940   3.985   9.276 -0.3650 -0.2916  0.1755
 9547TIP3    H152836   0.888   4.064   9.259  1.1832  1.0358  1.3152
 9547TIP3    H252837   0.944   3.979   9.371  1.6565 -0.2495  0.1407
 9548TIP3   OH252838   5.121   0.598   9.574 -0.1036  0.3919 -0.3952
 9548TIP3    H152839   5.182   0.672   9.580 -1.2590  1.4496 -1.0178
 9548TIP3    H252840   5.130   0.567   9.484 -0.2599  0.3624 -0.4015
 9549TIP3   OH252841   2.948   3.142   8.908 -0.1694  0.5173 -0.0600
 9549TIP3    H152842   3.027   3.108   8.866  0.6251  0.3993  1.4548
 9549TIP3    H252843   2.968   3.142   9.001 -1.6850  1.2330  0.3083
 9550TIP3   OH252844   2.511   0.672   9.623 -0.1732 -0.2538  0.2529
 9550TIP3    H152845   2.607   0.676   9.622 -0.1131  1.7626  2.9434
 9550TIP3    H252846   2.483   0.759   9.596 -1.2267 -0.5852  0.2256
 9551TIP3   OH252847   0.322   1.096   9.702  0.2866  0.2261  0.7465
 9551TIP3    H152848   0.330   1.120   9.795  0.8531 -0.6645  0.9422
 9551TIP3    H252849   0.381   1.022   9.692 -0.3438 -0.1635 -0.1615
 9552TIP3   OH252850   4.953   4.611  10.949  0.1936 -0.2606 -0.7025
 9552TIP3    H152851   4.999   4.541  10.904  0.6254 -1.1832  1.0892
 9552TIP3    H252852   5.011   4.636  11.022 -0.2886  1.4357 -0.8448
 9553TIP3   OH252853   3.696   3.541  10.424 -0.0101 -0.5681 -0.6388
 9553TIP3    H152854   3.709   3.632  10.450 -3.2892  0.0632 -0.8031
 9553TIP3    H252855   3.709   3.491  10.504  3.4687 -0.2725 -0.8629
 9554TIP3   OH252856   0.539   1.613  10.954 -0.3211 -0.3715 -0.2748
 9554TIP3    H152857   0.468   1.614  11.018  1.2299  1.2951  1.5355
 9554TIP3    H252858   0.495   1.627  10.870 -2.1645  0.1929  0.7248
 9555TIP3   OH252859   5.299   5.669  10.653 -0.1694  0.2797 -0.1058
 9555TIP3    H152860   5.257   5.633  10.731  0.3830 -1.5133 -0.6034
 9555TIP3    H252861   5.289   5.764  10.663  1.5542  0.2809  3.1086
 9556TIP3   OH252862   6.162   3.173   8.396 -0.9238 -0.4441 -0.6143
 9556TIP3    H152863   6.100   3.232   8.439  0.3141 -0.1753  0.8470
 9556TIP3    H252864   6.221   3.231   8.348  2.2286 -0.0284  3.2648
 9557TIP3   OH252865   0.862   5.374  11.074 -0.3975  0.5001  0.0413
 9557TIP3    H152866   0.909   5.400  11.153  0.0183 -1.6135  0.5436
 9557TIP3    H252867   0.905   5.294  11.045 -3.7875 -1.8295  0.7400
 9558TIP3   OH252868   6.465   4.188   9.286 -0.0552 -0.6917  0.1819
 9558TIP3    H152869   6.555   4.157   9.274 -0.2848 -0.9451 -1.0059
 9558TIP3    H252870   6.447   4.240   9.208 -0.4908  0.4997  1.0472
 9559TIP3   OH252871   2.127   2.606   9.904  0.2436 -0.0478 -0.1480
 9559TIP3    H152872   2.146   2.532   9.846  0.9611 -0.7151  0.9019
 9559TIP3    H252873   2.212   2.629   9.942 -0.1180  0.7486  0.2027
 9560TIP3   OH252874   1.630   6.023   9.263 -0.1352 -0.4177  0.4486
 9560TIP3    H152875   1.561   6.066   9.212 -0.8415 -1.7252  0.2822
 9560TIP3    H252876   1.679   6.096   9.302  1.6955  0.8397 -3.5583
 9561TIP3   OH252877   2.846   2.229  10.065 -0.1755 -0.1509  0.0197
 9561TIP3    H152878   2.818   2.147  10.023  0.2418  0.1867 -0.9330
 9561TIP3    H252879   2.934   2.245  10.031 -0.3220  0.7830  0.0654
 9562TIP3   OH252880   3.019   6.294   8.814 -0.3541  0.2378  0.2023
 9562TIP3    H152881   2.943   6.237   8.804 -0.3823  0.2214  0.5026
 9562TIP3    H252882   2.988   6.380   8.787  0.0608 -0.1409 -1.5774
 9563TIP3   OH252883   5.353   3.712   8.771  0.6991 -0.4311 -0.0020
 9563TIP3    H152884   5.362   3.800   8.734 -0.3084 -0.4484 -0.3080
 9563TIP3    H252885   5.419   3.708   8.840  0.2670  0.8364  0.5137
 9564TIP3   OH252886   5.670   5.416   8.797 -0.1538 -0.2515  0.5956
 9564TIP3    H152887   5.588   5.466   8.801 -0.0440 -0.0326  0.1336
 9564TIP3    H252888   5.644   5.326   8.818 -0.8263 -0.5284 -1.2070
 9565TIP3   OH252889   6.129   3.027   9.823  0.2637 -0.1802 -0.5232
 9565TIP3    H152890   6.180   3.065   9.752  0.4018 -1.4201 -1.1218
 9565TIP3    H252891   6.121   2.934   9.800  0.4238 -0.6441  1.1521
 9566TIP3   OH252892   0.861   6.286  11.701  0.0885 -0.7298 -0.3692
 9566TIP3    H152893   0.925   6.309  11.769  0.3699 -0.2718 -0.7856
 9566TIP3    H252894   0.901   6.211  11.656  0.3854 -0.3792 -0.6960
 9567TIP3   OH252895   4.265   4.365   9.364  0.2046  0.3147  0.6182
 9567TIP3    H152896   4.209   4.380   9.288  0.9557  0.7213  0.1388
 9567TIP3    H252897   4.271   4.450   9.408  0.7968  0.3782  0.4226
 9568TIP3   OH252898   1.318   2.837   9.919 -0.3960  0.0914 -0.0565
 9568TIP3    H152899   1.234   2.870   9.951  0.8546  2.2869  1.1867
 9568TIP3    H252900   1.339   2.893   9.844 -0.3739 -0.9747 -0.8781
 9569TIP3   OH252901   4.973   6.631   8.565 -0.1836  0.1615  0.2368
 9569TIP3    H152902   4.932   6.583   8.636 -1.6177  0.1097 -0.5840
 9569TIP3    H252903   4.913   6.704   8.547  1.1650  1.3730  0.4217
 9570TIP3   OH252904   1.298   3.763  11.080  0.0256  0.0712  0.3500
 9570TIP3    H152905   1.263   3.678  11.106 -0.2095 -0.0421 -0.3083
 9570TIP3    H252906   1.224   3.807  11.039  0.6237 -0.1481 -1.0146
 9571TIP3   OH252907   3.371   1.033  11.365  0.2500  0.4300  0.1823
 9571TIP3    H152908   3.414   1.059  11.447  2.1372 -0.0826 -0.5922
 9571TIP3    H252909   3.289   1.082  11.365  0.2222  0.4880  2.3407
 9572TIP3   OH252910   0.667   5.978   8.631  0.2282 -0.5866  0.0888
 9572TIP3    H152911   0.752   5.982   8.585  0.4934 -0.9220  0.5401
 9572TIP3    H252912   0.689   5.949   8.719 -0.3691 -0.7223  0.1969
 9573TIP3   OH252913   6.533   4.139  10.089  0.4194 -0.0694  0.1472
 9573TIP3    H152914   6.622   4.175  10.087 -0.2657  1.6827 -1.3029
 9573TIP3    H252915   6.487   4.185  10.020 -1.3668 -1.7148  0.1538
 9574TIP3   OH252916   1.505   1.713  11.591  0.3698 -0.8590  0.1141
 9574TIP3    H152917   1.507   1.632  11.643  0.4080 -2.0585 -1.6437
 9574TIP3    H252918   1.560   1.774  11.639  0.5487 -1.9571  1.3759
 9575TIP3   OH252919   5.808   3.160   8.404  1.0004  0.0301 -0.1188
 9575TIP3    H152920   5.805   3.197   8.316  1.6164  0.3180 -0.0261
 9575TIP3    H252921   5.856   3.224   8.456  1.3429 -0.5053  0.2417
 9576TIP3   OH252922   1.616   5.394  10.478 -0.4458 -0.2602  0.0354
 9576TIP3    H152923   1.570   5.477  10.491 -0.5237 -0.4613  1.1049
 9576TIP3    H252924   1.557   5.327  10.513 -1.1021 -0.9877 -2.2459
 9577TIP3   OH252925   2.734   3.377  11.276 -0.0813 -0.2677  0.3602
 9577TIP3    H152926   2.671   3.305  11.271  0.4668 -0.8707  1.7587
 9577TIP3    H252927   2.808   3.341  11.323  1.2996  0.4788 -1.1408
 9578TIP3   OH252928   0.853   2.275  11.772 -0.4751 -0.6184 -0.3721
 9578TIP3    H152929   0.772   2.282  11.822 -0.7259 -1.3927 -0.6466
 9578TIP3    H252930   0.916   2.328  11.821 -1.6975  1.9390 -1.4094
 9579TIP3   OH252931   6.092   3.915  10.288  0.1961  0.1026  0.1150
 9579TIP3    H152932   6.147   3.852  10.335  1.0689  1.8969  1.6216
 9579TIP3    H252933   6.154   3.978  10.252 -0.6987  0.4301 -0.8954
 9580TIP3   OH252934   0.914   3.476  11.764 -0.3118 -0.2390 -0.3794
 9580TIP3    H152935   0.869   3.448  11.844 -0.9217  0.0031 -0.6280
 9580TIP3    H252936   1.005   3.451  11.777 -0.8374 -2.4376 -0.6357
 9581TIP3   OH252937   3.572   4.280  10.530 -0.3103 -0.2568 -0.0339
 9581TIP3    H152938   3.568   4.331  10.449  1.1230 -1.7671 -1.1134
 9581TIP3    H252939   3.654   4.307  10.571 -1.3430  0.9911  1.3172
 9582TIP3   OH252940   2.475   1.556   8.727 -0.1420 -0.2863 -0.4726
 9582TIP3    H152941   2.500   1.505   8.804 -0.2825  0.6527  0.2106
 9582TIP3    H252942   2.559   1.583   8.688  0.0728  2.5187  1.5882
 9583TIP3   OH252943   3.728   2.035   8.535  0.3742 -0.7484  0.3566
 9583TIP3    H152944   3.803   1.986   8.502  1.4450  1.3751 -0.5178
 9583TIP3    H252945   3.652   1.996   8.491  1.3233 -0.8023 -1.2990
 9584TIP3   OH252946   2.623   1.092  10.225  0.1619  0.3101 -0.4007
 9584TIP3    H152947   2.657   1.029  10.289  0.7954  0.0095 -1.0168
 9584TIP3    H252948   2.562   1.147  10.275 -1.6245 -1.7401 -0.1630
 9585TIP3   OH252949   0.771   3.102  11.678 -0.3457  0.1594 -0.4611
 9585TIP3    H152950   0.738   3.159  11.748  0.7001  1.1718 -0.7629
 9585TIP3    H252951   0.717   3.123  11.602 -1.5838 -1.0491  0.0459
 9586TIP3   OH252952   4.605   0.930  10.175  0.1760 -0.3909 -0.1330
 9586TIP3    H152953   4.604   0.892  10.263  2.4569  0.1273  0.1769
 9586TIP3    H252954   4.601   1.025  10.190 -2.7771 -0.2937 -0.8007
 9587TIP3   OH252955   5.938   3.615  10.872 -0.0189  0.0434 -0.3492
 9587TIP3    H152956   5.883   3.650  10.942 -1.2437 -0.6705 -0.9272
 9587TIP3    H252957   6.022   3.596  10.914 -1.2910 -2.0884  1.3943
 9588TIP3   OH252958   4.655   6.195  10.069  0.7430  0.1786  0.2711
 9588TIP3    H152959   4.686   6.145   9.993  1.0220  0.6662  0.0569
 9588TIP3    H252960   4.644   6.130  10.138  2.0718 -0.0481  0.2986
 9589TIP3   OH252961   3.970   6.517  10.403  0.2893 -0.1941 -0.1039
 9589TIP3    H152962   3.911   6.496  10.475  0.6598  1.5162  0.7524
 9589TIP3    H252963   4.056   6.487  10.433 -0.1110 -3.2876 -1.6166
 9590TIP3   OH252964   1.504   1.159   8.820  0.1556  0.4364  0.0424
 9590TIP3    H152965   1.408   1.163   8.820  0.0762  1.2497 -3.2879
 9590TIP3    H252966   1.531   1.236   8.869 -0.8818  0.5514  0.4684
 9591TIP3   OH252967   0.326   0.428   8.481  0.0792 -0.0364  0.4695
 9591TIP3    H152968   0.318   0.522   8.469 -0.4236 -0.3234 -1.7980
 9591TIP3    H252969   0.366   0.418   8.568  0.5481  2.2482  0.5582
 9592TIP3   OH252970   1.895   1.230  10.822  0.5776 -0.1096  0.3174
 9592TIP3    H152971   1.805   1.255  10.839  0.3839  0.2354 -1.1199
 9592TIP3    H252972   1.943   1.255  10.901 -0.0348  2.5735 -0.0745
 9593TIP3   OH252973   6.240   5.581  10.086  0.4119  0.3338  0.5778
 9593TIP3    H152974   6.296   5.627  10.148  0.7713 -1.4108  1.6245
 9593TIP3    H252975   6.259   5.622  10.001 -0.4480  3.1002  1.6084
 9594TIP3   OH252976   3.103   1.251   8.751 -0.3042  0.2615  0.5269
 9594TIP3    H152977   3.023   1.199   8.758  0.2806 -0.5259  2.1163
 9594TIP3    H252978   3.100   1.290   8.664 -2.1708 -0.1283  0.3786
 9595TIP3   OH252979   3.004   0.698  11.794 -0.1005  0.3932  0.1039
 9595TIP3    H152980   2.950   0.738  11.861  0.4959  1.4853 -0.0419
 9595TIP3    H252981   3.077   0.759  11.782  1.7639 -1.5210  1.0670
 9596TIP3   OH252982   6.067   2.335   8.605 -0.3464 -0.0895 -0.8545
 9596TIP3    H152983   5.986   2.328   8.656 -0.1503  0.6413 -0.4206
 9596TIP3    H252984   6.117   2.257   8.628 -0.5328 -0.0759 -0.3943
 9597TIP3   OH252985   5.022   3.088  10.519 -0.1374  0.7758  0.1361
 9597TIP3    H152986   5.036   3.016  10.580  0.8979 -0.0719 -1.0540
 9597TIP3    H252987   4.931   3.079  10.491 -0.3037  0.5458  0.7296
 9598TIP3   OH252988   2.613   0.066   9.120 -0.0504 -0.2123 -0.4419
 9598TIP3    H152989   2.574   0.026   9.043 -1.6818  1.9010 -0.7901
 9598TIP3    H252990   2.633   0.156   9.094  1.4746 -0.0891  0.9385
 9599TIP3   OH252991   5.377   6.326  10.491  0.1262 -0.1449 -0.6177
 9599TIP3    H152992   5.436   6.264  10.448  0.3089  0.3406 -1.0717
 9599TIP3    H252993   5.350   6.281  10.571  0.9318 -0.4660 -0.5138
 9600TIP3   OH252994   4.142   5.523  10.475 -0.1063  0.2265  0.3818
 9600TIP3    H152995   4.229   5.486  10.460  0.6441  1.5184  1.3553
 9600TIP3    H252996   4.114   5.552  10.388  0.4172 -0.2509  0.0459
 9601TIP3   OH252997   2.712   2.857   9.196 -0.2417  0.2795 -0.0477
 9601TIP3    H152998   2.681   2.927   9.252 -0.0142  2.5750 -2.6104
 9601TIP3    H252999   2.799   2.885   9.168 -0.2902 -0.8380 -1.4275
 9602TIP3   OH253000   5.424   4.716  10.966 -0.3350  0.4403 -0.4419
 9602TIP3    H153001   5.421   4.757  11.052 -0.6156  1.8807 -1.1145
 9602TIP3    H253002   5.416   4.789  10.904 -1.2552 -0.6704 -1.6780
 9603TIP3   OH253003   1.249   3.477  11.438 -0.1498 -0.0984 -0.2884
 9603TIP3    H153004   1.189   3.492  11.511  1.9537  0.4374  1.4150
 9603TIP3    H253005   1.337   3.486  11.475  1.0497  1.1987 -3.0714
 9604TIP3   OH253006   3.480   1.989   9.644  0.0711 -0.0577  0.0384
 9604TIP3    H153007   3.538   2.024   9.712 -0.6721  1.8488 -0.2507
 9604TIP3    H253008   3.429   1.922   9.688  1.5295 -0.8283  0.6316
 9605TIP3   OH253009   1.940   0.164  12.161 -0.1742  0.5651  0.2376
 9605TIP3    H153010   2.016   0.171  12.104  0.2867  0.7035  0.8613
 9605TIP3    H253011   1.891   0.245  12.144 -1.3125 -0.4543 -1.7230
 9606TIP3   OH253012   3.861   5.944  10.591  0.3780 -0.5773 -0.0811
 9606TIP3    H153013   3.914   5.888  10.534 -1.3220 -0.3997 -1.9418
 9606TIP3    H253014   3.774   5.903  10.591 -1.2021  2.3845 -2.2360
 9607TIP3   OH253015   2.906   2.184  11.726 -0.2241 -0.1335 -0.3954
 9607TIP3    H153016   2.982   2.181  11.785 -0.3661 -0.9596 -0.2445
 9607TIP3    H253017   2.887   2.278  11.716  0.7462  0.0851 -0.3480
 9608TIP3   OH253018   0.471   2.467  10.349  0.2460  0.0931  0.0654
 9608TIP3    H153019   0.417   2.434  10.277  0.1932 -0.7235  0.4701
 9608TIP3    H253020   0.555   2.488  10.308 -0.5040  1.8539 -0.6661
 9609TIP3   OH253021   2.046   2.915  10.906 -0.3505  0.1306 -0.4803
 9609TIP3    H153022   2.080   2.948  10.989 -1.2831 -1.9245  0.7953
 9609TIP3    H253023   1.976   2.854  10.931 -1.2967  0.1442 -2.8112
 9610TIP3   OH253024   5.597   3.963  11.235 -0.2425  0.1646  0.3802
 9610TIP3    H153025   5.558   3.881  11.265 -0.1268  0.0648  0.2575
 9610TIP3    H253026   5.621   4.009  11.316  0.0048 -0.0737  0.4448
 9611TIP3   OH253027   5.977   2.336   9.121  0.8255  0.1364 -0.2526
 9611TIP3    H153028   5.973   2.431   9.129  1.3737  0.2297 -0.9333
 9611TIP3    H253029   6.032   2.321   9.044  0.3681 -0.7271 -0.4239
 9612TIP3   OH253030   2.848   1.096   8.755  0.1377  0.0841  0.1457
 9612TIP3    H153031   2.787   1.088   8.681  0.9957  0.2001 -0.5856
 9612TIP3    H253032   2.901   1.017   8.752 -0.7070 -0.5740  1.4820
 9613TIP3   OH253033   6.228   1.476   9.884 -0.5549  1.0525  0.5177
 9613TIP3    H153034   6.307   1.422   9.892  0.3653  2.0995 -0.9503
 9613TIP3    H253035   6.172   1.448   9.956 -0.1772 -1.9175 -0.2114
 9614TIP3   OH253036   1.119   0.780  11.278  0.3667 -0.0571 -0.6399
 9614TIP3    H153037   1.046   0.729  11.312  0.3593  0.1249 -0.3811
 9614TIP3    H253038   1.078   0.850  11.227  0.3943 -1.1316 -2.2167
 9615TIP3   OH253039   5.083   3.918   9.429 -0.4350 -0.8028 -0.1808
 9615TIP3    H153040   5.007   3.872   9.393 -1.1166 -2.2789  2.8663
 9615TIP3    H253041   5.143   3.849   9.455  0.8227  0.2693 -0.1290
 9616TIP3   OH253042   1.231   3.824  10.335 -0.0155  0.2098 -0.3238
 9616TIP3    H153043   1.176   3.791  10.406  1.5605 -2.2156 -0.1086
 9616TIP3    H253044   1.258   3.745  10.287  0.9994  1.5629 -2.0912
 9617TIP3   OH253045   3.414   3.836  10.383  0.8027  0.0137 -0.0657
 9617TIP3    H153046   3.440   3.804  10.469 -0.3988 -0.4507  0.1501
 9617TIP3    H253047   3.496   3.858  10.339  1.4016  0.7634  1.3775
 9618TIP3   OH253048   0.064   5.260   9.169 -0.2105  0.0975 -0.3964
 9618TIP3    H153049   0.098   5.345   9.142  0.9883 -0.2601 -0.0950
 9618TIP3    H253050   0.068   5.206   9.090  1.0388 -0.2614 -0.1212
 9619TIP3   OH253051   1.405   3.495  10.766  0.3518  0.4197 -0.2608
 9619TIP3    H153052   1.487   3.450  10.745 -0.5248 -0.7088 -1.3985
 9619TIP3    H253053   1.371   3.448  10.842  0.7738  0.9513  0.2738
 9620TIP3   OH253054   6.000   1.375  10.571  0.3949  0.2166 -0.2574
 9620TIP3    H153055   6.081   1.323  10.568 -0.9254 -1.9444 -0.5401
 9620TIP3    H253056   5.993   1.414  10.484  0.9505  0.1257 -0.3449
 9621TIP3   OH253057   3.315   3.767   9.184  0.0518 -0.6831 -0.5165
 9621TIP3    H153058   3.410   3.757   9.176 -0.0782 -1.3485 -1.4431
 9621TIP3    H253059   3.302   3.823   9.261  1.2371  0.5717 -1.1949
 9622TIP3   OH253060   1.467   1.054  11.150 -0.1032 -0.4173  0.1317
 9622TIP3    H153061   1.495   1.115  11.218  0.1835  1.7408 -1.7957
 9622TIP3    H253062   1.372   1.068  11.142  0.0780  0.4439 -0.8408
 9623TIP3   OH253063   5.221   3.301  10.281 -0.6634  0.2728 -0.5138
 9623TIP3    H153064   5.212   3.212  10.246 -0.7418 -0.2712  0.8194
 9623TIP3    H253065   5.310   3.303  10.316  0.1265  1.4601 -2.4237
 9624TIP3   OH253066   5.441   2.036  10.157  0.5233  0.0484  0.0687
 9624TIP3    H153067   5.499   1.966  10.185 -0.4125 -0.2341  1.4329
 9624TIP3    H253068   5.497   2.097  10.110  1.4493 -1.3707 -0.7673
 9625TIP3   OH253069   0.217   5.303  10.802 -0.2983 -0.1966  0.1844
 9625TIP3    H153070   0.282   5.345  10.746  0.1844  2.2429  2.3935
 9625TIP3    H253071   0.133   5.332  10.767 -0.0335  0.5447  0.1599
 9626TIP3   OH253072   0.909   3.760  11.021 -0.2461  0.2235 -0.0269
 9626TIP3    H153073   0.930   3.768  11.114 -1.2046  1.7219  0.0910
 9626TIP3    H253074   0.819   3.730  11.019 -0.2513  0.2607 -0.4701
 9627TIP3   OH253075   4.742   5.812  11.177 -0.0355  0.1558 -0.1818
 9627TIP3    H153076   4.651   5.820  11.147 -0.3966 -0.7076  0.6525
 9627TIP3    H253077   4.774   5.733  11.135  0.0242 -0.0665  0.2807
 9628TIP3   OH253078   4.867   2.390   8.886 -0.5090  0.1845 -0.2316
 9628TIP3    H153079   4.882   2.462   8.946 -0.6062 -0.9359  1.1841
 9628TIP3    H253080   4.813   2.427   8.816  2.0460  2.2776 -1.2642
 9629TIP3   OH253081   0.718   6.303  10.860 -0.4019  0.3405 -0.0548
 9629TIP3    H153082   0.718   6.395  10.887  0.1742  0.6309 -0.9951
 9629TIP3    H253083   0.765   6.258  10.930  0.0043  0.8838  0.0272
 9630TIP3   OH253084   6.607   1.899  10.429 -0.3072  0.1391 -0.1006
 9630TIP3    H153085   6.694   1.869  10.403 -0.9910 -2.4859  0.4031
 9630TIP3    H253086   6.555   1.896  10.349 -0.1440  1.0988 -0.2646
 9631TIP3   OH253087   3.191   4.512  11.381  0.2396 -0.2225  0.5089
 9631TIP3    H153088   3.147   4.580  11.331  0.1960  0.9806  2.1074
 9631TIP3    H253089   3.283   4.518  11.356  0.1519  0.0879  0.2634
 9632TIP3   OH253090   0.209   2.817  11.814  0.0293  0.1597 -0.4128
 9632TIP3    H153091   0.166   2.821  11.728  0.1896 -1.1414 -0.5751
 9632TIP3    H253092   0.140   2.786  11.872  0.8064 -2.4480 -0.7686
 9633TIP3   OH253093   6.002   6.291  10.619  0.3904 -0.4293  0.4643
 9633TIP3    H153094   5.913   6.317  10.641  0.5022 -0.7343  1.2778
 9633TIP3    H253095   6.020   6.336  10.536 -0.6952 -0.7779  0.0247
 9634TIP3   OH253096   2.268   3.860   8.118 -0.6267 -0.6309 -0.2470
 9634TIP3    H153097   2.270   3.901   8.204  0.1187 -0.9921 -0.0837
 9634TIP3    H253098   2.183   3.883   8.082 -0.2634  1.0219 -0.1462
 9635TIP3   OH253099   2.476   2.111   8.426 -0.3065 -0.2788 -0.8242
 9635TIP3    H153100   2.508   2.045   8.488  0.7350  1.2545  0.3314
 9635TIP3    H253101   2.511   2.082   8.341  1.9042 -0.1738 -0.0345
 9636TIP3   OH253102   6.107   1.097   9.952 -0.0408 -0.6957  0.3186
 9636TIP3    H153103   6.060   1.169   9.995 -0.2599 -0.5904 -0.0903
 9636TIP3    H253104   6.046   1.066   9.884  0.9648  0.3001 -1.0941
 9637TIP3   OH253105   0.393   1.725  10.768 -0.3419  0.3125 -0.0349
 9637TIP3    H153106   0.353   1.810  10.785  1.9120  1.6081 -0.6998
 9637TIP3    H253107   0.402   1.721  10.673 -0.8773 -0.9324 -0.0546
 9638TIP3   OH253108   5.526   4.100   9.671 -0.4277 -0.3133 -0.4977
 9638TIP3    H153109   5.547   4.173   9.613 -0.7235  0.1047 -0.0793
 9638TIP3    H253110   5.612   4.066   9.698 -0.2866 -0.4986 -1.1562
 9639TIP3   OH253111   6.297   3.023  11.516 -0.7645  0.0991  0.4506
 9639TIP3    H153112   6.216   2.986  11.480 -0.1927  1.8776 -3.2003
 9639TIP3    H253113   6.363   2.956  11.500 -1.2369 -0.8287  2.2309
 9640TIP3   OH253114   2.666   1.132   8.529 -0.2384 -0.1616  0.2783
 9640TIP3    H153115   2.718   1.053   8.536  0.0882  0.0535  0.2952
 9640TIP3    H253116   2.612   1.119   8.450  0.3370 -0.0954 -0.1321
 9641TIP3   OH253117   4.645   4.201   8.954 -0.5947 -0.0418  0.4680
 9641TIP3    H153118   4.665   4.269   8.888 -1.5554  0.8283  1.0399
 9641TIP3    H253119   4.658   4.245   9.038 -1.6106 -0.4503  0.8475
 9642TIP3   OH253120   0.434   3.896  11.193  0.3669  0.1999  0.1205
 9642TIP3    H153121   0.383   3.852  11.262  0.2937 -0.4930 -0.3675
 9642TIP3    H253122   0.429   3.837  11.118  1.8543  0.1420  0.0412
 9643TIP3   OH253123   2.696   4.916   8.873  0.7914 -0.2031  0.1908
 9643TIP3    H153124   2.607   4.949   8.885  0.8470  0.1374 -0.3124
 9643TIP3    H253125   2.725   4.894   8.961  0.0830 -0.6556  0.3241
 9644TIP3   OH253126   3.909   3.190   8.495  0.0379 -0.0813  0.0372
 9644TIP3    H153127   3.998   3.167   8.523  0.1284  2.5830  2.5018
 9644TIP3    H253128   3.866   3.218   8.576 -2.9864 -0.9703 -1.1394
 9645TIP3   OH253129   2.940   1.206  10.020 -0.0014  0.4745  0.1470
 9645TIP3    H153130   2.903   1.121   9.997 -0.1945  0.3153  1.0294
 9645TIP3    H253131   2.869   1.269  10.004  0.2681  0.5337 -0.8913
 9646TIP3   OH253132   2.285   2.282   9.022 -0.6173 -0.0166  0.1857
 9646TIP3    H153133   2.230   2.290   9.100 -1.1413  0.8227 -0.2541
 9646TIP3    H253134   2.255   2.352   8.964 -0.4043 -0.7871 -0.8769
 9647TIP3   OH253135   4.046   6.199  10.094  0.2043 -0.1319 -0.5132
 9647TIP3    H153136   4.016   6.143  10.022  2.2165  0.1019 -1.6038
 9647TIP3    H253137   3.970   6.253  10.116 -0.5948 -0.5424 -2.1360
 9648TIP3   OH253138   0.565   5.796   9.299 -0.8070  0.2711  0.8125
 9648TIP3    H153139   0.630   5.763   9.238 -0.8853  0.0005  0.8721
 9648TIP3    H253140   0.551   5.724   9.361 -2.0422 -0.1241  0.0993
 9649TIP3   OH253141   6.477   1.292  11.210 -0.1059 -0.3004  0.1956
 9649TIP3    H153142   6.466   1.260  11.300  0.1808 -0.9974 -0.0170
 9649TIP3    H253143   6.436   1.226  11.155  2.7136 -1.6536 -0.4286
 9650TIP3   OH253144   0.977   1.706  10.704  0.1576 -0.2589 -0.2116
 9650TIP3    H153145   1.044   1.713  10.772  1.2048  1.2459 -1.3353
 9650TIP3    H253146   0.928   1.627  10.727  0.5832  0.0841  2.1680
 9651TIP3   OH253147   3.440   4.343   8.225 -0.5236  0.6902 -0.4017
 9651TIP3    H153148   3.360   4.395   8.228 -0.9747  0.3508 -3.5796
 9651TIP3    H253149   3.412   4.255   8.253 -0.7759  1.0326  0.4611
 9652TIP3   OH253150   0.038   4.277   8.528  0.7219 -0.3726 -0.2224
 9652TIP3    H153151  -0.030   4.307   8.588 -1.2281  0.0353 -2.4681
 9652TIP3    H253152   0.013   4.187   8.507  1.5020 -0.5822 -0.2855
 9653TIP3   OH253153   2.811   1.901   9.101  0.1888  0.0979 -0.6607
 9653TIP3    H153154   2.744   1.835   9.085 -0.9199  1.1702 -0.5756
 9653TIP3    H253155   2.835   1.889   9.193 -0.1543 -0.0604 -0.5923
 9654TIP3   OH253156   2.538   2.499   9.005 -0.2478 -0.0427  0.1352
 9654TIP3    H153157   2.466   2.504   9.068 -0.6603  0.6978 -0.3703
 9654TIP3    H253158   2.563   2.590   8.991 -0.6114 -0.1324 -1.2600
 9655TIP3   OH253159   0.650   3.645   9.865  0.0476 -0.3155 -0.1212
 9655TIP3    H153160   0.625   3.732   9.833 -1.2122 -0.6753 -0.1510
 9655TIP3    H253161   0.719   3.663   9.929 -1.3165  0.8647  1.0916
 9656TIP3   OH253162   0.047   2.764  11.167 -0.1008 -0.8369  0.6668
 9656TIP3    H153163   0.123   2.769  11.109  0.2487  0.1503  1.1758
 9656TIP3    H253164   0.074   2.703  11.236  0.7402  0.4454  1.5220
 9657TIP3   OH253165   6.009   1.805   8.614 -0.1643 -0.1134  0.4321
 9657TIP3    H153166   5.961   1.842   8.688  1.1616  2.5865  0.0740
 9657TIP3    H253167   5.943   1.792   8.546 -0.7759  1.2477  0.7413
 9658TIP3   OH253168   2.439   3.076   9.301  0.3191 -0.1029  0.2451
 9658TIP3    H153169   2.411   3.165   9.279 -0.8640 -0.5409 -0.0616
 9658TIP3    H253170   2.396   3.020   9.237  1.3278 -0.8824  0.2230
 9659TIP3   OH253171   3.153   2.040   8.925 -0.3960 -0.1038  0.0778
 9659TIP3    H153172   3.160   2.125   8.881  2.0028 -0.6025 -0.6511
 9659TIP3    H253173   3.183   2.057   9.014  0.0728 -0.1663 -0.0645
 9660TIP3   OH253174   3.778   3.560  11.210  0.0928 -0.1255  0.4746
 9660TIP3    H153175   3.846   3.625  11.194 -0.6556  1.0576  1.8641
 9660TIP3    H253176   3.819   3.497  11.270 -0.3396  1.2197  2.2547
 9661TIP3   OH253177   3.330   1.762  12.163 -0.2486  0.0932  0.4753
 9661TIP3    H153178   3.303   1.779  12.253  0.6037  0.2547  0.7109
 9661TIP3    H253179   3.339   1.666  12.158 -2.9423 -0.1967 -0.2355
 9662TIP3   OH253180   3.604   0.387   8.670  0.3714 -0.1054 -0.1570
 9662TIP3    H153181   3.641   0.306   8.634  0.0855 -0.2092 -0.2225
 9662TIP3    H253182   3.673   0.422   8.727  0.6099 -0.2361 -0.3656
 9663TIP3   OH253183   6.416   3.739   9.757 -0.8267 -0.3662 -0.4176
 9663TIP3    H153184   6.349   3.796   9.795  1.2806  1.2609  1.0476
 9663TIP3    H253185   6.499   3.775   9.787  0.7086 -3.9699  0.2702
 9664TIP3   OH253186   1.211   3.438  10.998  0.1539 -0.6578 -0.3509
 9664TIP3    H153187   1.201   3.497  11.073  0.4546 -0.3025 -0.5857
 9664TIP3    H253188   1.177   3.488  10.924  0.9449 -0.5534 -0.6512
 9665TIP3   OH253189   5.266   2.163  11.457 -0.1183  0.4552 -0.4079
 9665TIP3    H153190   5.321   2.188  11.531  0.2058 -0.3727 -0.3609
 9665TIP3    H253191   5.206   2.097  11.494 -0.7751  0.9394 -0.5898
 9666TIP3   OH253192   4.579   2.507  11.274  0.4765 -0.1214 -0.0618
 9666TIP3    H153193   4.556   2.556  11.354 -1.4493 -1.3360  0.2030
 9666TIP3    H253194   4.589   2.575  11.207  0.6699  0.8237  0.8958
 9667TIP3   OH253195   1.716   2.541   8.921  0.6708  0.2507  0.0415
 9667TIP3    H153196   1.620   2.541   8.922  0.6199 -1.8328 -0.1237
 9667TIP3    H253197   1.740   2.613   8.979 -1.0514 -0.6377  2.0316
 9668TIP3   OH253198   2.889   6.626   9.543 -0.0699  0.5074  0.0825
 9668TIP3    H153199   2.849   6.713   9.546  0.5993  0.8021  0.7825
 9668TIP3    H253200   2.874   6.596   9.453  0.7562  1.8602 -0.5348
 9669TIP3   OH253201   4.060   0.450   9.314  0.1196 -0.6289 -0.2521
 9669TIP3    H153202   4.063   0.470   9.408 -0.4177 -1.3464 -0.0760
 9669TIP3    H253203   4.014   0.367   9.309 -4.0457  1.4416 -1.4266
 9670TIP3   OH253204   6.020   4.772  10.668  0.1393 -0.3483  0.3635
 9670TIP3    H153205   6.115   4.778  10.679  0.3264 -0.7628 -0.8760
 9670TIP3    H253206   6.003   4.678  10.660 -0.3467 -0.2587  0.3259
 9671TIP3   OH253207   4.719   0.411   8.582 -0.0524  0.3795  0.1006
 9671TIP3    H153208   4.665   0.433   8.658  0.8600 -1.1192  1.2357
 9671TIP3    H253209   4.659   0.413   8.508 -1.8596 -1.8977  1.3991
 9672TIP3   OH253210   1.400   1.665  11.337  0.2084 -0.9256 -0.1026
 9672TIP3    H153211   1.422   1.695  11.425 -0.6520 -0.7259  0.0544
 9672TIP3    H253212   1.479   1.621  11.306  1.2801  0.8679 -0.0560
 9673TIP3   OH253213   3.862   0.270  11.116 -0.6158 -0.0306  0.1816
 9673TIP3    H153214   3.805   0.227  11.052 -1.2411 -2.8502  2.4367
 9673TIP3    H253215   3.919   0.200  11.148  0.4964  1.5408  1.8246
 9674TIP3   OH253216   6.592   6.566  10.891  0.0499 -0.6107  0.1187
 9674TIP3    H153217   6.642   6.607  10.820  2.0585 -1.3668  1.0180
 9674TIP3    H253218   6.627   6.606  10.971 -0.9398 -1.0438  0.7929
 9675TIP3   OH253219   2.892   2.748  10.078 -0.3960 -0.1367 -0.2356
 9675TIP3    H153220   2.965   2.780  10.024 -0.1820 -1.1452 -0.5815
 9675TIP3    H253221   2.814   2.773  10.030 -0.2085 -0.9835 -1.0236
 9676TIP3   OH253222   5.502   4.889   8.341 -0.0044 -0.5525 -0.2021
 9676TIP3    H153223   5.452   4.967   8.363  1.1305  0.5544 -1.3239
 9676TIP3    H253224   5.438   4.828   8.305 -0.7993  0.1720 -0.0339
 9677TIP3   OH253225   4.738   6.491  10.223  0.1240 -0.2093 -0.0798
 9677TIP3    H153226   4.694   6.473  10.306  1.3906  0.7229  0.8326
 9677TIP3    H253227   4.666   6.504  10.161 -0.8558 -0.6823  0.9187
 9678TIP3   OH253228   4.816   5.829  11.442  0.9818  0.3563  0.5064
 9678TIP3    H153229   4.761   5.840  11.365 -0.0834  1.2135  1.3414
 9678TIP3    H253230   4.800   5.738  11.470 -0.9540  0.9098  1.3781
 9679TIP3   OH253231   4.621   2.590  12.001  0.1940 -0.0968  0.0415
 9679TIP3    H153232   4.528   2.566  12.008  0.2441 -0.3525 -0.1625
 9679TIP3    H253233   4.620   2.676  11.961  0.0281  0.0833  0.4218
 9680TIP3   OH253234   3.658   0.345  10.803 -0.0069  0.0465 -0.8667
 9680TIP3    H153235   3.622   0.305  10.724 -0.5854 -0.1399 -0.5179
 9680TIP3    H253236   3.581   0.372  10.853  0.3756  1.3378 -0.9578
 9681TIP3   OH253237   2.294   1.970   9.785  0.2039 -0.0156  0.2315
 9681TIP3    H153238   2.223   2.030   9.761  1.0728  0.0200 -2.6511
 9681TIP3    H253239   2.270   1.887   9.744  0.6448 -0.7231  1.3615
 9682TIP3   OH253240   2.477   2.710  11.641 -0.7714 -0.3483  0.2013
 9682TIP3    H153241   2.399   2.707  11.697 -0.5860  0.0735  0.4869
 9682TIP3    H253242   2.491   2.803  11.625  0.2248 -0.3569  0.9368
 9683TIP3   OH253243   6.509   6.568  10.174  0.0324 -0.6167 -0.1126
 9683TIP3    H153244   6.501   6.622  10.096 -0.8207 -0.9319 -0.2434
 9683TIP3    H253245   6.459   6.615  10.241  0.0702 -0.7706  0.0246
 9684TIP3   OH253246   3.652   4.055  11.344  0.1429 -0.4749 -1.0202
 9684TIP3    H153247   3.695   4.035  11.427  1.5755  1.1051 -1.3160
 9684TIP3    H253248   3.563   4.080  11.369 -0.0592 -1.9284 -0.1833
 9685TIP3   OH253249   0.671   6.666   9.468  0.2543 -0.2097 -0.3580
 9685TIP3    H153250   0.654   6.592   9.410  1.9511  0.4047 -1.7244
 9685TIP3    H253251   0.663   6.630   9.556 -0.5373 -1.6074 -0.9681
 9686TIP3   OH253252   3.510   4.098   8.634  0.4179  0.0437  0.3436
 9686TIP3    H153253   3.529   4.184   8.673 -0.9114 -0.3807  2.0376
 9686TIP3    H253254   3.432   4.113   8.581  0.3507 -0.0713  0.4114
 9687TIP3   OH253255   4.015   6.045   9.872  0.1750  0.0655  0.0905
 9687TIP3    H153256   4.054   5.959   9.889  1.6495  0.8199  0.6719
 9687TIP3    H253257   3.939   6.026   9.816  0.4907 -1.5999  0.1690
 9688TIP3   OH253258   1.609   0.254  10.694 -0.5715 -0.2480  0.2537
 9688TIP3    H153259   1.647   0.337  10.723  3.2190 -1.2878 -1.1331
 9688TIP3    H253260   1.637   0.190  10.759 -0.2458 -1.0296 -0.6423
 9689TIP3   OH253261   2.324   2.704   8.809  0.5853 -0.4225 -0.2584
 9689TIP3    H153262   2.415   2.690   8.784  0.9176  0.5814  0.3563
 9689TIP3    H253263   2.313   2.799   8.808 -0.8762 -0.5422 -1.8039
 9690TIP3   OH253264   4.643   4.648  11.335  0.4516  0.2063  0.0787
 9690TIP3    H153265   4.566   4.683  11.290  0.5240 -0.6633 -0.7498
 9690TIP3    H253266   4.653   4.705  11.412 -1.9839 -0.6431  1.1292
 9691TIP3   OH253267   5.498   2.267   9.701  0.5414 -0.1596  0.3506
 9691TIP3    H153268   5.517   2.184   9.747  0.4321  0.2584  1.1614
 9691TIP3    H253269   5.406   2.283   9.718  0.2733 -0.4348 -0.7549
 9692TIP3   OH253270   2.374   1.158  10.776  0.2031  0.0910  0.3355
 9692TIP3    H153271   2.303   1.197  10.826  0.7727 -0.5684  1.7020
 9692TIP3    H253272   2.347   1.169  10.684 -1.5199  0.1010  0.8015
 9693TIP3   OH253273   0.696   5.084   9.304 -0.2228 -0.1444 -0.8367
 9693TIP3    H153274   0.675   5.109   9.214  2.1289  0.6927 -1.2162
 9693TIP3    H253275   0.739   5.161   9.342 -0.8640 -0.5969  0.9203
 9694TIP3   OH253276   5.605   5.390   9.103  0.0741  0.2702  0.1948
 9694TIP3    H153277   5.579   5.323   9.166 -1.0812  0.8349  0.3471
 9694TIP3    H253278   5.631   5.465   9.158  0.7854  0.1630  0.0176
 9695TIP3   OH253279   3.288   0.050  10.368 -0.2885  0.1291  0.4582
 9695TIP3    H153280   3.328   0.029  10.284 -0.2342  0.9656  0.2656
 9695TIP3    H253281   3.290  -0.032  10.417 -0.4403 -0.3952 -0.4000
 9696TIP3   OH253282   0.152   2.713   9.590 -0.9295 -0.0946 -0.0023
 9696TIP3    H153283   0.078   2.766   9.560 -0.3625  1.0784  0.5886
 9696TIP3    H253284   0.141   2.707   9.684 -1.2440 -1.4752 -0.1073
 9697TIP3   OH253285   1.164   5.981   9.326 -0.3026  0.2793  0.1743
 9697TIP3    H153286   1.196   6.059   9.372  1.0453 -0.2323  0.1671
 9697TIP3    H253287   1.211   5.908   9.366 -0.8238 -0.4284 -0.4622
 9698TIP3   OH253288   5.517   4.383   9.869  0.9617  0.0784 -0.3347
 9698TIP3    H153289   5.443   4.323   9.876  1.5115 -0.4622  1.3040
 9698TIP3    H253290   5.528   4.397   9.775 -1.3985  0.4193 -0.6324
 9699TIP3   OH253291   0.464   2.755  10.395 -0.9820 -0.0765 -0.5841
 9699TIP3    H153292   0.502   2.668  10.385  0.1230  0.4711 -1.2140
 9699TIP3    H253293   0.536   2.811  10.423 -1.7404  0.5958  0.1236
 9700TIP3   OH253294   3.810   1.608  11.318 -0.7663 -0.4472  0.1539
 9700TIP3    H153295   3.722   1.576  11.337 -0.7491 -0.6797 -0.1489
 9700TIP3    H253296   3.847   1.630  11.404 -0.0324 -3.1843  0.6183
 9701TIP3   OH253297   1.051   2.659   9.855 -0.6988 -0.0380 -0.0670
 9701TIP3    H153298   1.038   2.753   9.863  0.2514  0.0240  1.0105
 9701TIP3    H253299   1.119   2.650   9.789 -0.1786  0.0992  0.4343
 9702TIP3   OH253300   1.086   4.489   8.798  0.0470  0.4053  0.3554
 9702TIP3    H153301   1.051   4.532   8.721  1.9620 -0.3758 -1.0349
 9702TIP3    H253302   1.016   4.495   8.863 -2.4165 -0.5530 -1.9947
 9703TIP3   OH253303   2.701   5.068  11.558  0.1166 -0.0912  0.6779
 9703TIP3    H153304   2.750   5.136  11.605 -0.2828  1.5849 -1.2024
 9703TIP3    H253305   2.609   5.093  11.568 -0.0896 -0.8510  0.6951
 9704TIP3   OH253306   5.692   0.440  12.065 -0.4306 -0.2460  0.7776
 9704TIP3    H153307   5.782   0.467  12.081 -0.3190  3.7327 -4.1679
 9704TIP3    H253308   5.642   0.522  12.067 -2.7367 -1.3750 -2.3815
 9705TIP3   OH253309   2.482   3.723  12.211 -0.5194 -0.0831 -0.0211
 9705TIP3    H153310   2.538   3.654  12.173  1.2551  1.5354 -0.4975
 9705TIP3    H253311   2.397   3.681  12.222 -0.1753 -1.6685 -2.5387
 9706TIP3   OH253312   0.287   4.325  10.323  0.5972  0.3068 -0.1855
 9706TIP3    H153313   0.372   4.281  10.323  1.4505  1.7940  2.2571
 9706TIP3    H253314   0.223   4.255  10.334  1.8076 -0.5561  1.9138
 9707TIP3   OH253315   4.668   6.544  10.888  0.7329 -0.0870 -0.0753
 9707TIP3    H153316   4.746   6.545  10.942 -0.6983  4.5244  2.5141
 9707TIP3    H253317   4.666   6.631  10.847 -2.3396 -0.4949 -1.0938
 9708TIP3   OH253318   3.206   6.526  11.123  0.2964 -0.4031 -0.7185
 9708TIP3    H153319   3.247   6.443  11.147  0.6149 -0.2082 -0.5760
 9708TIP3    H253320   3.215   6.531  11.027  1.4644  0.0734 -0.6000
 9709TIP3   OH253321   2.390   1.801  10.392  0.0471 -0.4505  0.2804
 9709TIP3    H153322   2.457   1.829  10.329  0.4252 -1.2543  0.3047
 9709TIP3    H253323   2.344   1.881  10.415  0.7484  0.0625 -0.0399
 9710TIP3   OH253324   4.606   3.243   9.028  0.1751 -0.4121 -0.2671
 9710TIP3    H153325   4.577   3.311   9.089  0.6286  0.0530 -0.5692
 9710TIP3    H253326   4.566   3.267   8.944  0.2329 -0.5882 -0.3455
 9711TIP3   OH253327   2.593   2.404   8.374 -0.3360  0.2299 -0.0255
 9711TIP3    H153328   2.517   2.353   8.401 -0.3198 -0.4140 -1.1272
 9711TIP3    H253329   2.573   2.432   8.285  0.7297  0.0019 -0.3577
 9712TIP3   OH253330   0.692   0.675  10.878  0.5103 -0.9678 -0.3419
 9712TIP3    H153331   0.657   0.764  10.879 -2.3754 -2.0047  0.0649
 9712TIP3    H253332   0.772   0.680  10.930 -0.0562  1.1913  0.4206
 9713TIP3   OH253333   4.748   3.205  11.697 -0.5282 -0.6322 -0.4010
 9713TIP3    H153334   4.700   3.245  11.770  2.4605  1.6931  0.5090
 9713TIP3    H253335   4.838   3.199  11.728  0.2920 -2.5350 -2.8360
 9714TIP3   OH253336   1.372   5.491  10.145  0.3737  0.1783  0.1988
 9714TIP3    H153337   1.445   5.492  10.082  1.0163 -2.0060  0.8115
 9714TIP3    H253338   1.294   5.496  10.090  0.9463  1.2652 -0.5638
 9715TIP3   OH253339   1.756   0.124   9.659  1.1163  0.1275  0.0286
 9715TIP3    H153340   1.771   0.086   9.573  1.7001  0.9069 -0.2213
 9715TIP3    H253341   1.793   0.212   9.654  0.2621  0.5504  0.7585
 9716TIP3   OH253342   4.043   2.281  11.427  0.1935  0.6806 -0.2958
 9716TIP3    H153343   3.974   2.334  11.467 -1.1762  0.1104 -1.7891
 9716TIP3    H253344   4.059   2.321  11.342 -0.6741 -1.0800 -1.3487
 9717TIP3   OH253345   0.065   5.864   9.774  0.1435 -0.9465 -0.2451
 9717TIP3    H153346   0.060   5.803   9.848 -0.5000 -0.1139  0.4258
 9717TIP3    H253347   0.138   5.922   9.797 -1.4743  0.7495  0.9143
 9718TIP3   OH253348   0.627   3.341   9.346 -0.2476 -0.2763 -0.5711
 9718TIP3    H153349   0.561   3.273   9.359 -0.8145  0.4926  0.7909
 9718TIP3    H253350   0.578   3.423   9.351  0.6982  0.2836 -0.3779
 9719TIP3   OH253351   3.362   3.121   9.374 -0.1812  0.8150  0.3026
 9719TIP3    H153352   3.407   3.183   9.432  1.2711 -0.5004  0.6378
 9719TIP3    H253353   3.335   3.049   9.432 -0.6729  0.4992 -0.2998
 9720TIP3   OH253354   0.626   1.469  10.289  0.5062  0.2320  0.5074
 9720TIP3    H153355   0.576   1.449  10.368 -0.7288  2.0498  0.2548
 9720TIP3    H253356   0.660   1.385  10.260 -1.7965 -1.0086  1.1295
 9721TIP3   OH253357   5.234   3.179  10.666  0.3749  0.6114 -0.2772
 9721TIP3    H153358   5.295   3.182  10.592  0.0155  3.2371 -0.5659
 9721TIP3    H253359   5.153   3.145  10.629 -0.3202  3.4355 -1.6332
 9722TIP3   OH253360   2.347   2.228  11.356  0.2714 -0.2102 -0.0567
 9722TIP3    H153361   2.431   2.227  11.403 -0.3268 -1.5132  1.0291
 9722TIP3    H253362   2.311   2.141  11.368  0.4375 -0.9305 -3.7050
 9723TIP3   OH253363   2.207   5.601   8.633 -0.4543 -0.3544 -0.4612
 9723TIP3    H153364   2.207   5.523   8.577  2.8446 -0.1358 -0.9367
 9723TIP3    H253365   2.289   5.595   8.682 -0.4803  2.4429  0.0633
 9724TIP3   OH253366   2.298   4.167   8.371 -0.4103  0.3393 -0.0719
 9724TIP3    H153367   2.217   4.168   8.423 -0.1380  1.9761  0.3526
 9724TIP3    H253368   2.315   4.074   8.357 -2.2780 -0.0472 -0.0341
 9725TIP3   OH253369   3.590   5.623   8.581  0.0982 -0.4172 -0.0573
 9725TIP3    H153370   3.632   5.538   8.566  0.9393 -0.0196 -0.0115
 9725TIP3    H253371   3.507   5.617   8.533 -0.7692 -1.9667  1.5339
 9726TIP3   OH253372   2.114   1.574  11.993  0.2656 -0.2603  0.0089
 9726TIP3    H153373   2.032   1.599  12.034 -0.4878  1.9003 -2.5304
 9726TIP3    H253374   2.182   1.609  12.050 -0.6125 -0.1080  0.9830
 9727TIP3   OH253375   4.956   2.481   9.706 -0.2945 -0.6041  0.2334
 9727TIP3    H153376   4.945   2.409   9.644 -0.3657 -1.1745  0.8896
 9727TIP3    H253377   5.043   2.515   9.688 -0.6597 -0.1790 -0.7729
 9728TIP3   OH253378   4.190   5.839   9.993  0.2500 -0.3454 -0.6276
 9728TIP3    H153379   4.280   5.871  10.000  0.7240 -1.3653 -1.6254
 9728TIP3    H253380   4.188   5.761  10.049 -0.7672  1.1046  1.4382
 9729TIP3   OH253381   6.291   6.621   9.058  0.5446  0.2128 -0.3720
 9729TIP3    H153382   6.273   6.536   9.019  1.8247  0.1759 -0.9342
 9729TIP3    H253383   6.364   6.605   9.118  0.9756  0.9621 -0.6851
 9730TIP3   OH253384   2.874   4.927  10.946  0.3508  0.2121  0.6866
 9730TIP3    H153385   2.943   4.986  10.916  0.3164 -0.0381  0.1009
 9730TIP3    H253386   2.873   4.856  10.881 -1.3700  0.8822 -0.0770
 9731TIP3   OH253387   0.669   2.974  11.376 -0.4233  0.0126  0.6652
 9731TIP3    H153388   0.650   2.913  11.448 -0.8239  1.2136  1.6198
 9731TIP3    H253389   0.654   3.061  11.414 -0.9689  0.6779 -0.9657
 9732TIP3   OH253390   3.515   6.419   9.452 -0.2786 -0.3883  0.6251
 9732TIP3    H153391   3.439   6.363   9.437 -0.0289 -0.6922  0.4840
 9732TIP3    H253392   3.577   6.394   9.383  0.0999 -0.4085  0.9673
 9733TIP3   OH253393   0.180   2.231   9.082  0.1617 -0.1390 -0.4842
 9733TIP3    H153394   0.261   2.282   9.087  0.5617 -0.8620  0.6461
 9733TIP3    H253395   0.117   2.282   9.133 -0.1170  0.4027 -1.3309
 9734TIP3   OH253396   0.946   4.388  10.141  0.4175  0.1523 -0.1992
 9734TIP3    H153397   0.892   4.393  10.220 -1.9895 -0.2443 -1.7236
 9734TIP3    H253398   0.950   4.478  10.109  0.5368  0.1591 -0.1651
 9735TIP3   OH253399   4.298   2.947   8.422  0.5004 -0.0466  0.1419
 9735TIP3    H153400   4.245   2.868   8.412 -1.6730  1.5547 -2.9597
 9735TIP3    H253401   4.235   3.014   8.449  1.7203  1.1776  0.0317
 9736TIP3   OH253402   4.674   6.434   9.015  0.0849  0.4436 -0.1456
 9736TIP3    H153403   4.687   6.431   9.110  0.5909  0.7970 -0.1991
 9736TIP3    H253404   4.612   6.506   9.001  0.6151  0.9099 -0.1382
 9737TIP3   OH253405   0.356   0.550  10.925 -0.0719  0.2253 -0.1004
 9737TIP3    H153406   0.385   0.608  10.995 -1.9356  1.7640 -0.5385
 9737TIP3    H253407   0.303   0.484  10.969  0.9802 -0.4276  0.2329
 9738TIP3   OH253408   2.103   0.687  11.606  0.2685 -0.0335  0.2465
 9738TIP3    H153409   2.044   0.617  11.632  1.9252 -2.4662 -2.0393
 9738TIP3    H253410   2.059   0.731  11.533  0.4360 -0.6033 -0.2044
 9739TIP3   OH253411   3.371   2.967   8.911 -0.2792 -0.1677 -0.2738
 9739TIP3    H153412   3.404   2.997   8.996 -0.0376  1.7930 -1.0214
 9739TIP3    H253413   3.429   3.007   8.847  0.4888 -2.8291 -1.3884
 9740TIP3   OH253414   5.115   1.983  10.466 -0.3461  0.1792  0.0220
 9740TIP3    H153415   5.039   2.013  10.415 -0.5968  0.4232  0.5362
 9740TIP3    H253416   5.097   2.012  10.555 -0.9015 -1.9997  0.6801
 9741TIP3   OH253417   2.341   2.505  11.148  0.0049 -0.0294  0.1493
 9741TIP3    H153418   2.301   2.419  11.134  1.9735 -1.2615  1.5998
 9741TIP3    H253419   2.267   2.563  11.165 -1.3977 -1.3624 -1.1105
 9742TIP3   OH253420   1.766   1.612   8.751 -0.4286 -0.0493  0.6873
 9742TIP3    H153421   1.765   1.592   8.844 -0.6395  0.2161  0.7433
 9742TIP3    H253422   1.674   1.614   8.725 -0.4033  0.5973  0.6314
 9743TIP3   OH253423   1.396   0.400   8.958 -0.0340  0.0391 -0.3376
 9743TIP3    H153424   1.344   0.481   8.962  0.6631  0.4551  1.8354
 9743TIP3    H253425   1.458   0.409   9.030  1.6982 -1.3678 -1.5875
 9744TIP3   OH253426   0.990   3.747   8.658 -0.0947  0.0092  0.2605
 9744TIP3    H153427   1.077   3.713   8.636  0.2173  0.0847  1.3117
 9744TIP3    H253428   0.949   3.676   8.707 -0.3377  0.2574  0.4177
 9745TIP3   OH253429   3.442   0.814  10.102 -0.0612 -0.2674 -0.2540
 9745TIP3    H153430   3.389   0.857  10.169  0.6735 -0.2400  0.3253
 9745TIP3    H253431   3.519   0.783  10.149 -0.0386 -1.2142 -0.8829
 9746TIP3   OH253432   0.295   0.345   9.459 -1.0590  0.1219  0.2011
 9746TIP3    H153433   0.334   0.284   9.522 -1.3766 -0.6965 -0.3787
 9746TIP3    H253434   0.352   0.340   9.383 -0.4380  1.4285  0.5634
 9747TIP3   OH253435   1.140   2.604  10.155 -0.5916  0.1153  0.2639
 9747TIP3    H153436   1.081   2.539  10.193 -0.6339 -0.0560 -0.0911
 9747TIP3    H253437   1.122   2.601  10.061  0.1393 -0.0978  0.1200
 9748TIP3   OH253438   5.137   5.809   9.635 -0.3761  0.2438  0.0112
 9748TIP3    H153439   5.131   5.768   9.549 -0.0256  1.2665 -0.5169
 9748TIP3    H253440   5.202   5.879   9.624 -0.6366  0.6554  0.9930
 9749TIP3   OH253441   6.513   5.167   9.292  0.7887  0.4898 -0.3018
 9749TIP3    H153442   6.541   5.078   9.315  0.9247  0.9522  1.5089
 9749TIP3    H253443   6.581   5.199   9.232 -0.0721 -1.1242 -2.2562
 9750TIP3   OH253444   0.254   2.650   9.121 -0.6488 -0.2831 -0.0251
 9750TIP3    H153445   0.308   2.671   9.197  1.8569 -1.2935 -1.4376
 9750TIP3    H253446   0.254   2.730   9.069  0.1112 -0.4902 -0.3561
 9751TIP3   OH253447   5.721   2.345   8.539 -0.3851 -0.0078  0.5283
 9751TIP3    H153448   5.758   2.375   8.621 -0.1683 -2.0768  1.2303
 9751TIP3    H253449   5.764   2.398   8.472  0.2154  0.9582  1.6538
 9752TIP3   OH253450   0.350   4.612  11.133 -0.6376  0.2790 -0.2496
 9752TIP3    H153451   0.293   4.552  11.182 -1.2878  0.3347 -0.9162
 9752TIP3    H253452   0.314   4.699  11.151 -0.5306  0.3490 -0.3698
 9753TIP3   OH253453   5.594   2.378  11.067  0.1791  0.2471 -0.1411
 9753TIP3    H153454   5.586   2.307  11.130 -0.0570 -1.3925 -1.9393
 9753TIP3    H253455   5.681   2.366  11.028  0.4284  1.3863  0.0329
 9754TIP3   OH253456   1.674   6.481   9.162 -0.6706  0.3647 -0.2656
 9754TIP3    H153457   1.709   6.408   9.110  1.4673  1.4025 -0.4106
 9754TIP3    H253458   1.579   6.470   9.158 -0.4951 -0.9743 -2.3816
 9755TIP3   OH253459   4.298   0.490   9.253  0.4891 -0.0686 -0.2293
 9755TIP3    H153460   4.340   0.497   9.339  0.6773  1.4993 -0.4272
 9755TIP3    H253461   4.207   0.467   9.273  0.0568  2.0839  0.5436
 9756TIP3   OH253462   3.624   5.846  11.554  0.0735  0.1778 -0.3157
 9756TIP3    H153463   3.669   5.909  11.610  0.0390 -0.6742  0.6961
 9756TIP3    H253464   3.536   5.838  11.593  0.1331 -0.6115 -0.3260
 9757TIP3   OH253465   2.110   0.156   9.946 -0.0193  0.3023 -0.2038
 9757TIP3    H153466   2.017   0.143   9.932  0.2562 -1.5734 -0.5689
 9757TIP3    H253467   2.124   0.132  10.038  0.4197 -1.6984 -0.7463
 9758TIP3   OH253468   2.973   3.336   9.681 -0.8598 -0.3526 -1.0372
 9758TIP3    H153469   2.928   3.286   9.613 -0.4597 -1.4537 -0.5251
 9758TIP3    H253470   2.920   3.323   9.759  0.3556 -1.7525 -0.4032
 9759TIP3   OH253471   4.255   0.081   9.124 -0.3718  0.2186 -0.4333
 9759TIP3    H153472   4.160   0.093   9.122 -0.2118  1.8989  0.3583
 9759TIP3    H253473   4.269   0.019   9.196 -0.8237  0.4816 -0.1140
 9760TIP3   OH253474   1.308   5.316  11.734  0.6095 -0.2325  0.1980
 9760TIP3    H153475   1.221   5.292  11.702  0.1453  0.7204  0.7176
 9760TIP3    H253476   1.300   5.408  11.759  1.7187 -0.1889  0.4359
 9761TIP3   OH253477   5.497   3.399  10.918 -0.1620  0.0802  0.5414
 9761TIP3    H153478   5.416   3.393  10.866  0.6751  1.2047 -0.9762
 9761TIP3    H253479   5.560   3.441  10.859  1.8954 -1.8217  1.2510
 9762TIP3   OH253480   2.344   1.367   9.897 -0.3921 -0.5307  0.1088
 9762TIP3    H153481   2.390   1.319   9.828  1.2666  0.9894  0.0733
 9762TIP3    H253482   2.330   1.303   9.967  0.3244 -1.4356 -0.5618
 9763TIP3   OH253483   0.006   3.787   9.160 -0.2777  0.1480  0.1196
 9763TIP3    H153484   0.074   3.797   9.227  0.5053 -1.3120 -0.4003
 9763TIP3    H253485  -0.006   3.692   9.152 -0.0150  0.2422 -2.0919
 9764TIP3   OH253486   2.049   2.047   9.713  0.1086 -0.3759 -0.1135
 9764TIP3    H153487   2.031   1.971   9.657  0.7284  1.3960 -2.8718
 9764TIP3    H253488   1.969   2.057   9.766 -0.7086 -1.8261 -1.0091
 9765TIP3   OH253489   2.077   5.255   8.785 -0.1281  0.2174 -0.1888
 9765TIP3    H153490   2.027   5.300   8.853  0.5491 -1.2947  1.3645
 9765TIP3    H253491   2.158   5.306   8.778  0.3139 -0.2934  1.0237
 9766TIP3   OH253492   2.371   0.409   8.838 -0.7540  0.4180  0.4049
 9766TIP3    H153493   2.312   0.371   8.773  1.4776 -0.2467 -1.3777
 9766TIP3    H253494   2.368   0.504   8.821 -1.4380  0.4109  0.4676
 9767TIP3   OH253495   6.163   1.300  10.971 -0.5541 -0.3446  0.5381
 9767TIP3    H153496   6.207   1.226  11.013  1.1451  0.3117  0.0392
 9767TIP3    H253497   6.232   1.367  10.964 -1.2862  0.2613 -1.5211
 9768TIP3   OH253498   1.716   0.083  11.479  0.5915  0.1278  0.1614
 9768TIP3    H153499   1.734   0.174  11.502  0.0949  0.3568 -0.3206
 9768TIP3    H253500   1.625   0.068  11.507  0.1092  0.2951 -1.2436
 9769TIP3   OH253501   4.875   0.964   9.104 -0.0997 -0.3901 -0.2156
 9769TIP3    H153502   4.970   0.973   9.093 -0.2627  0.8619 -0.7066
 9769TIP3    H253503   4.841   1.053   9.096 -1.4669 -0.9893 -1.5976
 9770TIP3   OH253504   5.833   0.664  10.420 -0.4249  0.5689  0.3616
 9770TIP3    H153505   5.864   0.754  10.422  2.4289 -0.3113  1.5848
 9770TIP3    H253506   5.798   0.649  10.508 -3.4193  1.1673 -0.6290
 9771TIP3   OH253507   3.929   6.286   8.968 -0.6570 -0.0460  0.3794
 9771TIP3    H153508   3.886   6.221   8.912  0.4135 -0.3553 -0.1155
 9771TIP3    H253509   3.927   6.247   9.055 -0.2935 -0.6126  0.1402
 9772TIP3   OH253510   3.274   6.171  12.210  0.2149  0.0361  0.5199
 9772TIP3    H153511   3.331   6.244  12.234  0.2380  0.4431 -0.6757
 9772TIP3    H253512   3.190   6.193  12.248  0.4227  0.3014  0.8324
 9773TIP3   OH253513   0.170   1.504  10.494 -0.0944 -0.1930  0.2585
 9773TIP3    H153514   0.244   1.451  10.523  0.7051  1.2202  0.9503
 9773TIP3    H253515   0.115   1.444  10.444  2.1265 -1.0582 -1.3584
 9774TIP3   OH253516   1.614   1.270  10.182  0.0896 -0.1110  0.0059
 9774TIP3    H153517   1.648   1.207  10.119  2.4384  0.3886  0.6916
 9774TIP3    H253518   1.522   1.281  10.158  0.1728 -2.1492 -1.4556
 9775TIP3   OH253519   3.810   2.498   9.337  0.3270 -0.2665 -0.1801
 9775TIP3    H153520   3.759   2.417   9.337  0.1960 -0.1834 -0.3940
 9775TIP3    H253521   3.851   2.501   9.251  0.0612  0.0630 -0.2979
 9776TIP3   OH253522   3.093   6.290  11.508 -0.2474 -0.1875  0.0168
 9776TIP3    H153523   3.052   6.373  11.530 -0.1172  0.0399 -0.5812
 9776TIP3    H253524   3.022   6.226  11.514 -0.6927  0.1955 -0.9590
 9777TIP3   OH253525   0.457   1.024   9.221 -0.2176 -0.0664 -0.2647
 9777TIP3    H153526   0.472   1.047   9.130 -0.6610  0.2425 -0.2649
 9777TIP3    H253527   0.454   1.107   9.268  2.0510 -0.2917  0.3799
 9778TIP3   OH253528   6.007   4.751   8.770  0.4425 -0.4938 -0.0571
 9778TIP3    H153529   5.939   4.815   8.754  1.0245  0.4036  0.9430
 9778TIP3    H253530   5.990   4.719   8.858  1.4278 -0.1053  0.2863
 9779TIP3   OH253531   5.063   4.550  10.156 -0.8950 -0.4656  0.0217
 9779TIP3    H153532   5.028   4.548  10.245 -1.8221  1.4739 -0.2527
 9779TIP3    H253533   5.103   4.636  10.148  0.0435 -0.9818 -1.1479
 9780TIP3   OH253534   2.855   1.650   9.294 -0.5407  0.4535  0.3769
 9780TIP3    H153535   2.790   1.595   9.338 -0.5076  0.0100 -0.1170
 9780TIP3    H253536   2.879   1.601   9.216 -0.0370  0.8819  0.2541
 9781TIP3   OH253537   1.810   4.636   8.650 -0.4214 -0.7010 -0.5260
 9781TIP3    H153538   1.754   4.653   8.575  0.4950  1.0454 -0.8674
 9781TIP3    H253539   1.885   4.588   8.615  0.4909  0.9686 -0.9791
 9782TIP3   OH253540   2.731   4.023  11.172 -0.6890 -0.1955 -0.7796
 9782TIP3    H153541   2.659   4.050  11.114 -0.8356  0.9595 -0.1084
 9782TIP3    H253542   2.810   4.052  11.127 -0.8182  0.9701 -0.3073
 9783TIP3   OH253543   2.636   4.711   8.683 -0.2095 -0.4902  0.2458
 9783TIP3    H153544   2.604   4.781   8.626 -2.5911 -1.0636  0.7717
 9783TIP3    H253545   2.675   4.757   8.757 -2.0481  0.3756  0.7526
 9784TIP3   OH253546   5.310   3.219   9.451  0.0019 -0.0080  0.0190
 9784TIP3    H153547   5.405   3.212   9.453 -0.0511 -0.6147  1.4362
 9784TIP3    H253548   5.278   3.134   9.482 -0.9380  0.9271  1.8117
 9785TIP3   OH253549   1.100   1.193  10.128 -0.1199  0.6957 -0.1643
 9785TIP3    H153550   1.045   1.117  10.111  0.2567  0.3515  0.1411
 9785TIP3    H253551   1.183   1.173  10.084  0.6283  0.0928  1.4589
 9786TIP3   OH253552   0.016   3.424   9.798  0.1644 -0.2963  0.4717
 9786TIP3    H153553   0.053   3.503   9.760  2.6724 -2.6013 -2.4351
 9786TIP3    H253554   0.067   3.409   9.877 -0.9792  1.3743  1.5926
 9787TIP3   OH253555   4.158   1.034  10.619  0.4890  0.6116 -0.3545
 9787TIP3    H153556   4.118   1.095  10.557  0.4045  0.3517 -0.5599
 9787TIP3    H253557   4.238   1.005  10.575 -0.5133 -1.0370 -1.2019
 9788TIP3   OH253558   1.726   4.437  10.510  0.3205  0.3507 -0.0837
 9788TIP3    H153559   1.686   4.510  10.462  0.8300  0.6561 -0.0582
 9788TIP3    H253560   1.697   4.449  10.601 -0.7057 -0.2712 -0.3134
 9789TIP3   OH253561   3.275   4.847   9.726  0.5789 -0.0425  0.2423
 9789TIP3    H153562   3.292   4.761   9.764 -0.8174  0.3582  1.8892
 9789TIP3    H253563   3.311   4.909   9.789  0.1194  0.6072 -0.1199
 9790TIP3   OH253564   1.629   2.866  10.749  0.0570 -0.0147  0.1820
 9790TIP3    H153565   1.716   2.841  10.720  0.1530  0.0066  0.4480
 9790TIP3    H253566   1.613   2.951  10.709  1.8620  2.0364  3.3979
 9791TIP3   OH253567   4.788   2.900   8.527  0.3324  0.0188 -0.2780
 9791TIP3    H153568   4.706   2.947   8.542  0.1845 -1.0253  2.8214
 9791TIP3    H253569   4.845   2.964   8.484 -1.0613  1.8017  0.4061
 9792TIP3   OH253570   1.944   0.910  11.500 -0.1351  0.2879  1.0375
 9792TIP3    H153571   2.004   0.944  11.432 -0.8369  0.0890  0.3030
 9792TIP3    H253572   1.987   0.932  11.582 -0.7960  3.5776  0.6650
 9793TIP3   OH253573   4.670   5.277   9.050  0.5567  0.3642 -0.5126
 9793TIP3    H153574   4.609   5.318   9.112  1.0813 -0.4381  0.5865
 9793TIP3    H253575   4.647   5.314   8.965 -2.9160 -1.4436 -0.5446
 9794TIP3   OH253576   0.587   4.985  10.624 -0.2483 -0.4396 -0.1102
 9794TIP3    H153577   0.633   4.904  10.600 -1.6208 -0.8412 -1.5377
 9794TIP3    H253578   0.626   5.052  10.568  2.7882  0.5971  2.8958
 9795TIP3   OH253579   1.569   6.534  10.213 -0.1762 -0.2200  0.1594
 9795TIP3    H153580   1.532   6.606  10.162  0.2943  0.8124  1.2507
 9795TIP3    H253581   1.634   6.494  10.155 -0.7028 -0.0293 -0.5849
 9796TIP3   OH253582   6.497   0.603   8.336  0.2291  0.6735  0.6240
 9796TIP3    H153583   6.539   0.675   8.383  2.1785  0.0047 -0.0261
 9796TIP3    H253584   6.562   0.534   8.334 -0.9065 -0.4209 -0.4612
 9797TIP3   OH253585   3.405   5.165   9.084 -0.0813  0.0985 -0.5025
 9797TIP3    H153586   3.472   5.214   9.037  0.4729 -1.0100 -0.8959
 9797TIP3    H253587   3.325   5.178   9.033  0.5723 -1.3366 -1.9694
 9798TIP3   OH253588   0.473   3.488   8.629 -0.6551  0.4546 -0.3410
 9798TIP3    H153589   0.431   3.544   8.694 -2.9624 -0.9360 -0.5129
 9798TIP3    H253590   0.485   3.404   8.674  5.6908  1.6319  1.0161
 9799TIP3   OH253591   3.973   0.792  10.000  0.3316  0.0030 -0.2859
 9799TIP3    H153592   3.908   0.862   9.991  1.3923  1.0410 -0.2165
 9799TIP3    H253593   3.964   0.762  10.091  0.1136  0.3186 -0.2027
 9800TIP3   OH253594   2.110   1.154   9.748 -0.1319  0.0728 -0.0801
 9800TIP3    H153595   2.072   1.157   9.660 -1.5994 -2.0540  0.4164
 9800TIP3    H253596   2.088   1.067   9.781  1.0340  0.5465  2.1267
 9801TIP3   OH253597   0.586   6.197  11.154  1.0657  0.0727  0.0262
 9801TIP3    H153598   0.513   6.172  11.098 -0.1228  0.4921  1.3515
 9801TIP3    H253599   0.662   6.195  11.096  0.3307 -2.1588 -0.9679
 9802TIP3   OH253600   1.612   4.268  10.234 -0.3282 -0.4643 -0.0573
 9802TIP3    H153601   1.576   4.279  10.323 -1.9809 -0.0884 -0.7228
 9802TIP3    H253602   1.700   4.304  10.240 -0.7725  0.5341  1.2022
 9803TIP3   OH253603   1.275   4.183  11.865  0.0220  0.1206  0.5043
 9803TIP3    H153604   1.355   4.235  11.863  0.2544 -0.2186  0.8720
 9803TIP3    H253605   1.205   4.247  11.877  0.2684  0.3881  0.5197
 9804TIP3   OH253606   0.139   5.280   8.661  0.5252 -0.6856 -0.5867
 9804TIP3    H153607   0.114   5.372   8.670 -1.5412 -1.2011 -0.4407
 9804TIP3    H253608   0.097   5.252   8.579  0.1667 -1.7569 -0.0663
 9805TIP3   OH253609   3.030   1.453   9.758 -0.0742  0.1304 -0.2998
 9805TIP3    H153610   3.009   1.448   9.665 -0.7449 -1.2123 -0.1052
 9805TIP3    H253611   2.955   1.411   9.802  0.2645  0.6689  0.8331
 9806TIP3   OH253612   0.346   6.452   9.089  0.6273 -0.0635  0.2039
 9806TIP3    H153613   0.273   6.500   9.130  0.3790 -0.7852  0.6186
 9806TIP3    H253614   0.354   6.491   9.002 -0.7351 -0.4526 -0.1221
 9807TIP3   OH253615   4.900   1.400  10.917 -0.3309 -0.3881 -0.1720
 9807TIP3    H153616   4.948   1.317  10.912  1.5615  0.6797 -0.9060
 9807TIP3    H253617   4.967   1.464  10.940 -1.6319  1.0412 -0.2663
 9808TIP3   OH253618   1.855   3.774   8.880 -0.4620  0.5568 -0.4519
 9808TIP3    H153619   1.776   3.729   8.912  0.7668 -0.8759  0.6907
 9808TIP3    H253620   1.849   3.862   8.918 -0.1773 -0.4024  1.9848
 9809TIP3   OH253621   0.912   2.907   8.840  0.5816 -0.2063 -0.1123
 9809TIP3    H153622   0.912   2.982   8.900  0.8903  0.0265 -0.3989
 9809TIP3    H253623   0.925   2.946   8.753 -1.1049 -0.4105 -0.4877
 9810TIP3   OH253624   6.306   5.891  10.492 -0.2726 -0.4407  0.3592
 9810TIP3    H153625   6.297   5.877  10.586  1.5585 -0.4461  0.5728
 9810TIP3    H253626   6.390   5.935  10.482 -0.9755  0.6501 -1.1970
 9811TIP3   OH253627   4.235   1.373   9.755 -0.4148  0.3733 -0.2693
 9811TIP3    H153628   4.296   1.410   9.819 -0.2808 -0.8477  0.3410
 9811TIP3    H253629   4.153   1.420   9.771  0.3027  1.9607 -1.0285
 9812TIP3   OH253630   0.586   5.260  10.249 -0.6755  0.0004  0.1535
 9812TIP3    H153631   0.562   5.350  10.228 -0.7861  0.1595  0.9029
 9812TIP3    H253632   0.502   5.218  10.272 -0.7640 -0.5741 -1.1349
 9813TIP3   OH253633   5.016   4.939   8.988  0.1322  0.4529 -0.0183
 9813TIP3    H153634   5.110   4.935   8.971 -0.0478  0.3293 -1.0301
 9813TIP3    H253635   5.009   4.937   9.084  1.1519  0.4261  0.0660
 9814TIP3   OH253636   4.602   2.950  10.813  0.6342 -0.0942  0.0397
 9814TIP3    H153637   4.649   2.867  10.822 -0.7647 -0.8563  0.7084
 9814TIP3    H253638   4.554   2.941  10.731  1.0304  0.3577 -0.2463
 9815TIP3   OH253639   4.641   0.950  10.469  0.0561 -0.4497  0.2492
 9815TIP3    H153640   4.682   0.942  10.555 -0.4966  0.1699  0.5742
 9815TIP3    H253641   4.660   1.040  10.442  1.7405 -1.1235 -1.0664
 9816TIP3   OH253642   2.274   6.339   9.954  0.5944  0.0807 -0.5207
 9816TIP3    H153643   2.186   6.351   9.918  0.2571 -0.4449  0.1098
 9816TIP3    H253644   2.285   6.244   9.960  0.8753  0.1532  0.1995
 9817TIP3   OH253645   5.907   6.388   9.659  0.6999 -0.3449 -0.4907
 9817TIP3    H153646   5.997   6.361   9.676  0.1069 -0.8617  2.1356
 9817TIP3    H253647   5.870   6.406   9.745 -1.3521  1.1402 -1.5920
 9818TIP3   OH253648   5.131   4.929   8.596  0.2209 -1.0748 -1.0057
 9818TIP3    H153649   5.200   4.930   8.661 -1.0175 -1.7893  0.3815
 9818TIP3    H253650   5.063   4.986   8.632  0.0514 -0.4074 -2.3229
 9819TIP3   OH253651   2.696   0.307  11.581 -0.4222  0.3859  0.3017
 9819TIP3    H153652   2.736   0.383  11.623 -0.5134  0.7732 -0.3045
 9819TIP3    H253653   2.678   0.247  11.653  1.7110 -0.0319  0.5536
 9820TIP3   OH253654   4.563   4.347  10.749  0.0295  0.3065 -0.2514
 9820TIP3    H153655   4.627   4.383  10.688  0.0925  0.1685 -0.2668
 9820TIP3    H253656   4.507   4.292  10.695 -1.2779  1.8946 -0.6093
 9821TIP3   OH253657   2.697   1.996  10.069 -0.0111 -0.4099  0.0630
 9821TIP3    H153658   2.616   2.035  10.035 -2.0789 -3.2514  1.3369
 9821TIP3    H253659   2.706   2.032  10.157 -1.5890 -2.1538  1.0126
 9822TIP3   OH253660   0.420   0.820   9.779 -0.2647  0.8371 -0.0593
 9822TIP3    H153661   0.457   0.751   9.725 -0.4772 -1.6162  2.6517
 9822TIP3    H253662   0.497   0.868   9.812 -0.0092  0.8964 -0.7296
 9823TIP3   OH253663   2.146   0.750  10.275 -0.6013  0.5402  0.5689
 9823TIP3    H153664   2.165   0.662  10.307  1.1549  0.9146  0.6900
 9823TIP3    H253665   2.079   0.783  10.334  0.7021  0.2528  2.2955
 9824TIP3   OH253666   1.318   3.930   9.284 -1.1428 -0.1194  0.5673
 9824TIP3    H153667   1.239   3.909   9.333 -0.9040 -0.5806  0.7694
 9824TIP3    H253668   1.377   3.970   9.348 -1.5020  0.9768  0.2380
 9825TIP3   OH253669   1.945   5.771   9.519  0.1844  0.5402 -0.1739
 9825TIP3    H153670   1.911   5.859   9.536 -0.0110  0.5359 -0.5433
 9825TIP3    H253671   1.966   5.771   9.426 -0.3623  0.0098 -0.2981
 9826TIP3   OH253672   6.261   2.520  12.033  0.2794  0.4269  0.2638
 9826TIP3    H153673   6.274   2.428  12.056  2.5996  0.8042  0.6943
 9826TIP3    H253674   6.242   2.519  11.939 -1.9864 -0.6099  0.6766
 9827TIP3   OH253675   5.295   4.107   8.990  0.3289  0.2067 -0.0646
 9827TIP3    H153676   5.280   4.176   8.926 -1.6673 -0.0963  0.0284
 9827TIP3    H253677   5.369   4.057   8.954 -0.8327 -0.0694 -2.2446
 9828TIP3   OH253678   5.727   2.862  11.061  0.6099 -0.0045 -0.3575
 9828TIP3    H153679   5.776   2.853  11.143 -0.8512 -2.3074  0.3820
 9828TIP3    H253680   5.785   2.826  10.994  0.4479 -1.6074  0.3122
 9829TIP3   OH253681   0.652   1.456  10.645 -0.2861  0.1102 -0.0147
 9829TIP3    H153682   0.685   1.420  10.727  1.8447  2.0136  0.0612
 9829TIP3    H253683   0.719   1.433  10.580 -2.6521 -2.7281 -1.6965
 9830TIP3   OH253684   0.628   2.163  10.513 -0.2867 -0.3714 -0.2429
 9830TIP3    H153685   0.567   2.165  10.440  0.0650  4.5476 -0.7416
 9830TIP3    H253686   0.583   2.208  10.584  1.1777 -0.5829  0.8889
 9831TIP3   OH253687   5.452   3.254  10.421  0.1369  0.0769 -0.2426
 9831TIP3    H153688   5.511   3.268  10.495  0.2153  1.1388 -0.5015
 9831TIP3    H253689   5.471   3.164  10.393  0.9143  0.0531  0.3138
 9832TIP3   OH253690   0.064   6.440  10.158 -0.4138  0.2543 -0.7025
 9832TIP3    H153691  -0.018   6.488  10.171 -0.1274  0.6050 -0.1099
 9832TIP3    H253692   0.096   6.425  10.247  0.2107  0.2040 -0.9331
 9833TIP3   OH253693   5.437   6.318   9.009  0.4224  0.1951 -0.0215
 9833TIP3    H153694   5.521   6.335   8.966  1.3772 -1.1293  1.2422
 9833TIP3    H253695   5.381   6.391   8.982  2.2000  1.5079 -0.3137
 9834TIP3   OH253696   0.229   4.965  10.100  0.3261  0.2070 -0.0948
 9834TIP3    H153697   0.315   4.960  10.058  0.4462 -2.1084  0.2871
 9834TIP3    H253698   0.167   4.948  10.030  0.3209 -0.2336  0.0140
 9835TIP3   OH253699   4.019   1.598  12.273 -0.1518  0.5154  0.3861
 9835TIP3    H153700   3.961   1.671  12.255  0.1588  0.5924 -0.3280
 9835TIP3    H253701   4.097   1.615  12.220  0.5505  0.4357  1.3507
 9836TIP3   OH253702   2.378   1.112  10.016  0.1348  0.3802  0.1424
 9836TIP3    H153703   2.354   1.031   9.971 -0.0684  1.1067 -1.0827
 9836TIP3    H253704   2.474   1.112  10.015  0.1415 -0.0183  0.4781
 9837TIP3   OH253705   1.853   5.099   8.701 -0.2758 -0.6279 -0.3224
 9837TIP3    H153706   1.840   5.108   8.606 -1.3124  0.0514 -0.1277
 9837TIP3    H253707   1.906   5.175   8.725 -2.9638  1.2268  0.1641
 9838TIP3   OH253708   0.800   2.542   9.857  0.2072 -0.1516 -0.1672
 9838TIP3    H153709   0.773   2.631   9.880  0.9353 -0.3507  1.6390
 9838TIP3    H253710   0.895   2.542   9.872  0.1799 -1.2754  0.0563
 9839TIP3   OH253711   5.751   5.837   8.898  0.7096  0.2720 -0.3935
 9839TIP3    H153712   5.789   5.925   8.907  1.0640  0.2216 -1.2358
 9839TIP3    H253713   5.772   5.792   8.979  0.3404  1.0348  0.1347
 9840TIP3   OH253714   1.540   5.824  10.475 -0.0119  0.2871  0.5143
 9840TIP3    H153715   1.593   5.759  10.429 -0.8127 -0.5257  0.7101
 9840TIP3    H253716   1.450   5.804  10.450 -0.2614  1.4424  0.4419
 9841TIP3   OH253717   0.511   4.613   8.416  0.2144  0.3976 -0.3206
 9841TIP3    H153718   0.502   4.632   8.509  1.2689  1.6917 -0.4418
 9841TIP3    H253719   0.507   4.518   8.409 -0.7935  0.3332  0.9282
 9842TIP3   OH253720   2.054   3.945  10.803  0.5934  0.0913  0.4118
 9842TIP3    H153721   2.112   3.916  10.874 -0.6855 -0.8789  1.1099
 9842TIP3    H253722   2.023   3.864  10.763 -1.4662  0.4865  1.0728
 9843TIP3   OH253723   4.363   4.683  11.905  0.0563  0.4779  0.0260
 9843TIP3    H153724   4.312   4.602  11.906  0.2972  0.2904  2.3357
 9843TIP3    H253725   4.452   4.656  11.929  0.3738  1.3003 -0.1848
 9844TIP3   OH253726   1.123   4.243   9.521  0.1711 -0.2993  0.4911
 9844TIP3    H153727   1.082   4.247   9.607 -1.8412 -1.2152 -0.3534
 9844TIP3    H253728   1.086   4.164   9.480  0.6828  0.3649 -1.3761
 9845TIP3   OH253729   1.349   5.811   9.431 -0.0063  0.6803 -0.2386
 9845TIP3    H153730   1.425   5.753   9.433 -0.6485 -0.1987 -0.6732
 9845TIP3    H253731   1.356   5.862   9.511  0.1344 -0.5914  0.5877
 9846TIP3   OH253732   3.239   6.079  11.340 -0.6157  0.4910  0.0759
 9846TIP3    H153733   3.204   6.152  11.391  1.1435  1.3545  0.1512
 9846TIP3    H253734   3.247   6.008  11.403  0.3106  1.1481  0.7348
 9847TIP3   OH253735   1.679   3.304  10.063  0.3903 -0.4545  0.0658
 9847TIP3    H153736   1.675   3.210  10.080 -1.4741 -0.3250  0.5373
 9847TIP3    H253737   1.623   3.343  10.129 -0.0322  0.8521 -1.0137
 9848TIP3   OH253738   3.694   3.104  10.008  0.5772 -0.0005  0.2860
 9848TIP3    H153739   3.781   3.124  10.042  0.7702  1.6836 -1.0581
 9848TIP3    H253740   3.638   3.174  10.040  0.2664  0.2910 -0.8325
 9849TIP3   OH253741   2.931   4.688   9.868 -0.2103  0.4868  0.1094
 9849TIP3    H153742   2.970   4.774   9.852 -0.6492  0.4076 -1.5303
 9849TIP3    H253743   2.990   4.626   9.826  0.3272 -0.0939  1.6390
 9850TIP3   OH253744   5.160   2.970  10.238  0.3696 -0.0623 -0.0022
 9850TIP3    H153745   5.174   2.925  10.321  1.5424  0.8882  0.3514
 9850TIP3    H253746   5.226   2.933  10.179  1.5804  1.3456  0.3878
 9851TIP3   OH253747   4.692   3.511  10.480  0.3883  0.3150  0.3896
 9851TIP3    H153748   4.741   3.445  10.529  0.8605  0.2697 -0.1346
 9851TIP3    H253749   4.606   3.472  10.466  0.9970 -0.6546 -0.8483
 9852TIP3   OH253750   4.608   5.664   9.215  0.5183  0.4877  0.2438
 9852TIP3    H153751   4.622   5.739   9.272  0.4705  1.2438 -0.7013
 9852TIP3    H253752   4.555   5.698   9.143 -1.5166 -0.9970  0.9416
 9853TIP3   OH253753   6.408   0.260   9.283  0.1934 -0.4086 -1.0488
 9853TIP3    H153754   6.492   0.219   9.301  0.2441 -0.2287 -0.8645
 9853TIP3    H253755   6.420   0.307   9.201  0.5865  0.4584 -0.5149
 9854TIP3   OH253756   2.060   4.510   8.962 -1.0668  0.3117  0.2275
 9854TIP3    H153757   2.039   4.438   8.903  0.1629  1.3606 -1.6070
 9854TIP3    H253758   2.108   4.469   9.034 -2.5399 -0.9885  0.5227
 9855TIP3   OH253759   4.597   2.400  10.304  0.2430  0.1971  0.2902
 9855TIP3    H153760   4.630   2.423  10.218 -0.3698  2.1884  0.5454
 9855TIP3    H253761   4.537   2.326  10.288  2.6572 -1.7225 -0.4922
 9856TIP3   OH253762   0.279   4.183   9.111  0.2468 -0.6465 -0.2147
 9856TIP3    H153763   0.301   4.161   9.021 -2.8742  0.4715 -1.3999
 9856TIP3    H253764   0.297   4.277   9.118  0.7404 -0.7791  0.4512
 9857TIP3   OH253765   0.591   3.719   8.513 -0.3398 -0.2657  0.1803
 9857TIP3    H153766   0.572   3.785   8.580  1.4324  0.7503 -0.2378
 9857TIP3    H253767   0.548   3.639   8.544 -2.4418  1.0229  0.7810
 9858TIP3   OH253768   3.983   4.507   9.920 -0.2614  0.0519 -0.0640
 9858TIP3    H153769   3.961   4.592   9.959  1.8119  1.2315 -1.3195
 9858TIP3    H253770   4.043   4.467   9.982 -0.4285 -0.0404  0.0386
 9859TIP3   OH253771   3.606   2.708   9.016 -0.2959 -0.7991  0.5450
 9859TIP3    H153772   3.557   2.720   8.934 -0.1296  0.6314  0.6333
 9859TIP3    H253773   3.652   2.791   9.029  0.6027 -1.4246  1.4951
 9860TIP3   OH253774   6.564   2.365  11.824 -0.8218  0.2617  0.3354
 9860TIP3    H153775   6.600   2.284  11.862  0.0488  0.5223  0.0825
 9860TIP3    H253776   6.469   2.356  11.835 -0.8956 -1.5714 -1.2201
 9861TIP3   OH253777   1.595   1.638   8.360 -0.2402  0.0872  0.1149
 9861TIP3    H153778   1.506   1.602   8.358 -0.2477  0.0396  0.8482
 9861TIP3    H253779   1.608   1.664   8.451  0.3684  0.4327 -0.0641
 9862TIP3   OH253780   5.344   4.227  11.857  0.1279 -0.0135 -0.1531
 9862TIP3    H153781   5.269   4.224  11.916  0.0962  1.2089 -0.1083
 9862TIP3    H253782   5.405   4.163  11.893 -0.8703 -1.0317 -0.1867
 9863TIP3   OH253783   1.822   2.126   8.389 -0.4397 -0.3455 -0.2585
 9863TIP3    H153784   1.826   2.046   8.442 -2.1043 -0.9009 -0.9020
 9863TIP3    H253785   1.913   2.142   8.363  0.4455 -0.0125  2.7616
 9864TIP3   OH253786   4.153   1.128   9.868 -0.0213  0.3068 -0.1937
 9864TIP3    H153787   4.137   1.050   9.815 -0.5900 -0.5743  1.2259
 9864TIP3    H253788   4.161   1.199   9.804 -2.8434 -0.3356 -1.3820
 9865TIP3   OH253789   2.752   4.625  11.927  0.6231  0.3662 -0.2503
 9865TIP3    H153790   2.755   4.542  11.879  1.2662 -0.2092  0.7391
 9865TIP3    H253791   2.807   4.609  12.004 -1.3019  0.8556  1.2977
 9866TIP3   OH253792   2.659   1.616   9.515 -0.5365 -0.1137  0.6768
 9866TIP3    H153793   2.603   1.582   9.446  1.8063  0.4861 -1.6868
 9866TIP3    H253794   2.599   1.658   9.577 -2.7424 -0.6960 -0.9522
 9867TIP3   OH253795   4.843   4.422   8.860 -0.4082 -0.0330  0.0435
 9867TIP3    H153796   4.893   4.394   8.937 -1.7696  1.1121  1.4266
 9867TIP3    H253797   4.903   4.412   8.787  2.1795  2.0488  1.7138
 9868TIP3   OH253798   5.715   5.136  11.449  1.0159 -0.0535  0.4773
 9868TIP3    H153799   5.756   5.050  11.443  1.5131 -0.0051  2.6547
 9868TIP3    H253800   5.680   5.140  11.537 -0.0105  1.5591  0.0345
 9869TIP3   OH253801   3.482   2.383   9.591 -0.2193 -0.3333 -0.2760
 9869TIP3    H153802   3.556   2.378   9.530  1.5205 -0.3067  1.7070
 9869TIP3    H253803   3.523   2.399   9.677 -2.5646 -0.0178  0.8647
 9870TIP3   OH253804   6.411   0.793   8.620  0.6390  0.1512 -0.3431
 9870TIP3    H153805   6.439   0.701   8.628 -0.8858 -0.3264 -0.2958
 9870TIP3    H253806   6.483   0.836   8.574  1.0127 -1.2504 -1.1122
 9871TIP3   OH253807   4.045   3.144   9.293 -0.4574  0.0210 -0.0170
 9871TIP3    H153808   3.972   3.130   9.233  1.2938  0.5929 -2.3999
 9871TIP3    H253809   4.061   3.058   9.332 -1.1012 -0.5786 -1.0398
 9872TIP3   OH253810   6.466   5.113   9.847 -0.5767  0.4131  0.1531
 9872TIP3    H153811   6.478   5.207   9.859  0.0423  0.1993  1.2819
 9872TIP3    H253812   6.548   5.074   9.876 -0.5201 -0.4423 -1.0410
 9873TIP3   OH253813   0.784   1.890  10.646  0.1451 -0.2145  0.4152
 9873TIP3    H153814   0.728   1.866  10.720 -0.3347  0.1593  0.1777
 9873TIP3    H253815   0.869   1.852  10.667  0.3959  1.0335  1.8205
 9874TIP3   OH253816   1.295   5.575  10.546 -0.1226  0.3991  0.2406
 9874TIP3    H153817   1.285   5.631  10.470  1.0893 -3.1539 -2.8515
 9874TIP3    H253818   1.248   5.495  10.523 -0.8694 -0.3973  3.8954
 9875TIP3   OH253819   4.966   0.356   9.218  0.4255  0.3171 -0.1982
 9875TIP3    H153820   4.968   0.411   9.139  1.1230  0.7142  0.0797
 9875TIP3    H253821   4.999   0.271   9.189  1.4724  0.6996 -0.1783
 9876TIP3   OH253822   5.834   3.979  10.326  0.2406 -0.4648 -0.0391
 9876TIP3    H153823   5.923   3.943  10.335  0.5078 -0.4631 -2.2073
 9876TIP3    H253824   5.783   3.909  10.286 -0.2622  0.1562 -0.5180
 9877TIP3   OH253825   4.331   1.228  11.098 -0.1401  0.1427 -0.0153
 9877TIP3    H153826   4.255   1.263  11.053 -0.1032  1.2759  0.7665
 9877TIP3    H253827   4.296   1.189  11.178 -0.0156 -0.3753 -0.2061
 9878TIP3   OH253828   1.631   2.840   9.784 -0.0677 -0.7067  0.1471
 9878TIP3    H153829   1.570   2.767   9.773 -1.5412  0.1134  2.3374
 9878TIP3    H253830   1.715   2.805   9.754 -1.6082 -1.6421 -3.8012
 9879TIP3   OH253831   1.307   0.868   8.420 -0.6504  0.0054  0.0108
 9879TIP3    H153832   1.401   0.858   8.402 -0.9861 -1.5126 -1.1285
 9879TIP3    H253833   1.287   0.959   8.397  0.6352  0.4876  0.7454
 9880TIP3   OH253834   1.303   5.291   8.758 -0.1611 -0.1435 -0.4693
 9880TIP3    H153835   1.280   5.209   8.715  0.6741 -0.3730 -0.4888
 9880TIP3    H253836   1.224   5.314   8.808 -0.5673 -0.7088 -0.8387
 9881TIP3   OH253837   1.425   1.821   9.627 -0.7980 -0.0843  0.0099
 9881TIP3    H153838   1.470   1.794   9.707 -0.4346 -0.8089 -0.4258
 9881TIP3    H253839   1.336   1.841   9.655 -0.3196  1.0009  0.8235
 9882TIP3   OH253840   5.126   3.548   9.307  0.7139  0.2084  0.1261
 9882TIP3    H153841   5.063   3.505   9.365  0.9454  0.6404  0.7132
 9882TIP3    H253842   5.138   3.487   9.234  0.2028 -0.2193  0.3954
 9883TIP3   OH253843   4.604   0.753  11.770  0.0018 -0.2141 -0.1654
 9883TIP3    H153844   4.534   0.816  11.784  0.7728  0.8624 -0.9973
 9883TIP3    H253845   4.605   0.699  11.850 -2.7501 -1.2697 -0.7637
 9884TIP3   OH253846   0.554   3.742  10.495 -0.0931 -0.2005 -0.0117
 9884TIP3    H153847   0.595   3.828  10.483 -1.3106  0.5369  0.7690
 9884TIP3    H253848   0.620   3.679  10.467  0.8966  0.9877 -0.4416
 9885TIP3   OH253849   0.907   3.879  11.573  0.2304 -0.2348  0.1501
 9885TIP3    H153850   0.876   3.895  11.663  2.7447  1.4018  0.8124
 9885TIP3    H253851   0.895   3.785  11.561 -2.4040 -0.1421  1.2551
 9886TIP3   OH253852   1.695   3.774  11.044 -0.1244 -0.4422  0.3773
 9886TIP3    H153853   1.723   3.720  10.970  0.0544 -0.6717  0.6130
 9886TIP3    H253854   1.631   3.834  11.006  1.3407  0.7175 -0.3605
 9887TIP3   OH253855   6.533   2.858   9.226  0.0460  0.5145 -0.2894
 9887TIP3    H153856   6.469   2.925   9.204 -0.6600 -0.3461 -0.9606
 9887TIP3    H253857   6.516   2.787   9.163 -2.1759 -2.2075  3.0045
 9888TIP3   OH253858   5.921   4.744   9.585 -0.2943  0.3300 -0.9430
 9888TIP3    H153859   5.942   4.818   9.643  1.7815 -0.0818 -1.1087
 9888TIP3    H253860   5.867   4.687   9.639  1.9582 -0.2701  0.8588
 9889TIP3   OH253861   1.639   2.973  11.869  0.5048  0.2214  0.3509
 9889TIP3    H153862   1.647   3.041  11.802  1.5886 -0.9912 -0.8056
 9889TIP3    H253863   1.700   3.000  11.938 -0.1480  1.1550  0.5752
 9890TIP3   OH253864   2.160   6.535   8.558  0.0282 -0.2642 -0.3696
 9890TIP3    H153865   2.115   6.456   8.587  1.2414 -1.7350 -2.2956
 9890TIP3    H253866   2.105   6.571   8.488  0.8846 -1.0666 -1.4907
 9891TIP3   OH253867   0.626   1.991  12.481  0.1753  0.6441 -0.5890
 9891TIP3    H153868   0.600   1.914  12.430  0.1632  0.1524  0.1533
 9891TIP3    H253869   0.548   2.047  12.480  0.2849  0.8028 -1.3881
 9892TIP3   OH253870   5.470   5.874  10.895  0.0654  0.0563  0.3211
 9892TIP3    H153871   5.384   5.903  10.865  0.1998  1.2582  1.0049
 9892TIP3    H253872   5.532   5.923  10.840  0.3112 -0.0589  0.4908
 9893TIP3   OH253873   3.327   2.164  11.169  0.3221  0.5977 -0.2934
 9893TIP3    H153874   3.414   2.200  11.187  0.0889  1.5501 -0.9847
 9893TIP3    H253875   3.316   2.176  11.074 -0.4117  0.1505 -0.2664
 9894TIP3   OH253876   0.658   5.057  11.676  0.2321  0.9004  0.0490
 9894TIP3    H153877   0.591   5.050  11.608  0.3948  0.0176 -0.0324
 9894TIP3    H253878   0.717   5.126  11.645  0.3057  0.5035 -0.7144
 9895TIP3   OH253879   4.923   4.735  11.328 -0.3719  0.6033  0.0827
 9895TIP3    H153880   4.950   4.650  11.361  1.2623  1.1867  0.3657
 9895TIP3    H253881   4.828   4.728  11.317 -0.3537 -1.0298  0.6871
 9896TIP3   OH253882   2.827   0.085  12.270 -0.0131 -0.1849 -0.1547
 9896TIP3    H153883   2.890   0.044  12.330  1.1929 -0.6222 -1.6557
 9896TIP3    H253884   2.844   0.179  12.279 -0.6031 -0.1650  0.9603
 9897TIP3   OH253885   3.228   5.712  10.478  0.1319 -0.4638  0.5591
 9897TIP3    H153886   3.258   5.802  10.486  0.7535 -0.7062  1.1066
 9897TIP3    H253887   3.152   5.716  10.421  0.1249  0.4119  0.6241
 9898TIP3   OH253888   3.841   4.802  11.213 -0.4575 -0.1059  0.2428
 9898TIP3    H153889   3.916   4.765  11.260 -0.2496  0.8888  0.7180
 9898TIP3    H253890   3.870   4.810  11.122 -0.7011 -1.6076  0.0103
 9899TIP3   OH253891   4.793   2.722   9.486 -0.1104 -0.1854 -0.3217
 9899TIP3    H153892   4.820   2.789   9.549  0.7013 -2.4277  1.8582
 9899TIP3    H253893   4.874   2.698   9.440 -0.2471 -0.2495 -0.5334
 9900TIP3   OH253894   2.072   3.610   8.524 -0.3999  0.4855 -0.0015
 9900TIP3    H153895   2.049   3.703   8.522  1.5738  1.0402  0.5470
 9900TIP3    H253896   2.009   3.571   8.585 -1.1821  1.4693 -0.1534
 9901TIP3   OH253897   2.006   4.080  11.399 -0.0179  0.1666 -0.6224
 9901TIP3    H153898   1.926   4.112  11.358 -0.3841 -1.2634 -1.0613
 9901TIP3    H253899   2.013   4.131  11.480 -2.1665 -0.6693  0.1681
 9902TIP3   OH253900   3.212   1.036   9.934 -0.0911  0.6231 -0.0106
 9902TIP3    H153901   3.292   1.013   9.886  0.3095  0.2361  0.8135
 9902TIP3    H253902   3.203   1.131   9.921  0.0117  0.5261 -0.8346
 9903TIP3   OH253903   5.725   1.626   9.776  0.1327  0.4802 -0.7833
 9903TIP3    H153904   5.673   1.549   9.802  1.6032 -0.5999 -0.9429
 9903TIP3    H253905   5.687   1.652   9.692 -1.2012  0.7392 -0.1382
 9904TIP3   OH253906   3.842   6.500  11.192  0.0922 -0.3760 -0.1843
 9904TIP3    H153907   3.756   6.466  11.168  0.0874 -0.4949 -0.0022
 9904TIP3    H253908   3.904   6.443  11.147  0.0755  0.8996 -1.9504
 9905TIP3   OH253909   2.103   2.635  11.244 -0.4409 -0.2973  0.0107
 9905TIP3    H153910   2.156   2.591  11.310 -1.7400  0.3230  1.5354
 9905TIP3    H253911   2.107   2.728  11.267 -0.4355  0.0098 -1.1550
 9906TIP3   OH253912   3.883   0.228   9.305 -0.0861 -0.7286  0.1492
 9906TIP3    H153913   3.837   0.145   9.296 -2.2423  0.3662  0.3570
 9906TIP3    H253914   3.845   0.285   9.238  1.5466  0.0390 -0.1853
 9907TIP3   OH253915   5.900   4.916  10.897  0.3399 -0.3500  0.2101
 9907TIP3    H153916   5.916   4.869  10.816 -1.7937 -1.1805  0.1890
 9907TIP3    H253917   5.879   4.847  10.961 -0.0943  0.4018  0.9019
 9908TIP3   OH253918   3.337   0.947   9.713  0.0455 -0.2425 -0.0897
 9908TIP3    H153919   3.334   1.025   9.657  0.0027  0.2041  0.5247
 9908TIP3    H253920   3.429   0.938   9.737 -0.1658  0.5172  1.0685
 9909TIP3   OH253921   2.053   5.782   9.274  0.3997 -0.5354 -0.1659
 9909TIP3    H153922   2.131   5.774   9.219 -0.8453  0.3941 -2.1488
 9909TIP3    H253923   2.069   5.860   9.327  1.0050 -0.6194 -0.2182
 9910TIP3   OH253924   3.099   6.470  10.288  0.0284 -0.1627  0.4019
 9910TIP3    H153925   3.017   6.430  10.316  0.2504 -0.5286  0.5337
 9910TIP3    H253926   3.080   6.505  10.201 -0.6991  1.1092  1.0499
 9911TIP3   OH253927   5.549   0.815  10.642 -0.0493  0.2486  0.2457
 9911TIP3    H153928   5.573   0.839  10.731  1.1925  0.5784 -0.1500
 9911TIP3    H253929   5.457   0.839  10.634  0.0430  0.9640  1.1922
 9912TIP3   OH253930   6.461   1.227  11.756  0.1830  1.0904 -0.5727
 9912TIP3    H153931   6.521   1.240  11.829  0.3781 -0.3250 -0.4480
 9912TIP3    H253932   6.416   1.145  11.776  0.9519  0.1304 -2.4763
 9913TIP3   OH253933   6.601   4.990  10.665 -0.4622  0.5443  0.2560
 9913TIP3    H153934   6.675   5.028  10.617  1.2455  0.6775  2.8239
 9913TIP3    H253935   6.626   4.900  10.681 -2.0968 -0.2163 -1.0531
 9914TIP3   OH253936   3.963   5.772  10.796 -0.3420  0.5457  0.2536
 9914TIP3    H153937   3.911   5.768  10.877  0.0174  0.3315  0.4770
 9914TIP3    H253938   3.936   5.854  10.755 -1.2079  0.2155  0.1251
 9915TIP3   OH253939   1.749   0.311   9.168 -0.0454 -0.4678  0.1353
 9915TIP3    H153940   1.665   0.355   9.153  1.3149  1.9878 -0.9692
 9915TIP3    H253941   1.760   0.253   9.093 -0.2333  0.0844 -0.3249
 9916TIP3   OH253942   4.772   2.030  10.803  0.2005  0.3078  0.5473
 9916TIP3    H153943   4.863   2.004  10.818  0.5264  1.4110  0.5537
 9916TIP3    H253944   4.764   2.115  10.846 -0.4271  0.9063 -0.7116
 9917TIP3   OH253945   2.243   2.838   9.759  0.7397 -0.2745 -0.4518
 9917TIP3    H153946   2.167   2.816   9.705  0.9671 -1.0155 -0.4711
 9917TIP3    H253947   2.281   2.754   9.783  1.4563  0.0864 -0.2943
 9918TIP3   OH253948   2.662   1.460   9.064  0.2549  0.5668 -0.5036
 9918TIP3    H153949   2.666   1.406   9.143 -0.3519 -0.4584 -1.1494
 9918TIP3    H253950   2.600   1.529   9.086  0.2945  0.4448  0.0109
 9919TIP3   OH253951   6.075   6.634   8.699  0.6456 -0.0071  0.3812
 9919TIP3    H153952   6.143   6.667   8.758  0.2191 -0.5769  1.2089
 9919TIP3    H253953   6.004   6.698   8.705  0.8407  0.2531  0.0028
 9920TIP3   OH253954   0.895   5.974   9.789 -0.1900 -0.6066 -0.1128
 9920TIP3    H153955   0.939   5.891   9.772 -0.0553 -0.7506  0.8725
 9920TIP3    H253956   0.963   6.040   9.778 -0.4128 -0.5540 -1.4058
 9921TIP3   OH253957   3.820   2.437  10.896 -0.2064  0.8036  1.1778
 9921TIP3    H153958   3.838   2.531  10.899  0.8668  0.6712 -0.1222
 9921TIP3    H253959   3.738   2.430  10.847 -1.4702  1.1456  3.1307
 9922TIP3   OH253960   5.119   6.474  11.509  0.9006 -0.0769  0.3505
 9922TIP3    H153961   5.207   6.436  11.513  0.8527 -0.1115  1.2490
 9922TIP3    H253962   5.062   6.406  11.545  0.6956  0.4748  1.0995
 9923TIP3   OH253963   4.691   4.886  11.144  0.5836  0.0026 -0.6115
 9923TIP3    H153964   4.733   4.849  11.066  0.5264 -1.8175  0.1694
 9923TIP3    H253965   4.606   4.840  11.149  0.2730  0.6404  0.1105
 9924TIP3   OH253966   2.994   6.517  11.663  0.0973  0.2157 -0.1160
 9924TIP3    H153967   2.937   6.490  11.735 -0.0149  2.0324  0.5286
 9924TIP3    H253968   2.934   6.554  11.597  0.4660  2.8804  0.9025
 9925TIP3   OH253969   3.379   0.758  11.413 -0.1958 -0.3527 -0.5033
 9925TIP3    H153970   3.373   0.726  11.323  0.7045 -2.0174 -0.0004
 9925TIP3    H253971   3.389   0.853  11.404  2.9324 -0.7084 -2.3490
 9926TIP3   OH253972   1.713   0.950  10.302 -0.1400 -0.5133  0.1071
 9926TIP3    H153973   1.744   0.926  10.214 -0.9256  0.4550 -0.4465
 9926TIP3    H253974   1.628   0.991  10.287 -1.7607 -3.0769  1.5718
 9927TIP3   OH253975   1.932   1.156   9.533  0.0503  0.5457  0.0983
 9927TIP3    H153976   1.966   1.160   9.444 -2.0951 -0.2828 -0.8159
 9927TIP3    H253977   1.845   1.194   9.528 -0.7864 -1.0159  1.4660
 9928TIP3   OH253978   4.272   3.391   9.828  0.3103  0.2530 -0.7910
 9928TIP3    H153979   4.299   3.328   9.761  0.1248 -0.8444  0.1301
 9928TIP3    H253980   4.266   3.339   9.908 -1.0822  1.1890 -0.2586
 9929TIP3   OH253981   1.219   2.358   9.892  0.1637 -0.6738 -0.8881
 9929TIP3    H153982   1.251   2.440   9.855 -1.8590  0.4403 -0.2666
 9929TIP3    H253983   1.287   2.333   9.956  1.8718 -0.7005 -2.6112
 9930TIP3   OH253984   0.577   1.257  12.163 -0.0516  0.0384 -0.0054
 9930TIP3    H153985   0.620   1.213  12.236 -1.8188  0.4862  1.3747
 9930TIP3    H253986   0.563   1.188  12.098 -0.6837 -0.9524  1.1360
 9931TIP3   OH253987   2.796   1.290  10.551  0.1464 -0.1229  0.1441
 9931TIP3    H153988   2.848   1.268  10.475  1.1021  1.9356  0.1177
 9931TIP3    H253989   2.749   1.210  10.573 -1.2660 -0.4488 -3.4109
 9932TIP3   OH253990   5.734   3.375  11.085 -0.2947  0.6331  0.3217
 9932TIP3    H153991   5.682   3.321  11.025 -0.4158  1.8222 -0.6732
 9932TIP3    H253992   5.677   3.450  11.104 -0.2421  0.3082  1.9074
 9933TIP3   OH253993   0.844   3.963  11.823 -0.6080  0.1754  0.2754
 9933TIP3    H153994   0.775   3.898  11.828  0.8386 -1.4677 -0.2634
 9933TIP3    H253995   0.883   3.965  11.910 -2.2936  2.3167  1.0867
 9934TIP3   OH253996   3.283   2.668  10.323 -0.3464 -0.2378 -0.1888
 9934TIP3    H153997   3.331   2.675  10.241 -2.1929  0.0928 -1.3139
 9934TIP3    H253998   3.249   2.756  10.339  0.0725 -0.2704  1.0163
 9935TIP3   OH253999   2.376   5.548  12.190 -0.4085  0.3753 -0.5909
 9935TIP3    H154000   2.435   5.621  12.209 -1.2555  1.0478 -0.4646
 9935TIP3    H254001   2.331   5.532  12.273 -0.4289 -0.1065 -0.6934
 9936TIP3   OH254002   5.510   4.313  10.721  0.3289 -0.0384  0.1341
 9936TIP3    H154003   5.448   4.369  10.676  0.8825  0.0925 -0.4815
 9936TIP3    H254004   5.467   4.290  10.804  0.0070  1.1050  0.2966
 9937TIP3   OH254005   4.556   4.657   9.713  0.4300 -0.1886 -0.5103
 9937TIP3    H154006   4.575   4.573   9.754  0.6446 -0.8104 -1.8665
 9937TIP3    H254007   4.639   4.687   9.678  0.3163  0.5194 -0.2034
 9938TIP3   OH254008   1.699   1.214  11.240 -0.2844  0.3650  0.3185
 9938TIP3    H154009   1.716   1.272  11.315  2.2659  0.1325  0.0349
 9938TIP3    H254010   1.759   1.246  11.172  0.5019 -1.9652 -0.1707
 9939TIP3   OH254011   2.688   0.422  10.675  0.0621  0.1815  0.0831
 9939TIP3    H154012   2.656   0.353  10.733  1.6266 -0.8886 -0.2521
 9939TIP3    H254013   2.764   0.383  10.631 -0.5750  1.2208 -2.0856
 9940TIP3   OH254014   2.652   1.527  10.617 -0.3272  0.0027  0.6478
 9940TIP3    H154015   2.642   1.540  10.712  0.6734 -0.1749  0.7820
 9940TIP3    H254016   2.701   1.446  10.608 -1.4959 -0.6572 -0.0729
 9941TIP3   OH254017   0.281   4.776   9.804  0.2368 -0.2668 -0.5387
 9941TIP3    H154018   0.218   4.704   9.794 -1.4124  1.2276 -1.5321
 9941TIP3    H254019   0.366   4.733   9.810 -0.7052 -2.3084 -0.9751
 9942TIP3   OH254020   5.655   3.458  10.003 -0.1328  0.3505  0.0457
 9942TIP3    H154021   5.712   3.477  10.078  0.4393  0.7223 -0.4656
 9942TIP3    H254022   5.690   3.376   9.967  1.5154  1.6664 -1.5585
 9943TIP3   OH254023   1.308   2.680   9.317  0.4832  0.0908  0.1043
 9943TIP3    H154024   1.343   2.677   9.406  0.9102  0.0026 -0.0665
 9943TIP3    H254025   1.244   2.752   9.320  0.3865 -0.0056  0.5184
 9944TIP3   OH254026   0.186   5.676  10.222 -0.0907  0.0226 -0.0542
 9944TIP3    H154027   0.245   5.657  10.149 -0.4827  0.3335 -0.4546
 9944TIP3    H254028   0.242   5.721  10.286  0.8986 -2.4694  0.9772
 9945TIP3   OH254029   2.630   3.315   8.588  0.1103  0.2797 -0.0402
 9945TIP3    H154030   2.572   3.370   8.641 -1.4396 -0.2859 -1.0740
 9945TIP3    H254031   2.697   3.284   8.650 -1.1358  0.3234  1.3902
 9946TIP3   OH254032   3.054   0.654   8.463 -0.7107  0.1360  1.0042
 9946TIP3    H154033   3.064   0.642   8.368 -1.4982  0.8354  0.8223
 9946TIP3    H254034   2.968   0.619   8.483 -0.4331 -0.2649  1.5189
 9947TIP3   OH254035   4.275   5.907   9.614 -0.0291 -0.3021 -0.9727
 9947TIP3    H154036   4.248   5.817   9.631 -1.1495  0.4798  2.3119
 9947TIP3    H254037   4.210   5.940   9.552 -0.8220 -1.1998 -0.6426
 9948TIP3   OH254038   3.367   1.749   9.751  0.2271  0.0829  0.1320
 9948TIP3    H154039   3.354   1.709   9.664 -1.3792 -0.1831  0.4720
 9948TIP3    H254040   3.280   1.753   9.789  0.6877  1.7110  1.1065
 9949TIP3   OH254041   0.719   4.162  11.064 -0.2345 -0.3725 -0.0841
 9949TIP3    H154042   0.735   4.242  11.114 -0.1891 -1.5929  1.9644
 9949TIP3    H254043   0.765   4.176  10.981 -0.5780  1.8639  0.0377
 9950TIP3   OH254044   5.795   0.038   9.528  0.1298 -0.1354 -0.7106
 9950TIP3    H154045   5.865   0.019   9.590  1.0716  1.5938 -1.1761
 9950TIP3    H254046   5.717  -0.003   9.566  0.5350  1.3887  1.9725
 9951TIP3   OH254047   2.578   1.646  11.690  0.5089  0.2854 -0.0070
 9951TIP3    H154048   2.525   1.617  11.764  1.5668 -0.3500  0.5365
 9951TIP3    H254049   2.544   1.732  11.668  0.8661  0.9947  1.9679
 9952TIP3   OH254050   2.930   5.343  11.077  0.0325 -0.3842  0.0958
 9952TIP3    H154051   2.974   5.286  11.140  0.3301 -1.4795 -1.0338
 9952TIP3    H254052   2.854   5.291  11.048 -0.1877  0.1606 -0.3108
 9953TIP3   OH254053   4.486   2.093   9.387  0.0537  0.2278 -0.0327
 9953TIP3    H154054   4.452   2.176   9.420 -0.6355 -0.1787  0.2932
 9953TIP3    H254055   4.427   2.027   9.423  0.7696 -0.4302 -0.0511
 9954TIP3   OH254056   1.172   4.391   9.194  0.1657 -0.2364 -0.2247
 9954TIP3    H154057   1.078   4.385   9.206  0.2225 -0.5332  0.0825
 9954TIP3    H254058   1.205   4.420   9.279  0.3293  0.1056 -0.3997
 9955TIP3   OH254059   0.241   3.822   8.956 -0.1363  0.1511  0.0763
 9955TIP3    H154060   0.153   3.836   8.993 -0.7099 -0.0733 -1.1552
 9955TIP3    H254061   0.232   3.846   8.864  0.1300 -3.2459 -0.9721
 9956TIP3   OH254062   6.078   5.948  10.320 -0.2948 -0.1803  0.4468
 9956TIP3    H154063   6.150   5.906  10.367  0.3104 -0.9971 -1.1558
 9956TIP3    H254064   6.015   5.971  10.389  0.3061 -1.8023  1.6049
 9957TIP3   OH254065   1.004   3.958  12.100 -0.0517  0.5953 -0.3015
 9957TIP3    H154066   1.041   4.044  12.118 -0.1673  0.7293 -0.7125
 9957TIP3    H254067   1.019   3.909  12.181  0.4029  0.8623 -0.2201
 9958TIP3   OH254068   4.666   0.097  10.714  0.1527  0.5492  0.3031
 9958TIP3    H154069   4.665   0.193  10.706  0.1241  0.4797 -0.6040
 9958TIP3    H254070   4.664   0.066  10.624 -0.0661 -0.3146  0.6031
 9959TIP3   OH254071   1.838   1.228   9.152 -0.1242  0.0949 -0.2943
 9959TIP3    H154072   1.867   1.153   9.099  0.3058  0.6711 -0.8930
 9959TIP3    H254073   1.768   1.193   9.207 -1.4801 -0.2209 -2.1511
 9960TIP3   OH254074   4.690   3.452  10.846 -0.7923 -0.3972 -0.2286
 9960TIP3    H154075   4.615   3.511  10.838 -1.0294 -0.6802 -0.1502
 9960TIP3    H254076   4.650   3.365  10.856 -0.4449 -0.6004 -0.5873
 9961TIP3   OH254077   6.480   6.431   9.928 -0.1025 -0.0078 -0.3815
 9961TIP3    H154078   6.489   6.376   9.850  1.8747  0.4592 -0.5398
 9961TIP3    H254079   6.485   6.369  10.001  4.3037 -0.0567 -0.4604
 9962TIP3   OH254080   5.562   1.632  10.099 -0.0239 -0.4119 -0.8795
 9962TIP3    H154081   5.619   1.709  10.098  1.2167 -1.2914 -2.6316
 9962TIP3    H254082   5.511   1.638  10.018  0.4275 -1.6516 -1.2799
 9963TIP3   OH254083   4.614   4.813  10.887 -0.3538  0.2529  0.7641
 9963TIP3    H154084   4.561   4.891  10.872 -1.8579 -0.5204  1.7871
 9963TIP3    H254085   4.564   4.742  10.847 -0.3883 -0.5765  2.2050
 9964TIP3   OH254086   1.581   5.147   9.933  0.2244  0.5537 -0.1980
 9964TIP3    H154087   1.577   5.175  10.024 -0.0183 -0.3908  0.1011
 9964TIP3    H254088   1.495   5.168   9.897  0.4314  1.2263 -0.3084
 9965TIP3   OH254089   3.056   0.531   9.358  0.3378  0.0659  0.1204
 9965TIP3    H154090   3.136   0.579   9.378 -0.4653  1.4481  0.1517
 9965TIP3    H254091   3.050   0.465   9.427  0.9998  0.5234  0.6284
 9966TIP3   OH254092   4.107   4.051   8.543  0.4709 -0.0280  0.7204
 9966TIP3    H154093   4.141   4.126   8.495 -0.6038 -0.4107 -0.6964
 9966TIP3    H254094   4.014   4.048   8.522  0.7587 -2.7028 -0.6749
 9967TIP3   OH254095   5.949   2.960   8.850 -0.0149  0.1392 -0.1771
 9967TIP3    H154096   5.866   2.962   8.898 -0.3657  0.3569 -0.7795
 9967TIP3    H254097   5.945   3.037   8.794  0.7873  0.3828  0.0963
 9968TIP3   OH254098   3.582   4.500   8.034 -0.2453  0.4464 -0.1898
 9968TIP3    H154099   3.548   4.432   8.093 -0.7056  1.1127  0.3269
 9968TIP3    H254100   3.647   4.455   7.981 -1.2108 -0.6380 -0.5095
 9969TIP3   OH254101   5.497   5.722   9.918  0.8075 -0.5905  0.4639
 9969TIP3    H154102   5.572   5.672   9.888  0.9491 -1.2581  1.8454
 9969TIP3    H254103   5.529   5.770   9.995  0.5517  1.3043 -0.5430
 9970TIP3   OH254104   2.363   3.356  10.623  0.3142 -0.2549  0.3687
 9970TIP3    H154105   2.361   3.294  10.696 -2.1474  0.0968  0.6897
 9970TIP3    H254106   2.274   3.392  10.620  0.9179  1.2307 -1.5471
 9971TIP3   OH254107   5.447   1.388  10.642 -0.5157 -0.1781 -0.1972
 9971TIP3    H154108   5.383   1.449  10.679 -1.8307 -1.8195  0.3620
 9971TIP3    H254109   5.427   1.304  10.684 -0.0642 -1.4297 -2.3392
 9972TIP3   OH254110   4.354   1.797  11.689  0.5477 -0.4004 -0.1873
 9972TIP3    H154111   4.302   1.768  11.614 -1.6511 -0.7770  1.3963
 9972TIP3    H254112   4.374   1.889  11.670  0.3998 -0.6018 -1.3947
 9973TIP3   OH254113   3.039   2.685  12.233 -0.3015 -0.4235  0.4346
 9973TIP3    H154114   2.945   2.683  12.217 -0.7772  0.4854  2.7816
 9973TIP3    H254115   3.062   2.595  12.254 -0.5057 -0.7469 -0.6365
 9974TIP3   OH254116   4.076   4.069  11.351  0.5385 -0.1411  0.5828
 9974TIP3    H154117   4.146   4.130  11.329  0.9670 -0.2999  1.4542
 9974TIP3    H254118   4.119   3.984  11.361  0.0235 -0.4941 -0.1224
 9975TIP3   OH254119   5.365   6.242  11.329 -0.0075  0.4905 -0.6685
 9975TIP3    H154120   5.433   6.176  11.339  0.7880  1.4196  0.1705
 9975TIP3    H254121   5.284   6.196  11.353  0.6212  0.0070  0.6277
 9976TIP3   OH254122   4.309   5.389   8.684  0.2031 -0.2492 -0.3964
 9976TIP3    H154123   4.284   5.482   8.688  0.3358 -0.1420 -1.5525
 9976TIP3    H254124   4.349   5.371   8.769 -0.7049  0.4923  0.2046
 9977TIP3   OH254125   5.833   5.126   9.207 -0.2516 -0.4232  0.3362
 9977TIP3    H154126   5.878   5.053   9.248  0.5492 -0.8184 -1.1739
 9977TIP3    H254127   5.825   5.192   9.276  1.5233 -0.8381  0.9765
 9978TIP3   OH254128   2.049   5.228   9.429 -0.0379 -0.3862  0.1886
 9978TIP3    H154129   2.124   5.206   9.484 -1.4063 -0.0380  2.2954
 9978TIP3    H254130   2.079   5.304   9.378  2.1800 -2.3545 -1.6950
 9979TIP3   OH254131   4.255   0.676  10.528 -0.0602 -0.0846  0.0197
 9979TIP3    H154132   4.251   0.668  10.623  0.6571 -1.7081 -0.0537
 9979TIP3    H254133   4.164   0.693  10.502  0.0866  3.0059  1.1376
 9980TIP3   OH254134   2.821   3.185   9.346 -0.5522  0.4218  0.3333
 9980TIP3    H154135   2.756   3.231   9.293 -0.7052 -0.9853 -0.7344
 9980TIP3    H254136   2.902   3.232   9.330 -1.1223  1.7450  1.1090
 9981TIP3   OH254137   1.441   4.335  11.399 -0.4438  0.6227  0.0189
 9981TIP3    H154138   1.395   4.408  11.357  0.3145  2.0321  1.5256
 9981TIP3    H254139   1.533   4.347  11.373 -0.2551  0.4335  0.5937
 9982TIP3   OH254140   0.858   3.544   9.313 -0.4937 -0.0083  0.2085
 9982TIP3    H154141   0.817   3.555   9.399 -3.6315 -0.4191 -1.1012
 9982TIP3    H254142   0.843   3.452   9.291  1.0004 -0.1195 -0.4840
 9983TIP3   OH254143   0.960   0.307  10.085  0.3272  0.0431  0.2638
 9983TIP3    H154144   0.955   0.385  10.030 -0.7238 -0.3560 -0.2385
 9983TIP3    H254145   0.990   0.238  10.026 -1.6948 -0.5938 -0.0895
 9984TIP3   OH254146   5.108   3.935   9.091 -0.2236 -0.2036  0.1684
 9984TIP3    H154147   5.183   3.981   9.055  0.0816 -1.3774 -0.7361
 9984TIP3    H254148   5.078   3.990   9.163  0.6268  0.9831 -0.3671
 9985TIP3   OH254149   1.506   1.665   8.657  0.3154 -0.2523  0.4096
 9985TIP3    H154150   1.436   1.727   8.678  1.0621  0.7242  0.0700
 9985TIP3    H254151   1.465   1.579   8.667 -0.5521  0.2649  1.5427
 9986TIP3   OH254152   4.331   5.168   9.182 -0.9214 -0.2045 -0.4292
 9986TIP3    H154153   4.288   5.087   9.208 -1.9699  0.2585 -0.6451
 9986TIP3    H254154   4.391   5.187   9.254  0.2694 -1.8033 -0.9589
 9987TIP3   OH254155   1.347   2.128   9.559 -0.5624  0.4066 -0.1780
 9987TIP3    H154156   1.298   2.133   9.477  1.3607 -0.1027 -1.4123
 9987TIP3    H254157   1.298   2.064   9.612 -0.0548 -1.8542 -2.2636
 9988TIP3   OH254158   1.558   2.947  10.994 -0.4093  0.0655  0.3030
 9988TIP3    H154159   1.590   2.920  10.908 -0.9110 -1.5115  0.5940
 9988TIP3    H254160   1.465   2.965  10.981 -0.5416 -0.4224  0.5744
 9989TIP3   OH254161   5.075   0.595  10.950  0.3298 -0.3957  0.3805
 9989TIP3    H154162   5.043   0.685  10.940  1.1973 -0.2644 -1.5446
 9989TIP3    H254163   5.093   0.566  10.861  3.5759 -1.1867  1.1618
 9990TIP3   OH254164   2.200   6.022   9.447 -0.1404 -0.2995  0.0141
 9990TIP3    H154165   2.245   6.104   9.470  0.3335 -0.3602 -0.6762
 9990TIP3    H254166   2.238   5.957   9.505 -0.1074 -0.1377  0.1752
 9991TIP3   OH254167   5.076   0.770  10.358  0.2114 -0.0412 -0.0130
 9991TIP3    H154168   5.156   0.734  10.396 -0.3983 -2.2309 -0.6787
 9991TIP3    H254169   5.013   0.771  10.430  0.6194  1.1321  0.3617
 9992TIP3   OH254170   6.041   0.338  10.245  0.1369 -0.3024 -0.2211
 9992TIP3    H154171   6.074   0.428  10.238  1.2036 -0.6911 -0.3831
 9992TIP3    H254172   5.955   0.341  10.204  1.1528  0.1489 -2.4848
 9993TIP3   OH254173   1.661   2.340  10.542 -0.2778 -0.8329 -0.5391
 9993TIP3    H154174   1.685   2.383  10.461  1.4036 -0.1224  0.3017
 9993TIP3    H254175   1.579   2.383  10.569  0.0485  0.0892 -0.9934
 9994TIP3   OH254176   0.777   5.681   9.140 -0.2841 -0.0012  0.3577
 9994TIP3    H154177   0.825   5.602   9.116  1.0826  1.3077 -1.5891
 9994TIP3    H254178   0.845   5.745   9.162 -1.1715  1.3696 -0.6607
 9995TIP3   OH254179   3.424   0.441   9.159  0.2374  0.0626 -0.0418
 9995TIP3    H154180   3.382   0.406   9.081  0.9287  0.0700 -0.4195
 9995TIP3    H254181   3.448   0.364   9.211  0.5506  0.0268 -0.2411
 9996TIP3   OH254182   2.492   4.910   8.561  0.1995 -0.8101  0.0138
 9996TIP3    H154183   2.431   4.983   8.551  1.5613  0.4966  0.9091
 9996TIP3    H254184   2.449   4.837   8.516 -1.7013  0.2297  0.0203
 9997TIP3   OH254185   3.949   1.511   9.015  0.2123  0.5823 -0.3278
 9997TIP3    H154186   3.864   1.554   9.007  0.3261  1.2494  1.5483
 9997TIP3    H254187   3.947   1.470   9.101  1.4970 -0.0851 -0.5959
 9998TIP3   OH254188   2.315   0.346  11.722 -0.2486 -0.6136 -0.1720
 9998TIP3    H154189   2.224   0.324  11.702 -0.3923  1.2626 -2.0013
 9998TIP3    H254190   2.335   0.297  11.802 -3.2641 -0.1180  1.0313
 9999TIP3   OH254191   3.392   2.911  11.085 -0.0806  0.4554  0.0301
 9999TIP3    H154192   3.486   2.902  11.066 -0.2394  0.2305 -0.6728
 9999TIP3    H254193   3.380   2.865  11.169  0.3855  0.2374 -0.0199
10000TIP3   OH254194   2.775   0.600   8.508  0.2164 -0.4179 -0.0518
10000TIP3    H154195   2.710   0.656   8.466 -2.3214 -0.6640  3.2097
10000TIP3    H254196   2.777   0.521   8.455 -0.1693  0.5801 -1.6363
10001TIP3   OH254197   6.096   3.088   9.080  0.2227  0.1136  0.1211
10001TIP3    H154198   6.011   3.070   9.038 -0.4593  1.6246  0.7790
10001TIP3    H254199   6.130   3.164   9.032  1.2393 -0.4909 -0.1489
10002TIP3   OH254200   1.392   3.796  10.793 -0.4465  0.4431 -0.5973
10002TIP3    H154201   1.402   3.701  10.804  0.8682  0.7178  0.8738
10002TIP3    H254202   1.374   3.828  10.881 -1.4596  1.5252 -1.1747
10003TIP3   OH254203   5.226   0.225   9.525  0.1858 -0.4914 -0.1321
10003TIP3    H154204   5.254   0.295   9.466  1.4952 -1.1568 -0.3293
10003TIP3    H254205   5.291   0.226   9.595 -0.5706 -0.6186  0.5800
10004TIP3   OH254206   6.225   3.274   8.942  0.5709  0.1067 -0.3023
10004TIP3    H154207   6.252   3.252   8.852  0.9267 -0.8071  0.0164
10004TIP3    H254208   6.275   3.353   8.963 -0.8356  1.3881 -1.5188
10005TIP3   OH254209   1.751   2.436   8.681  0.8046 -0.2979 -0.0774
10005TIP3    H154210   1.744   2.478   8.767  1.1670 -2.3180  0.9875
10005TIP3    H254211   1.695   2.489   8.624 -1.4568 -0.3097  1.9682
10006TIP3   OH254212   3.944   6.516   8.821  0.1097 -0.1607  0.6014
10006TIP3    H154213   3.861   6.519   8.773  0.2709 -0.7455  0.2806
10006TIP3    H254214   3.949   6.427   8.855  0.4617 -0.0366  0.8823
10007TIP3   OH254215   4.042   6.349  11.056 -0.3904 -0.5032  0.2842
10007TIP3    H154216   4.127   6.345  11.014 -1.0963 -1.4470 -1.1525
10007TIP3    H254217   4.022   6.258  11.080 -0.0365 -0.0182  2.7261
10008TIP3   OH254218   4.275   1.467   9.337  0.5373 -0.4504 -0.2709
10008TIP3    H154219   4.292   1.552   9.377  2.9781 -0.9143 -0.1541
10008TIP3    H254220   4.296   1.479   9.245 -0.8425 -0.5130 -0.6189
10009TIP3   OH254221   1.792   2.980   9.489 -0.0617  0.2375 -0.2291
10009TIP3    H154222   1.720   3.005   9.432  0.4186  0.8701 -0.5745
10009TIP3    H254223   1.833   2.906   9.445 -0.1313  0.2639 -0.3381
10010TIP3   OH254224   2.150   5.095   9.922  0.0236 -0.0290 -0.0027
10010TIP3    H154225   2.213   5.030   9.953 -0.3078 -0.6807 -0.6573
10010TIP3    H254226   2.195   5.141   9.852 -0.5765 -1.2607 -1.2552
10011TIP3   OH254227   1.145   0.028   8.615  0.8495 -0.3628  0.3158
10011TIP3    H154228   1.088   0.026   8.692 -2.2317 -0.3998 -1.8212
10011TIP3    H254229   1.197   0.108   8.627 -2.5859  2.0910  0.5231
10012TIP3   OH254230   4.608   1.485   9.706 -0.2863 -0.1415  0.0066
10012TIP3    H154231   4.537   1.448   9.758  0.7089 -1.1923  0.6644
10012TIP3    H254232   4.586   1.464   9.615 -0.9626 -0.1703  0.1763
10013TIP3   OH254233   2.505   5.456   8.931 -0.0827  0.3146 -0.1850
10013TIP3    H154234   2.491   5.402   8.852 -0.4744  0.0384  0.0694
10013TIP3    H254235   2.509   5.546   8.898  3.0519 -0.0128 -0.9361
10014TIP3   OH254236   4.847   4.546   8.301 -0.1374  0.5199  0.7459
10014TIP3    H154237   4.754   4.564   8.285 -0.2186  0.1992  0.8552
10014TIP3    H254238   4.880   4.627   8.340 -0.2833  0.7699  0.3495
10015TIP3   OH254239   1.485   1.174  12.046 -0.8444  0.2481  0.1885
10015TIP3    H154240   1.400   1.185  12.089 -1.7749 -1.8185 -0.9740
10015TIP3    H254241   1.469   1.196  11.954  0.4519  1.9653  0.3268
10016TIP3   OH254242   0.707   4.218   8.634  0.1224 -0.0915 -0.1625
10016TIP3    H154243   0.789   4.173   8.611  0.4929 -0.0879  1.0789
10016TIP3    H254244   0.677   4.256   8.552  0.6384 -1.2662 -0.9175
10017TIP3   OH254245   2.684   2.942  10.862 -0.2140  0.3021  0.0045
10017TIP3    H154246   2.608   2.942  10.921  1.1089 -0.1388  1.7778
10017TIP3    H254247   2.723   3.028  10.873  0.7955 -0.2457  0.8072
10018TIP3   OH254248   1.737   0.700   8.449  0.6265  0.2872  0.2543
10018TIP3    H154249   1.783   0.616   8.444 -0.1617 -0.1186 -0.5419
10018TIP3    H254250   1.660   0.681   8.503 -0.4547  0.0344 -1.3067
10019TIP3   OH254251   4.059   4.679  11.355 -0.1057  0.5985  0.1676
10019TIP3    H154252   4.065   4.751  11.418 -1.6974  0.2703  0.7272
10019TIP3    H254253   4.139   4.629  11.369  0.0356  1.0891  1.2324
10020TIP3   OH254254   6.573   4.512   8.807  0.2641  0.3507 -0.3763
10020TIP3    H154255   6.519   4.445   8.767  1.6444 -0.5619 -0.7923
10020TIP3    H254256   6.638   4.535   8.740  1.1511  0.5099  0.4999
10021TIP3   OH254257   1.327   5.018  10.077  0.3836 -0.2660  0.2409
10021TIP3    H154258   1.392   4.994  10.011  0.3310 -0.3425  0.2168
10021TIP3    H254259   1.251   4.963  10.057  0.2942 -0.1418  0.2388
10022TIP3   OH254260   2.762   4.187  10.338  0.4762  0.2647  0.5235
10022TIP3    H154261   2.795   4.272  10.366  0.7529  0.2298  0.3099
10022TIP3    H254262   2.749   4.139  10.420  1.0161  0.2613  0.6102
10023TIP3   OH254263   3.006   4.624   8.392 -0.2029  0.0156 -0.0796
10023TIP3    H154264   3.012   4.718   8.410 -0.2904 -0.0725  0.4237
10023TIP3    H254265   2.916   4.601   8.415 -0.4009 -0.0548 -0.8900
10024TIP3   OH254266   0.583   5.920  10.785  0.2548  1.0775  0.0085
10024TIP3    H154267   0.576   5.908  10.690 -0.4633  4.1063 -0.4184
10024TIP3    H254268   0.676   5.936  10.800  0.1079  2.6020 -0.5372
10025TIP3   OH254269   4.447   2.756  11.430  0.5256 -0.2566  0.1131
10025TIP3    H154270   4.406   2.820  11.488  1.9322  0.4699  0.3709
10025TIP3    H254271   4.398   2.763  11.348 -1.1092 -0.8751  0.9943
10026TIP3   OH254272   4.252   6.608  11.098  0.1188 -0.4363 -0.9629
10026TIP3    H154273   4.283   6.557  11.024  0.1721 -0.4777 -0.9120
10026TIP3    H254274   4.321   6.600  11.164  0.0020 -0.5273 -0.8506
10027TIP3   OH254275   6.011   6.382   8.749  0.0744 -0.0193 -0.1356
10027TIP3    H154276   6.019   6.318   8.679 -0.1152  0.7315 -0.8670
10027TIP3    H254277   6.044   6.464   8.711  0.4269  0.3044  0.8080
10028TIP3   OH254278   6.550   4.904   9.393 -0.1290  0.0473 -0.0556
10028TIP3    H154279   6.620   4.877   9.334 -0.2818 -1.1655  0.2973
10028TIP3    H254280   6.481   4.840   9.379 -1.3020  1.3677 -0.5865
10029TIP3   OH254281   5.551   1.747  11.032  0.0496 -0.1853  0.5434
10029TIP3    H154282   5.619   1.764  11.098  1.0475  0.7446 -0.6814
10029TIP3    H254283   5.588   1.779  10.950 -1.6405 -0.2135 -0.2780
10030TIP3   OH254284   5.329   5.173  10.586  0.1276 -0.5303  0.0673
10030TIP3    H154285   5.311   5.123  10.506 -1.7055  0.1531 -0.0035
10030TIP3    H254286   5.420   5.154  10.606  0.4943 -1.1221 -1.9013
10031TIP3   OH254287   1.118   1.184   9.531  0.2877 -0.1943 -0.3468
10031TIP3    H154288   1.121   1.245   9.604  0.9656 -0.9626  0.3017
10031TIP3    H254289   1.077   1.105   9.567 -0.5168 -0.1631 -1.1443
10032TIP3   OH254290   5.264   6.221  10.756 -0.3237  0.0024 -0.6861
10032TIP3    H154291   5.288   6.135  10.721  1.2577  0.6123 -1.2155
10032TIP3    H254292   5.289   6.217  10.848 -3.8546 -1.3693  0.3556
10033TIP3   OH254293   2.241   1.051  10.260 -0.1208  0.7157  0.5178
10033TIP3    H154294   2.294   1.098  10.196  0.0078  2.3781  1.8026
10033TIP3    H254295   2.243   0.960  10.229  1.1981  1.1946 -0.9681
10034TIP3   OH254296   0.023   3.656  10.030  0.0469  0.2156 -0.3360
10034TIP3    H154297   0.072   3.579  10.060  1.7043  1.7971  1.3120
10034TIP3    H254298  -0.038   3.674  10.102  0.5331  1.1192 -0.1313
10035TIP3   OH254299   4.795   5.054   9.214 -0.1591  0.2380 -0.1159
10035TIP3    H154300   4.815   5.093   9.299 -0.2940 -0.3647  0.1972
10035TIP3    H254301   4.759   5.126   9.163 -0.3202  0.5490  0.4256
10036TIP3   OH254302   0.996   2.167   9.852 -0.0766 -0.2754 -0.2503
10036TIP3    H154303   1.018   2.244   9.799  0.2861 -0.6980 -0.7308
10036TIP3    H254304   1.021   2.093   9.797  0.9867 -0.7275  0.7945
10037TIP3   OH254305   6.641   2.403  10.119  0.0870  0.8353 -0.0128
10037TIP3    H154306   6.588   2.330  10.149  3.1990 -2.0528 -0.8582
10037TIP3    H254307   6.590   2.444  10.050 -1.1431 -1.6815 -0.7061
10038TIP3   OH254308   0.407   6.441  10.132  0.0453 -0.4470 -0.0449
10038TIP3    H154309   0.387   6.534  10.122 -0.5685 -0.5968 -0.2835
10038TIP3    H254310   0.393   6.405  10.044  0.7860 -0.6720 -0.0719
10039TIP3   OH254311   5.048   1.664   8.949  0.0605  0.7561 -0.1003
10039TIP3    H154312   4.995   1.678   8.870 -1.2981  0.1103  0.6681
10039TIP3    H254313   5.071   1.752   8.978  2.3793  1.0386 -2.3059
10040TIP3   OH254314   0.365   2.112   8.732  0.0354 -0.1318  0.0777
10040TIP3    H154315   0.295   2.117   8.797 -0.5459 -0.0247 -0.5542
10040TIP3    H254316   0.443   2.088   8.783 -0.7442 -1.7172  0.5887
10041TIP3   OH254317   5.974   3.155  10.978  0.8807  0.1750  0.3447
10041TIP3    H154318   5.989   3.131  11.069 -0.2023 -0.1300  0.4627
10041TIP3    H254319   5.881   3.134  10.963  1.5634 -1.9198 -1.4841
10042TIP3   OH254320   4.229   0.710   9.475  0.4528  0.0294  0.3546
10042TIP3    H154321   4.234   0.622   9.511  0.5776 -0.3430 -0.5484
10042TIP3    H254322   4.319   0.739   9.469  0.3924  0.3691  0.9880
10043TIP3   OH254323   1.144   5.710   8.699  0.2342  0.3445 -0.1656
10043TIP3    H154324   1.066   5.657   8.684  0.3759 -0.3948  1.5314
10043TIP3    H254325   1.121   5.797   8.666 -0.8686 -0.1482 -0.7465
10044TIP3   OH254326   1.452   4.564  10.796  0.0670 -0.4110 -1.2431
10044TIP3    H154327   1.407   4.479  10.794 -0.7181 -0.0335 -0.6288
10044TIP3    H254328   1.400   4.616  10.858  1.3165  0.0810 -0.5801
10045TIP3   OH254329   1.860   6.190  10.967  0.2593  0.0592  0.4938
10045TIP3    H154330   1.911   6.253  10.917  0.1106 -0.7301 -0.6973
10045TIP3    H254331   1.901   6.105  10.948 -0.8640 -0.4659  0.3193
10046TIP3   OH254332   5.792   6.504   9.262  0.6621 -0.5634 -0.5178
10046TIP3    H154333   5.863   6.509   9.198  0.8993  1.0449 -0.1608
10046TIP3    H254334   5.715   6.537   9.215  0.0525 -2.5001 -0.9734
10047TIP3   OH254335   3.307   1.788   9.204 -0.1721 -0.1555 -0.3900
10047TIP3    H154336   3.400   1.783   9.228 -0.3301  1.2254  0.6224
10047TIP3    H254337   3.306   1.771   9.110  1.2229  0.6403 -0.5816
10048TIP3   OH254338   1.779   2.613  10.107 -0.5714 -0.0404 -0.9037
10048TIP3    H154339   1.694   2.617  10.064 -1.0576 -0.1510  0.0131
10048TIP3    H254340   1.788   2.699  10.149  0.7842  0.8085 -2.8195
10049TIP3   OH254341   4.206   6.567  12.218  0.2511 -0.0705  0.4006
10049TIP3    H154342   4.248   6.631  12.160 -1.2990 -0.4377 -1.2170
10049TIP3    H254343   4.248   6.484  12.196  1.3886  0.1550  1.6131
10050TIP3   OH254344   2.424   3.437  11.515 -0.4281 -0.0629 -0.6526
10050TIP3    H154345   2.406   3.367  11.454  0.4752 -0.8923  0.0018
10050TIP3    H254346   2.515   3.462  11.498 -0.2366 -0.1502  0.1775
10051TIP3   OH254347   6.220   0.096   9.353 -0.4383 -0.0280 -0.3183
10051TIP3    H154348   6.286   0.162   9.335 -2.3221  1.5415 -2.0226
10051TIP3    H254349   6.146   0.145   9.390 -0.3715 -1.8532  2.5770
10052TIP3   OH254350   4.299   1.262   9.514  0.3247  0.0763 -0.1011
10052TIP3    H154351   4.260   1.305   9.438  1.9612  1.6422 -0.1163
10052TIP3    H254352   4.266   1.310   9.590  1.6867  1.0156 -0.0801
10053TIP3   OH254353   0.450   3.795   9.144  0.2290 -0.4005  0.2926
10053TIP3    H154354   0.373   3.775   9.091 -1.4479  0.7696  2.1563
10053TIP3    H254355   0.502   3.854   9.089 -0.5769 -0.5782 -0.6941
10054TIP3   OH254356   4.668   0.570   9.112  0.0806 -0.4525 -0.3079
10054TIP3    H154357   4.579   0.605   9.102  0.5485  0.1732 -2.9907
10054TIP3    H254358   4.655   0.477   9.129 -1.0931 -0.3472 -0.5126
10055TIP3   OH254359   4.947   2.263   9.545  0.0733  0.5252  0.2983
10055TIP3    H154360   4.877   2.216   9.589  1.3112 -1.1397  0.5641
10055TIP3    H254361   4.913   2.279   9.457 -0.0726 -1.6942 -0.0940
10056TIP3   OH254362   0.609   3.886   9.757 -0.2820 -0.6550  0.0444
10056TIP3    H154363   0.547   3.897   9.685  0.2165  0.2552 -0.2573
10056TIP3    H254364   0.587   3.955   9.819  1.4799  0.7982 -0.8520
10057TIP3   OH254365   5.780   0.364  10.343  0.1107  0.7545 -0.5003
10057TIP3    H154366   5.841   0.403  10.405 -0.2249 -0.3491  0.5688
10057TIP3    H254367   5.720   0.435  10.319  0.1984  1.1834  0.5216
10058TIP3   OH254368   4.754   2.536   9.874  0.6666  0.6998 -0.0177
10058TIP3    H154369   4.794   2.604   9.928  1.0818  1.5429 -1.3341
10058TIP3    H254370   4.819   2.516   9.807  1.5342 -2.7263  1.6297
10059TIP3   OH254371   1.887   1.035   8.940  0.4005  0.0690  0.2017
10059TIP3    H154372   1.897   1.096   8.867 -1.1625  0.4296  0.2492
10059TIP3    H254373   1.830   0.966   8.905 -0.5967  0.3937  1.1399
10060TIP3   OH254374   1.390   2.453  11.117 -0.2668  0.0875  0.3364
10060TIP3    H154375   1.449   2.493  11.053 -2.4506  0.7989 -1.3594
10060TIP3    H254376   1.409   2.359  11.111 -1.8344 -0.1510 -3.0674
10061TIP3   OH254377   5.057   4.937  10.486  0.5358  0.6600  0.0517
10061TIP3    H154378   4.965   4.919  10.468  0.5097  1.0253 -0.2062
10061TIP3    H254379   5.090   4.858  10.528 -0.3821  1.2267  1.9362
10062TIP3   OH254380   5.175   3.799  11.104 -0.5089 -0.5707 -0.0673
10062TIP3    H154381   5.104   3.743  11.136 -2.2718  0.1494 -2.4236
10062TIP3    H254382   5.239   3.737  11.068 -0.9361 -1.1855  0.2079
10063TIP3   OH254383   4.198   4.774   9.476 -0.2285  0.0630  0.4550
10063TIP3    H154384   4.218   4.860   9.440  1.3620  0.5378  2.3034
10063TIP3    H254385   4.113   4.752   9.440 -0.5202  2.2643 -0.3342
10064TIP3   OH254386   6.381   6.290  10.133 -0.6039 -0.6842 -0.8595
10064TIP3    H154387   6.305   6.232  10.135  0.2060 -1.7658 -0.4526
10064TIP3    H254388   6.363   6.354  10.202 -0.6460 -1.6103  0.0187
10065TIP3   OH254389   3.462   4.970  12.047  0.1143  0.0009  0.1865
10065TIP3    H154390   3.404   4.894  12.051  0.0146  0.0329 -0.6210
10065TIP3    H254391   3.527   4.954  12.116 -1.0491  0.1433  1.3704
10066TIP3   OH254392   5.200   0.263  10.899  0.3104  0.1112 -0.6249
10066TIP3    H154393   5.162   0.299  10.979 -1.0381 -1.5203 -0.4620
10066TIP3    H254394   5.126   0.253  10.840  0.4810 -2.7430 -0.4819
10067TIP3   OH254395   0.969   2.470   8.460 -0.7669  0.1946  0.4344
10067TIP3    H154396   0.895   2.438   8.409  0.5931 -1.9762 -0.3423
10067TIP3    H254397   0.932   2.495   8.545 -2.6960  1.4644 -0.7101
10068TIP3   OH254398   5.448   5.917  10.456  0.3097  0.1378  0.0482
10068TIP3    H154399   5.391   5.922  10.380  0.1136 -0.0899  0.1786
10068TIP3    H254400   5.482   5.827  10.454  1.4286  0.5495 -0.5774
10069TIP3   OH254401   1.789   4.032  11.721 -0.0996 -0.5892  0.0646
10069TIP3    H154402   1.760   4.011  11.810  0.7631  1.6749  0.9599
10069TIP3    H254403   1.882   4.051  11.730 -0.1245  0.2614 -1.2092
10070TIP3   OH254404   5.884   4.786   9.056 -0.1490  0.1092 -0.0323
10070TIP3    H154405   5.957   4.832   9.096 -0.8495  0.9175  0.3373
10070TIP3    H254406   5.806   4.834   9.084 -0.7756 -0.2755 -1.0370
10071TIP3   OH254407   3.242   4.731  10.926  0.3540 -0.4297 -0.0387
10071TIP3    H154408   3.214   4.808  10.876  0.1357 -1.3698 -1.4409
10071TIP3    H254409   3.291   4.767  11.000 -2.0814  1.1735  0.9354
10072TIP3   OH254410   2.951   2.987   9.517  0.0333  0.5387 -0.6879
10072TIP3    H154411   2.882   3.034   9.469 -0.4050 -0.9900 -1.6114
10072TIP3    H254412   2.999   2.940   9.450  1.7910  1.2832 -0.0082
10073TIP3   OH254413   0.144   5.094  10.547 -0.2926 -0.0505  0.3174
10073TIP3    H154414   0.204   5.053  10.485 -0.4991 -0.4154  0.3562
10073TIP3    H254415   0.191   5.095  10.630  0.2617  1.0813  0.0095
10074TIP3   OH254416   2.458   2.129   8.878 -0.3840 -0.7422  0.5183
10074TIP3    H154417   2.404   2.181   8.937 -0.3516 -1.0564  0.8279
10074TIP3    H254418   2.456   2.176   8.795  1.9602  1.3663  1.5165
10075TIP3   OH254419   2.795   0.028  10.113  0.0751  0.6537  0.3379
10075TIP3    H154420   2.709   0.038  10.072  0.0277 -2.6368 -0.6258
10075TIP3    H254421   2.777   0.026  10.207 -0.7199  1.3179  0.2112
10076TIP3   OH254422   3.836   2.524  11.769 -1.0886 -0.1284  0.8275
10076TIP3    H154423   3.893   2.584  11.818 -0.7291  1.0927 -0.9917
10076TIP3    H254424   3.814   2.456  11.832 -1.3639  1.8005  2.9712
10077TIP3   OH254425   3.801   4.287  11.486  0.0612 -0.3543  0.5104
10077TIP3    H154426   3.712   4.266  11.458  0.9011 -1.0568 -1.8579
10077TIP3    H254427   3.840   4.330  11.411  1.5898  0.4258  1.6944
10078TIP3   OH254428   2.823   3.168  10.863 -0.4570  0.5679 -0.0317
10078TIP3    H154429   2.862   3.170  10.776 -1.6207 -0.1156 -0.5952
10078TIP3    H254430   2.887   3.212  10.919  0.3790  0.8849 -1.1952
10079TIP3   OH254431   5.113   3.341   8.572 -0.3697  0.5829 -0.4659
10079TIP3    H154432   5.193   3.300   8.538  0.5774  1.3069  0.7857
10079TIP3    H254433   5.062   3.362   8.494  1.4364  1.6084 -1.4352
10080TIP3   OH254434   6.479   0.616   8.926 -0.0782  0.1522  0.1361
10080TIP3    H154435   6.461   0.605   8.833 -0.5767 -0.9244  0.3535
10080TIP3    H254436   6.543   0.687   8.929 -0.3324  0.4545 -0.9977
10081TIP3   OH254437   1.741   4.149  11.486 -0.0851  0.4650  0.1682
10081TIP3    H154438   1.758   4.089  11.558 -3.0156 -0.4293  0.2553
10081TIP3    H254439   1.712   4.230  11.528 -1.3521  0.0944  0.0586
10082TIP3   OH254440   6.199   3.604  11.033  0.8725 -0.0227  0.5320
10082TIP3    H154441   6.266   3.536  11.024  1.3269  0.3400  1.0562
10082TIP3    H254442   6.123   3.558  11.069  0.6896 -0.5148 -0.4584
10083TIP3   OH254443   1.328   0.441   9.551 -0.2538 -0.4034 -0.5468
10083TIP3    H154444   1.247   0.493   9.558 -0.3906 -0.3373 -2.1617
10083TIP3    H254445   1.303   0.366   9.497  0.9080 -0.0205 -1.6555
10084TIP3   OH254446   0.928   0.170   9.324  0.2800 -0.0788 -0.6256
10084TIP3    H154447   0.898   0.098   9.380  1.1823  0.5016  0.6609
10084TIP3    H254448   1.009   0.138   9.286  0.3375  0.0042 -0.5739
10085TIP3   OH254449   1.004   3.518   9.047 -0.1249  0.2237 -0.2535
10085TIP3    H154450   0.947   3.516   9.124  2.3162 -3.6088  1.8094
10085TIP3    H254451   1.072   3.582   9.069 -0.2593  0.2439  0.1193
10086TIP3   OH254452   1.853   1.517  11.469  0.2836 -0.0325 -0.2249
10086TIP3    H154453   1.876   1.603  11.503  0.6446 -0.5130  0.7980
10086TIP3    H254454   1.936   1.469  11.469  0.1898 -0.2059 -1.3232
10087TIP3   OH254455   2.112   3.570  10.917  0.2330 -0.1328 -0.2674
10087TIP3    H154456   2.151   3.648  10.956  1.7598 -0.4928 -1.0315
10087TIP3    H254457   2.027   3.562  10.961  0.9190  0.7685  1.3291
10088TIP3   OH254458   6.116   2.394   9.700  0.3921 -0.2657  0.7214
10088TIP3    H154459   6.067   2.312   9.691  2.3713 -1.5198  0.6616
10088TIP3    H254460   6.050   2.460   9.718 -1.3019 -1.8453  0.5665
10089TIP3   OH254461   3.472   4.725   8.215 -0.3252  0.3770 -0.0099
10089TIP3    H154462   3.404   4.660   8.196  0.2197 -1.0398  2.3736
10089TIP3    H254463   3.552   4.685   8.180 -0.1184  0.1239  0.7351
10090TIP3   OH254464   1.321   4.003   9.884  0.4616  0.0781 -0.1219
10090TIP3    H154465   1.252   3.980   9.946  0.3395  2.9803  0.9918
10090TIP3    H254466   1.392   4.038   9.938  1.6788 -0.2088 -1.4435
10091TIP3   OH254467   0.204   1.430  11.939 -0.1803 -0.2855  0.0263
10091TIP3    H154468   0.176   1.521  11.950  0.0034 -0.1817 -0.3552
10091TIP3    H254469   0.176   1.406  11.851  0.0278 -0.5100  0.0196
10092TIP3   OH254470   3.813   5.462   9.505 -0.2574  0.1346  0.8165
10092TIP3    H154471   3.752   5.531   9.479  0.1864  0.2377 -0.0003
10092TIP3    H254472   3.788   5.387   9.450 -0.3073 -0.1419  1.2172
10093TIP3   OH254473   1.847   5.864  10.228 -0.0937 -0.2738 -0.1451
10093TIP3    H154474   1.823   5.821  10.146 -1.2807  0.8931 -0.4403
10093TIP3    H254475   1.854   5.793  10.291 -0.0744 -1.0953 -1.0554
10094TIP3   OH254476   1.363   5.203  11.504  0.0390  0.5606  0.2474
10094TIP3    H154477   1.356   5.248  11.589 -0.1073  0.5298  0.2511
10094TIP3    H254478   1.274   5.201  11.470 -0.1117 -0.5695  0.6780
10095TIP3   OH254479   0.333   0.725   8.491  0.1033  0.1077  0.0363
10095TIP3    H154480   0.275   0.798   8.515 -1.4202 -0.7825 -0.7433
10095TIP3    H254481   0.373   0.753   8.409  1.6782  1.1798  1.1121
10096TIP3   OH254482   1.777   4.028  10.126  0.0562  0.1751 -0.0648
10096TIP3    H154483   1.731   4.107  10.154  0.5191  0.1191  0.8610
10096TIP3    H254484   1.792   4.042  10.032  0.0670  1.1502  0.0708
10097TIP3   OH254485   0.444   0.897   9.474  0.3847 -0.0588  0.0140
10097TIP3    H154486   0.348   0.898   9.473  0.3780 -0.6758 -0.7316
10097TIP3    H254487   0.469   0.944   9.395  0.7415  1.7573  1.1547
10098TIP3   OH254488   2.512   0.910   9.478 -0.3023  0.1169 -0.6623
10098TIP3    H154489   2.575   0.977   9.506 -0.3672 -0.3999  0.8123
10098TIP3    H254490   2.548   0.876   9.397  0.4492  0.9840 -0.7153
10099TIP3   OH254491   0.159   2.622  11.370  0.0387 -0.0120 -0.0549
10099TIP3    H154492   0.083   2.649  11.421 -0.2557  0.2130 -0.6030
10099TIP3    H254493   0.228   2.609  11.435 -0.2656  0.4916  0.3788
10100TIP3   OH254494   4.328   1.652   9.901 -0.5731 -0.2812  0.3601
10100TIP3    H154495   4.306   1.658   9.994  0.8719  0.7975  0.6549
10100TIP3    H254496   4.423   1.662   9.898 -0.6099 -0.2075 -1.2533
10101TIP3   OH254497   3.175   4.309  10.958 -0.0389 -0.3527  0.0991
10101TIP3    H154498   3.093   4.338  10.997 -0.6835  1.0784 -2.0991
10101TIP3    H254499   3.236   4.382  10.972  0.0601 -0.3149 -0.4701
10102TIP3   OH254500   4.364   4.689  11.601 -0.2887 -0.3826 -0.1886
10102TIP3    H154501   4.323   4.745  11.668 -0.3530  0.0884 -0.6139
10102TIP3    H254502   4.449   4.731  11.585 -1.0009  0.5581 -1.6972
10103TIP3   OH254503   0.968   6.494   9.643 -0.2189 -0.7309  0.0042
10103TIP3    H154504   1.014   6.459   9.719  1.4020  2.3428  0.5831
10103TIP3    H254505   0.877   6.504   9.672  0.6911  2.0328  2.2950
10104TIP3   OH254506   3.368   1.927   8.745 -0.1050 -0.1639 -0.8210
10104TIP3    H154507   3.429   1.881   8.803 -0.5003  0.7247  0.3436
10104TIP3    H254508   3.291   1.870   8.740 -0.8550  0.5816  1.1326
10105TIP3   OH254509   1.825   0.874   8.700  0.4611  0.4820 -0.3414
10105TIP3    H154510   1.793   0.903   8.615  1.0263 -0.0801 -0.7615
10105TIP3    H254511   1.768   0.800   8.723  0.3724  0.5689 -0.2846
10106TIP3   OH254512   5.811   4.476   8.486 -0.6520  0.0786 -0.3177
10106TIP3    H154513   5.905   4.489   8.488 -0.3736 -1.1835 -2.2814
10106TIP3    H254514   5.774   4.562   8.504  0.8772  0.6834  0.0520
10107TIP3   OH254515   4.019   3.111  10.475 -0.3727  0.6075 -0.0942
10107TIP3    H154516   4.080   3.095  10.403 -0.1532  2.9633 -0.4912
10107TIP3    H254517   3.933   3.117  10.432 -0.6468 -0.6502  0.2192
10108TIP3   OH254518   3.302   1.460   9.620  0.5304 -0.1298  0.0560
10108TIP3    H154519   3.226   1.482   9.673  1.0832  1.2799  0.3157
10108TIP3    H254520   3.312   1.535   9.560  2.7361  0.6206  1.2317
10109TIP3   OH254521   0.740   1.221  10.222 -0.4375 -0.0789 -0.6571
10109TIP3    H154522   0.779   1.194  10.140  1.4478 -0.5314  0.3298
10109TIP3    H254523   0.703   1.141  10.259 -0.0839 -0.1584 -0.4642
10110TIP3   OH254524   0.127   4.221  10.062  0.2499 -0.0118  0.4432
10110TIP3    H154525   0.156   4.177  10.142  0.8653  0.6409  0.5839
10110TIP3    H254526   0.207   4.240  10.014 -0.1910 -2.3603 -1.4263
10111TIP3   OH254527   1.206   0.816  10.586 -0.7997  0.0014  0.4611
10111TIP3    H154528   1.136   0.862  10.632 -0.6336  1.0750 -0.3225
10111TIP3    H254529   1.248   0.884  10.533  0.1187 -0.8573  0.0680
10112TIP3   OH254530   1.171   2.097  10.454  0.4219 -0.4525  0.3559
10112TIP3    H154531   1.260   2.097  10.418  0.3007 -0.4106  0.0537
10112TIP3    H254532   1.181   2.133  10.542  1.1365 -2.9611  1.4020
10113TIP3   OH254533   4.217   3.006  10.278 -0.6934  0.1016  0.0860
10113TIP3    H154534   4.246   2.962  10.198 -3.0206  1.9767 -1.9237
10113TIP3    H254535   4.229   2.941  10.347 -0.7009 -2.3920 -2.1318
10114TIP3   OH254536   3.203   6.657   8.662 -0.5180 -0.4847 -0.0697
10114TIP3    H154537   3.269   6.721   8.635 -0.3408 -1.4056 -2.0250
10114TIP3    H254538   3.253   6.576   8.673 -1.0761 -0.8069  0.1144
10115TIP3   OH254539   6.018   4.068  10.928  0.4407 -0.2366  0.0903
10115TIP3    H154540   6.084   4.123  10.969  0.7799 -1.2239  0.9040
10115TIP3    H254541   6.065   3.991  10.897 -0.1936 -0.5867 -0.0387
10116TIP3   OH254542   3.641   4.060   9.418 -0.7761 -0.3114  0.0602
10116TIP3    H154543   3.641   3.965   9.427  0.2073 -0.4105 -0.7868
10116TIP3    H254544   3.734   4.083   9.406 -1.0035  0.7501  0.2412
10117TIP3   OH254545   2.844   3.461   8.740 -0.3480 -0.1896  0.2616
10117TIP3    H154546   2.923   3.410   8.721 -0.3119  0.0025 -0.1010
10117TIP3    H254547   2.844   3.470   8.836 -1.2590 -2.3207  0.5184
10118TIP3   OH254548   3.640   4.051   8.323 -0.2960 -0.5759 -0.0723
10118TIP3    H154549   3.643   3.956   8.310 -2.6565 -0.5637 -1.3107
10118TIP3    H254550   3.548   4.069   8.341  0.4367  1.2905  2.2329
10119TIP3   OH254551   0.689   0.228  11.278  0.4578  0.1637 -0.4924
10119TIP3    H154552   0.785   0.235  11.278  0.6570 -1.6640  1.0960
10119TIP3    H254553   0.658   0.318  11.274  2.2936  0.9439  1.3712
10120TIP3   OH254554   1.189   6.302   9.165 -0.5500 -0.7870 -0.2795
10120TIP3    H154555   1.120   6.307   9.099 -0.3484 -0.1951 -0.4529
10120TIP3    H254556   1.146   6.268   9.244 -1.3963  1.0190  0.0790
10121TIP3   OH254557   5.580   6.188   8.629 -0.3884 -0.0415  0.1387
10121TIP3    H154558   5.649   6.183   8.563 -1.3281 -2.1201 -0.7617
10121TIP3    H254559   5.627   6.201   8.712  0.9241  0.6884 -0.6913
10122TIP3   OH254560   4.556   2.951   9.555  0.4826  0.2215 -0.0861
10122TIP3    H154561   4.510   2.958   9.639  1.1339  0.7603  0.2324
10122TIP3    H254562   4.543   2.859   9.529  0.7111 -0.0915  0.8571
10123TIP3   OH254563   2.838   2.153  11.420 -0.2915  0.2308  0.3589
10123TIP3    H154564   2.781   2.212  11.372 -0.4866 -0.9267 -0.9148
10123TIP3    H254565   2.903   2.210  11.462  0.7283  1.2918 -2.3800
10124TIP3   OH254566   3.560   1.544  10.599 -0.3010  0.2665 -0.0129
10124TIP3    H154567   3.516   1.484  10.660 -0.9348 -2.1877 -2.6591
10124TIP3    H254568   3.654   1.526  10.611 -0.4804 -1.4846 -0.8397
10125TIP3   OH254569   1.104   4.457   8.452  0.2165  0.1267 -0.2734
10125TIP3    H154570   1.152   4.388   8.498 -0.8128 -0.8901 -0.6585
10125TIP3    H254571   1.043   4.409   8.395 -1.6464  1.3483  0.6213
10126TIP3   OH254572   2.683   2.913  11.407 -0.5182 -0.6995  0.0660
10126TIP3    H154573   2.621   2.938  11.338  0.5016 -1.4749 -1.1839
10126TIP3    H254574   2.640   2.940  11.488 -1.7778  0.2311 -0.8521
10127TIP3   OH254575   6.307   6.016   8.647 -0.2232  0.2817  0.8874
10127TIP3    H154576   6.401   6.035   8.650 -0.1281  0.2091 -0.7475
10127TIP3    H254577   6.300   5.922   8.659 -0.1182  0.3425  1.4228
10128TIP3   OH254578   0.614   0.948   9.916 -0.1108  0.3194  0.6376
10128TIP3    H154579   0.678   0.970   9.848 -0.6933  0.6314  0.1813
10128TIP3    H254580   0.568   1.030   9.933 -0.7498 -0.0251  0.5864
10129TIP3   OH254581   4.621   3.697  10.230  0.0121 -0.2213  0.3981
10129TIP3    H154582   4.630   3.612  10.187 -3.1210 -0.6797  0.4419
10129TIP3    H254583   4.625   3.678  10.324 -0.5108 -0.3082  0.4053
10130TIP3   OH254584   3.179   5.338  10.370 -0.3610 -0.0767  0.1149
10130TIP3    H154585   3.101   5.286  10.348 -0.4085 -0.8012  1.8244
10130TIP3    H254586   3.208   5.303  10.454  1.2114  0.8930  0.0139
10131TIP3   OH254587   3.459   3.223  10.943  0.4911 -0.3412 -0.2630
10131TIP3    H154588   3.406   3.147  10.922  0.1037 -0.1858  0.1538
10131TIP3    H254589   3.547   3.199  10.914  0.1014 -0.3873 -1.4724
10132TIP3   OH254590   0.727   3.949  11.235  0.1103 -0.2209 -0.1281
10132TIP3    H154591   0.737   4.002  11.156 -0.8197  1.4256  0.8085
10132TIP3    H254592   0.640   3.910  11.227  0.2970 -0.6314 -0.2234
10133TIP3   OH254593   5.802   2.452  10.772 -0.2445 -0.0068 -0.7887
10133TIP3    H154594   5.858   2.530  10.770 -0.8527  0.4972  0.5219
10133TIP3    H254595   5.831   2.405  10.850 -0.2493 -0.8175 -1.2710
10134TIP3   OH254596   2.729   3.004   8.851  0.0472  0.0898 -0.0618
10134TIP3    H154597   2.789   2.943   8.807 -1.5479 -1.3591 -0.3671
10134TIP3    H254598   2.785   3.074   8.883  1.7321 -0.5849 -1.3583
10135TIP3   OH254599   4.057   0.789  11.602 -0.5458  0.5038 -0.5614
10135TIP3    H154600   4.022   0.828  11.682 -0.4480  0.7553 -0.6401
10135TIP3    H254601   4.145   0.760  11.626 -0.6681  0.2066 -0.4655
10136TIP3   OH254602   4.204   5.636   9.669 -0.7278 -0.6274  0.2710
10136TIP3    H154603   4.138   5.608   9.605  0.3629 -1.4518 -0.5515
10136TIP3    H254604   4.165   5.616   9.754 -2.4263  0.9536 -0.0747
10137TIP3   OH254605   1.566   3.700   8.880  0.1956  0.0174  0.2020
10137TIP3    H154606   1.572   3.616   8.925  0.7616 -0.4815 -0.7813
10137TIP3    H254607   1.558   3.678   8.787  0.3327  1.0468 -0.0744
10138TIP3   OH254608   3.758   0.040  10.979  0.5391 -0.0890  0.3609
10138TIP3    H154609   3.712   0.022  10.897  0.5932  2.4806 -0.3118
10138TIP3    H254610   3.693   0.021  11.047 -0.3482  0.1172 -0.4051
10139TIP3   OH254611   5.449   1.001  10.012  0.0074 -0.5105  0.3313
10139TIP3    H154612   5.443   0.906  10.003  2.3600 -0.5553 -1.7993
10139TIP3    H254613   5.377   1.034   9.957  0.1897 -1.0550 -0.2513
10140TIP3   OH254614   5.018   0.983  11.241  0.0742  0.4593 -0.4103
10140TIP3    H154615   4.965   0.925  11.185 -0.3607  0.6947 -0.2500
10140TIP3    H254616   5.001   0.952  11.330  2.1720 -1.0937 -0.4678
10141TIP3   OH254617   6.273   4.035   9.429  0.4731 -0.2650  0.6929
10141TIP3    H154618   6.354   4.066   9.388  1.1579 -0.1780  2.0337
10141TIP3    H254619   6.253   4.101   9.495 -1.3820  0.3342 -0.3784
10142TIP3   OH254620   0.874   6.045   9.158  0.9750 -0.1119 -0.1070
10142TIP3    H154621   0.966   6.030   9.139  0.8915 -0.9498  0.1164
10142TIP3    H254622   0.851   5.977   9.222  0.3669  0.4782  0.3201
10143TIP3   OH254623   4.528   0.469  11.256  0.1989 -0.0275 -0.0501
10143TIP3    H154624   4.624   0.465  11.249  0.3243  1.8399  0.1729
10143TIP3    H254625   4.501   0.521  11.181 -0.3658  1.7770  1.3423
10144TIP3   OH254626   3.093   0.282  10.150  0.0964 -0.1964 -0.3390
10144TIP3    H154627   3.063   0.216  10.212  1.4463 -0.1591  0.3960
10144TIP3    H254628   3.161   0.238  10.099  1.0144  0.5781  0.1610
10145TIP3   OH254629   5.344   6.160  10.247  0.0484 -0.9585  0.0727
10145TIP3    H154630   5.301   6.094  10.302 -1.3884 -0.4883 -0.4715
10145TIP3    H254631   5.312   6.244  10.279 -0.5547 -0.6590 -1.2552
10146TIP3   OH254632   0.465   2.587  10.731  0.3623 -1.2274  0.0067
10146TIP3    H154633   0.379   2.595  10.688  0.5677  0.7628 -0.1261
10146TIP3    H254634   0.452   2.519  10.797 -2.1485  0.6963  1.7440
10147TIP3   OH254635   4.553   5.338  10.473  0.2127  0.2682  0.1750
10147TIP3    H154636   4.599   5.322  10.391 -1.9551  1.2560 -1.3344
10147TIP3    H254637   4.510   5.423  10.460 -1.8306 -0.4779  1.5386
10148TIP3   OH254638   4.574   0.723  10.926 -0.0240  0.3537 -0.2587
10148TIP3    H154639   4.491   0.771  10.932  1.1692  2.4216  0.9359
10148TIP3    H254640   4.551   0.633  10.949 -2.4451  0.1077 -3.0237
10149TIP3   OH254641   5.023   5.505   9.933  0.3322 -0.7167 -0.0079
10149TIP3    H154642   4.969   5.503   9.854  1.4238 -1.4814 -0.7635
10149TIP3    H254643   5.108   5.538   9.904  0.9053 -1.4923  0.7325
10150TIP3   OH254644   6.185   2.054   9.716  0.5619  0.4296  0.0335
10150TIP3    H154645   6.095   2.062   9.687  0.9035  1.8067 -0.7508
10150TIP3    H254646   6.207   1.962   9.701  0.2318  0.7132 -2.7218
10151TIP3   OH254647   1.662   5.895   9.598  0.5633  0.2372  0.7495
10151TIP3    H154648   1.648   5.983   9.563 -1.3465 -0.2784  0.1072
10151TIP3    H254649   1.718   5.852   9.534  2.5726  1.3251  1.6862
10152TIP3   OH254650   1.170   1.022  11.106 -0.8845  0.7581  0.0203
10152TIP3    H154651   1.214   0.974  11.036  0.5980  1.4615  0.4436
10152TIP3    H254652   1.101   1.071  11.062 -0.4350  0.6293 -0.8434
10153TIP3   OH254653   3.070   0.853   9.696  0.3244 -0.2638  0.2016
10153TIP3    H154654   3.158   0.891   9.697  0.8774 -1.4658  1.8277
10153TIP3    H254655   3.085   0.759   9.683 -0.6650 -0.5548  1.0388
10154TIP3   OH254656   6.295   6.229  10.668 -0.1825  0.2144 -0.0150
10154TIP3    H154657   6.200   6.241  10.668 -0.5670 -2.2590  0.9815
10154TIP3    H254658   6.321   6.246  10.577 -1.8216 -0.4990 -0.6614
10155TIP3   OH254659   4.229   1.180  11.349 -0.4691  0.8253 -0.1063
10155TIP3    H154660   4.226   1.107  11.411  0.0953  0.6371 -0.2983
10155TIP3    H254661   4.246   1.257  11.404 -0.4679  0.7322  0.0249
10156TIP3   OH254662   2.257   6.391  12.216 -0.1012 -0.1559  0.5311
10156TIP3    H154663   2.262   6.376  12.310 -0.1798 -0.7715  0.4405
10156TIP3    H254664   2.252   6.303  12.178  4.1603 -0.2571 -0.3002
10157TIP3   OH254665   4.388   5.847  11.340  0.0082  0.2359  0.3201
10157TIP3    H154666   4.411   5.910  11.271 -1.2140 -0.3982 -0.7104
10157TIP3    H254667   4.389   5.762  11.296  1.7002 -0.5418  1.7059
10158TIP3   OH254668   6.354   3.311   8.700  0.0458 -0.1721 -0.3523
10158TIP3    H154669   6.398   3.228   8.680  0.4000 -0.4650  1.4585
10158TIP3    H254670   6.402   3.347   8.774 -0.9542  0.9773 -0.2173
10159TIP3   OH254671   4.929   1.042  10.119  0.4424 -0.3416 -0.4527
10159TIP3    H154672   5.010   1.004  10.151  0.0895 -0.4650  0.3177
10159TIP3    H254673   4.904   1.106  10.185  0.9037  1.1120 -1.6218
10160TIP3   OH254674   6.648   3.255   9.552 -0.4767 -0.3166  0.1899
10160TIP3    H154675   6.714   3.193   9.582  1.7209  1.0041 -1.6390
10160TIP3    H254676   6.672   3.338   9.593  0.1505  0.5812 -1.8691
10161TIP3   OH254677   2.931   3.033  11.226 -0.5545  0.4330 -0.1558
10161TIP3    H154678   2.897   2.951  11.263  2.6544 -1.4300 -0.9911
10161TIP3    H254679   2.979   3.073  11.298  0.6666 -0.1502 -0.6275
10162TIP3   OH254680   4.790   5.548  10.103  0.2274 -0.0429  0.8076
10162TIP3    H154681   4.832   5.572  10.021 -0.5239  0.3933  0.5444
10162TIP3    H254682   4.837   5.470  10.133 -0.4896 -1.1485 -0.8184
10163TIP3   OH254683   6.235   3.949   9.870  0.1484 -0.0741 -0.2713
10163TIP3    H154684   6.230   4.043   9.851 -1.6674 -0.1807 -0.4220
10163TIP3    H254685   6.231   3.944   9.965 -0.1818 -0.0245 -0.2833
10164TIP3   OH254686   4.269   0.420   8.605 -0.3913  0.5759 -0.5174
10164TIP3    H154687   4.351   0.372   8.602 -0.0593  1.1919 -1.7484
10164TIP3    H254688   4.201   0.354   8.594 -0.2070 -0.1885  2.2091
10165TIP3   OH254689   2.145   5.517  10.622  0.2476 -0.1306  0.0599
10165TIP3    H154690   2.181   5.601  10.649 -0.7677  0.4457 -0.2929
10165TIP3    H254691   2.216   5.474  10.575  0.8631  0.4186  0.4772
10166TIP3   OH254692   2.045   3.069   8.911  0.4369  0.4839  0.2051
10166TIP3    H154693   1.995   3.149   8.899 -0.0890  0.1608  0.2067
10166TIP3    H254694   1.983   3.007   8.949  0.4923 -0.2966 -0.9255
10167TIP3   OH254695   3.585   0.920   9.809  0.1725 -0.4919 -0.0274
10167TIP3    H154696   3.580   0.826   9.828 -1.1999 -0.6870 -1.2331
10167TIP3    H254697   3.675   0.934   9.781  1.5899 -0.6748  3.7611
10168TIP3   OH254698   6.243   5.211   9.222  0.3428 -0.1056  0.0588
10168TIP3    H154699   6.339   5.205   9.228  0.4414  0.0629 -1.0311
10168TIP3    H254700   6.226   5.220   9.128 -0.6332  1.6955  0.3586
10169TIP3   OH254701   4.132   4.417  10.690 -0.6569  0.3874  0.1292
10169TIP3    H154702   4.083   4.352  10.740  1.1597 -0.1447  1.3209
10169TIP3    H254703   4.130   4.496  10.745  0.1109  0.2374  0.3979
10170TIP3   OH254704   5.823   3.800  11.491  0.2973  0.4268 -0.3329
10170TIP3    H154705   5.763   3.763  11.555  2.1099  0.1557  1.2955
10170TIP3    H254706   5.800   3.893  11.487 -1.0229  0.1095 -0.7104
10171TIP3   OH254707   5.739   6.165  11.543  0.7504  0.3431  0.1775
10171TIP3    H154708   5.688   6.133  11.468  1.4115 -3.3985  1.1044
10171TIP3    H254709   5.678   6.222  11.590 -1.5844 -1.5044 -0.4036
10172TIP3   OH254710   3.338   6.507  10.519 -0.4348 -0.2329 -0.1646
10172TIP3    H154711   3.343   6.496  10.614  0.4242 -0.1927 -0.1967
10172TIP3    H254712   3.428   6.528  10.493 -0.8344  0.6797 -0.8686
10173TIP3   OH254713   5.322   4.197  10.000  0.5228  0.0084  0.8720
10173TIP3    H154714   5.240   4.220   9.955  0.7600  0.4386  0.6514
10173TIP3    H254715   5.297   4.186  10.091  0.2944  0.5765  0.8832
10174TIP3   OH254716   4.399   4.393  10.229  0.2009 -0.5231  0.4055
10174TIP3    H154717   4.462   4.332  10.267  0.7697  0.5405  1.1995
10174TIP3    H254718   4.353   4.431  10.304  1.1699  1.4209  0.0682
10175TIP3   OH254719   5.194   2.316  11.838  0.0513  0.1139 -0.4032
10175TIP3    H154720   5.270   2.280  11.793  0.6407  2.2266 -1.2117
10175TIP3    H254721   5.231   2.369  11.908 -0.7479  0.0939  0.0424
10176TIP3   OH254722   0.020   5.348  10.506  0.0534  0.4581  0.6956
10176TIP3    H154723   0.025   5.253  10.517  0.2571  0.7201  3.7215
10176TIP3    H254724   0.111   5.377  10.502 -0.0034  0.5340 -0.9491
10177TIP3   OH254725   2.358   5.301  10.643 -0.1848  0.2298  0.3926
10177TIP3    H154726   2.271   5.264  10.628  0.4668 -0.5136 -1.9368
10177TIP3    H254727   2.402   5.236  10.698 -0.5710 -0.2102  0.1950
10178TIP3   OH254728   2.764   2.772   9.604 -0.1523  0.0331 -0.3150
10178TIP3    H154729   2.813   2.697   9.572 -0.2108  1.0939 -3.2093
10178TIP3    H254730   2.820   2.847   9.585 -0.7652  0.8766  1.0499
10179TIP3   OH254731   0.751   1.658   9.483  0.1030  0.0280  0.0101
10179TIP3    H154732   0.813   1.588   9.467  0.6728  0.6426 -0.5164
10179TIP3    H254733   0.685   1.649   9.414  1.2009  1.1478 -1.2230
10180TIP3   OH254734   0.096   5.859   9.028 -0.6118 -0.4971 -0.0480
10180TIP3    H154735   0.081   5.931   9.089  0.0774 -0.4881  0.1235
10180TIP3    H254736   0.188   5.835   9.041 -0.2752 -0.1079 -1.4960
10181TIP3   OH254737   3.597   5.772  10.775 -0.2254 -0.0311  0.3141
10181TIP3    H154738   3.656   5.700  10.797 -0.3415  0.2502  1.6417
10181TIP3    H254739   3.511   5.732  10.771 -0.2616 -0.0158  0.8452
10182TIP3   OH254740   1.343   4.489   9.412  0.3574  0.3548 -0.1269
10182TIP3    H154741   1.346   4.453   9.501 -0.0268  1.7837  0.4960
10182TIP3    H254742   1.435   4.498   9.387  0.4585 -0.7041 -0.1586
10183TIP3   OH254743   0.563   2.780   9.853 -0.3900 -0.1656 -0.3854
10183TIP3    H154744   0.641   2.772   9.798  0.2808 -0.8011  0.6254
10183TIP3    H254745   0.565   2.871   9.884  0.5870 -0.4764  0.5233
10184TIP3   OH254746   4.413   0.359   9.021 -0.0445 -0.3483  0.1589
10184TIP3    H154747   4.497   0.333   9.058 -0.3014 -1.0760  0.2569
10184TIP3    H254748   4.370   0.408   9.090  0.2590 -0.0540  0.1410
10185TIP3   OH254749   1.075   4.560  12.185  0.8390  0.0250  0.3401
10185TIP3    H154750   1.140   4.490  12.190  1.9917  1.0468  0.0396
10185TIP3    H254751   0.991   4.514  12.187  1.5390 -1.2982  1.2073
10186TIP3   OH254752   3.447   6.122  11.606  0.1504  0.0725 -0.1618
10186TIP3    H154753   3.436   6.123  11.701 -0.6186 -0.6283 -0.2291
10186TIP3    H254754   3.417   6.035  11.580  0.9185  0.0519 -0.9865
10187TIP3   OH254755   2.125   3.485  10.644 -0.7136  0.2318  0.5434
10187TIP3    H154756   2.121   3.470  10.738 -2.9964 -0.2002  0.4178
10187TIP3    H254757   2.036   3.508  10.619 -0.3708 -0.5951 -1.6789
10188TIP3   OH254758   5.010   2.389   9.243 -0.1650 -0.7394 -0.0989
10188TIP3    H154759   4.923   2.409   9.278  0.0788  0.0368  0.1011
10188TIP3    H254760   5.019   2.447   9.167  1.3136  1.4555  1.6101
10189TIP3   OH254761   4.579   2.510  10.707  0.5252 -0.1214 -0.1019
10189TIP3    H154762   4.599   2.416  10.705  2.0567  0.1175 -3.2729
10189TIP3    H254763   4.492   2.516  10.667 -0.0129 -0.2224  1.0229
10190TIP3   OH254764   5.031   1.144  10.863 -0.2785 -0.1412  0.7233
10190TIP3    H154765   5.079   1.203  10.805 -0.6097 -0.7870 -0.2295
10190TIP3    H254766   5.094   1.121  10.932  0.6118 -0.5569 -0.2074
10191TIP3   OH254767   0.154   1.809   9.277 -0.3739  0.6586 -0.8645
10191TIP3    H154768   0.108   1.812   9.193 -0.9027  2.1119 -0.5516
10191TIP3    H254769   0.150   1.898   9.309  0.0153  0.1644  0.6155
10192TIP3   OH254770   4.954   3.481  10.861  0.3922  0.0638  0.0336
10192TIP3    H154771   4.948   3.557  10.919 -0.1543  2.0249 -2.4326
10192TIP3    H254772   4.865   3.446  10.858  0.3909  0.0442  0.2638
10193TIP3   OH254773   5.184   2.531  11.618 -0.1315 -0.0474  0.4152
10193TIP3    H154774   5.205   2.491  11.702 -2.6845  0.5547  1.4315
10193TIP3    H254775   5.227   2.617  11.621  1.1964 -0.6844  0.3394
10194TIP3   OH254776   1.426   1.218  11.363  0.0462  0.0447  0.2824
10194TIP3    H154777   1.352   1.259  11.408 -0.5167 -0.5965 -0.0263
10194TIP3    H254778   1.503   1.261  11.399 -0.2745 -1.3560  2.9194
10195TIP3   OH254779   2.449   1.250  10.338 -0.3122  0.0777  0.0298
10195TIP3    H154780   2.401   1.199  10.402 -0.7125 -0.0723 -0.3870
10195TIP3    H254781   2.465   1.334  10.381  0.4991 -0.4398  0.7844
10196TIP3   OH254782   3.731   0.324  11.351 -0.9639 -0.8582  0.2831
10196TIP3    H154783   3.755   0.332  11.259 -1.0221 -1.4423  0.2121
10196TIP3    H254784   3.742   0.412  11.387 -0.0671 -0.8109 -0.0742
10197TIP3   OH254785   3.359   2.445  11.481  0.1345 -0.2296 -0.1101
10197TIP3    H154786   3.422   2.403  11.540 -1.2447  0.1645  1.7298
10197TIP3    H254787   3.395   2.430  11.393  2.1595 -1.0300  0.7870
10198TIP3   OH254788   4.696   4.404   9.152  0.2442  0.0196  0.3172
10198TIP3    H154789   4.724   4.439   9.236  2.1519 -0.7386  0.0558
10198TIP3    H254790   4.651   4.477   9.109  1.9718  1.4326  0.7593
10199TIP3   OH254791   3.143   2.005   9.217  0.0847 -0.4358  0.0213
10199TIP3    H154792   3.068   1.984   9.272 -1.0064 -2.3931 -2.0452
10199TIP3    H254793   3.169   1.921   9.178  2.3389  0.4536 -0.5938
10200TIP3   OH254794   2.232   3.543  11.672 -0.5732 -0.3995 -0.2117
10200TIP3    H154795   2.286   3.518  11.597 -0.3099  0.7853 -0.4428
10200TIP3    H254796   2.245   3.474  11.736  1.8599  0.2264  0.0533
10201TIP3   OH254797   0.865   1.337  10.456  0.3556 -0.0354 -0.5114
10201TIP3    H154798   0.908   1.269  10.508 -0.2282 -0.9971 -1.2355
10201TIP3    H254799   0.849   1.295  10.371  2.0407  1.7354 -1.7946
10202TIP3   OH254800   5.689   1.350   9.745 -0.0501  0.4115 -0.0105
10202TIP3    H154801   5.693   1.272   9.690 -0.7559  0.2480  0.1613
10202TIP3    H254802   5.598   1.355   9.773  0.2994  0.4704  1.1878
10203TIP3   OH254803   0.753   2.449   8.638  0.4454 -0.5297  0.2204
10203TIP3    H154804   0.791   2.384   8.579 -2.0551 -1.6486 -0.2928
10203TIP3    H254805   0.780   2.420   8.725  0.4434 -1.5061 -0.0895
10204TIP3   OH254806   6.614   1.943  11.325  0.5399 -0.4048 -0.0194
10204TIP3    H154807   6.655   1.863  11.292  0.1198 -0.4896 -0.3439
10204TIP3    H254808   6.654   2.013  11.274 -1.0678 -0.6375 -1.7183
10205TIP3   OH254809   0.201   1.277  11.703  0.5737 -0.3049  0.2150
10205TIP3    H154810   0.205   1.239  11.791  0.4384  0.0179  0.3613
10205TIP3    H254811   0.195   1.201  11.645  1.1248 -0.5397  0.4531
10206TIP3   OH254812   0.670   2.042  11.208 -0.8771  0.0159  0.0821
10206TIP3    H154813   0.616   1.985  11.263 -0.5055 -0.0187  0.4142
10206TIP3    H254814   0.760   2.012  11.223 -0.5790  1.2994  0.9871
10207TIP3   OH254815   1.278   1.312  12.125  0.2757 -0.1821  1.3667
10207TIP3    H154816   1.315   1.396  12.097  0.4544 -0.2732  1.3298
10207TIP3    H254817   1.210   1.293  12.061  1.0029 -0.6234  0.7209
10208TIP3   OH254818   5.647   0.513  11.286  0.0233  0.2251  0.1429
10208TIP3    H154819   5.629   0.483  11.375  0.7098  0.8418  0.5023
10208TIP3    H254820   5.738   0.543  11.289  0.0339  0.3103 -0.7510
10209TIP3   OH254821   3.998   0.020   9.063 -0.1849  0.2361 -0.3261
10209TIP3    H154822   3.986  -0.060   9.011  0.2893  0.5498 -0.9290
10209TIP3    H254823   3.921   0.074   9.041 -1.7774 -0.9922  1.8913
10210TIP3   OH254824   5.416   4.154   9.232  0.2263  0.3662  0.1096
10210TIP3    H154825   5.368   4.157   9.150 -0.6301 -0.2651  0.5716
10210TIP3    H254826   5.356   4.190   9.297  0.0131 -1.1957  0.8407
10211TIP3   OH254827   6.570   1.248   9.188 -0.2468  0.0352 -0.0539
10211TIP3    H154828   6.494   1.288   9.230  0.3937  0.9091  0.3047
10211TIP3    H254829   6.633   1.319   9.180  0.1304 -0.4177 -1.3568
10212TIP3   OH254830   1.175   3.173   9.839 -0.1728  0.4771 -0.0045
10212TIP3    H154831   1.243   3.239   9.846  1.0021 -0.7205  0.2312
10212TIP3    H254832   1.124   3.182   9.919  1.2392 -0.2325  1.0063
10213TIP3   OH254833   6.137   4.845  10.258 -0.2440 -0.0052  0.3825
10213TIP3    H154834   6.104   4.919  10.207  1.3809  0.1755 -0.4867
10213TIP3    H254835   6.120   4.769  10.203 -0.1225 -0.0249  0.3706
10214TIP3   OH254836   6.254   2.533  10.473  0.1756  0.2543  0.1248
10214TIP3    H154837   6.259   2.571  10.561  0.2560  0.1384  0.1712
10214TIP3    H254838   6.325   2.468  10.471  0.6857  0.8077 -0.2948
10215TIP3   OH254839   2.250   3.390   8.477  0.6122 -0.3590 -0.3662
10215TIP3    H154840   2.187   3.455   8.510 -0.8898 -1.8600 -0.1605
10215TIP3    H254841   2.325   3.442   8.449  0.8616  1.2477  2.8192
10216TIP3   OH254842   4.365   1.545   9.089  0.6118 -0.6173 -0.1730
10216TIP3    H154843   4.372   1.616   9.024  2.3063  0.0435  0.6674
10216TIP3    H254844   4.310   1.479   9.046 -0.5202  0.9210 -1.2197
10217TIP3   OH254845   5.646   3.864  10.878 -0.4516  0.1256 -0.3965
10217TIP3    H154846   5.596   3.785  10.860  1.3038 -1.1928  0.2752
10217TIP3    H254847   5.710   3.838  10.944  0.6105  1.9415 -0.6402
10218TIP3   OH254848   3.781   1.285  10.940 -0.3408 -0.0408  0.3078
10218TIP3    H154849   3.757   1.375  10.963 -0.2851  0.4036 -1.2864
10218TIP3    H254850   3.725   1.264  10.865 -1.4581 -1.9084  1.5734
10219TIP3   OH254851   0.537   0.854   8.654  0.1595 -0.2207 -0.0542
10219TIP3    H154852   0.572   0.775   8.696  0.2680 -1.4332 -2.2804
10219TIP3    H254853   0.482   0.821   8.583 -0.0083  1.7209 -0.8913
10220TIP3   OH254854   5.272   5.946  10.670  0.5667  0.7461 -0.4594
10220TIP3    H154855   5.322   5.954  10.590  1.3077  2.0135  0.1099
10220TIP3    H254856   5.181   5.955  10.642  0.8496  1.8257 -1.0823
10221TIP3   OH254857   3.169   4.485  10.040 -0.3160 -0.0128 -0.2224
10221TIP3    H154858   3.081   4.448  10.027 -0.7827  0.5831  1.0430
10221TIP3    H254859   3.223   4.410  10.064 -0.3670 -0.4558 -1.4367
10222TIP3   OH254860   5.237   2.294   9.816 -0.1259 -0.9299  0.1890
10222TIP3    H154861   5.181   2.287   9.739 -0.0787 -1.3804  0.1966
10222TIP3    H254862   5.185   2.258   9.888 -0.5346  0.3535  0.5636
10223TIP3   OH254863   6.601   0.040   9.540  0.3505 -0.1742  0.0124
10223TIP3    H154864   6.659   0.072   9.609 -1.8121 -0.4315  2.0671
10223TIP3    H254865   6.623   0.095   9.464  2.3243  0.6118  1.0734
10224TIP3   OH254866   0.251   6.394  10.353 -0.6331  1.1990 -0.4889
10224TIP3    H154867   0.301   6.437  10.423  1.5131 -1.2617 -0.3667
10224TIP3    H254868   0.298   6.416  10.273  1.5297 -2.0304 -0.2622
10225TIP3   OH254869   0.846   4.350   9.802  0.4828  0.0360  0.2241
10225TIP3    H154870   0.789   4.305   9.865  0.3586  1.5868  1.2824
10225TIP3    H254871   0.922   4.292   9.793 -0.6143 -1.4162 -0.1760
10226TIP3   OH254872   1.100   0.929   9.696 -0.4894  0.0244  0.0370
10226TIP3    H154873   1.139   0.845   9.720 -2.2725 -0.5883  0.9318
10226TIP3    H254874   1.149   0.993   9.747 -2.0033 -0.9371  2.9258
10227TIP3   OH254875   5.462   6.457   8.630  0.7426  0.2871  0.3794
10227TIP3    H154876   5.378   6.473   8.588  1.3434  0.5237 -0.7973
10227TIP3    H254877   5.491   6.373   8.595  1.0792  0.3079  0.6021
10228TIP3   OH254878   0.438   5.460   8.546 -0.0962  0.0149 -0.2694
10228TIP3    H154879   0.362   5.407   8.521  0.5205 -2.2815  2.2183
10228TIP3    H254880   0.400   5.536   8.590 -0.9702  0.0039 -0.9611
10229TIP3   OH254881   0.587   0.413  10.031 -0.6384  0.3482  0.0534
10229TIP3    H154882   0.609   0.474   9.961 -0.7413 -0.2226 -0.4862
10229TIP3    H254883   0.646   0.436  10.103  1.5156 -0.8797 -1.2180
10230TIP3   OH254884   0.486   4.030  10.746 -0.1021  0.1836  0.8464
10230TIP3    H154885   0.560   4.036  10.686 -1.4978  1.4385 -0.8539
10230TIP3    H254886   0.464   4.121  10.767 -2.1451 -0.0774  0.0004
10231TIP3   OH254887   6.586   2.481  10.928 -0.5623  0.2610 -0.4359
10231TIP3    H154888   6.507   2.427  10.933 -1.3963  1.4841  0.3011
10231TIP3    H254889   6.601   2.494  10.834 -0.7060 -0.7181 -0.6000
10232TIP3   OH254890   1.773   3.340  10.398  0.0282  0.5440 -0.9061
10232TIP3    H154891   1.712   3.270  10.373  0.9279 -0.6612  0.0813
10232TIP3    H254892   1.859   3.299  10.393  0.7385  2.0748 -1.8217
10233TIP3   OH254893   0.736   2.163  10.949  0.0714 -0.4346 -0.2097
10233TIP3    H154894   0.682   2.128  11.020 -1.2154 -1.8446 -1.7968
10233TIP3    H254895   0.718   2.257  10.950 -3.7492 -0.9373 -1.5342
10234TIP3   OH254896   5.533   2.842   9.631 -0.3252  0.3917  0.2911
10234TIP3    H154897   5.459   2.826   9.574 -0.3656 -1.4500  0.7880
10234TIP3    H254898   5.537   2.764   9.688 -0.5222  2.2354  3.0487
10235TIP3   OH254899   3.471   0.166   9.337  0.3696  0.0803  0.7721
10235TIP3    H154900   3.394   0.109   9.330  0.5744  0.0259 -2.2799
10235TIP3    H254901   3.545   0.109   9.314  0.7845  1.1045 -0.5580
10236TIP3   OH254902   0.167   6.630   9.175 -0.0275 -0.1476 -0.0215
10236TIP3    H154903   0.208   6.715   9.190  0.0520  0.0000 -1.0431
10236TIP3    H254904   0.101   6.646   9.108  1.1171 -1.1914 -1.4506
10237TIP3   OH254905   3.123   1.419   8.509  0.4750  0.2975  0.3085
10237TIP3    H154906   3.089   1.508   8.506 -0.2477  0.0465  0.7604
10237TIP3    H254907   3.150   1.400   8.419 -1.0011  0.3505 -0.1723
10238TIP3   OH254908   1.073   6.381  10.246 -0.2123  0.1324  0.2249
10238TIP3    H154909   1.108   6.446  10.307  0.0583 -0.6828  0.9632
10238TIP3    H254910   1.021   6.322  10.301 -1.9233  0.7158 -0.6972
10239TIP3   OH254911   2.028   0.829   8.378  0.0142 -0.1389  0.1963
10239TIP3    H154912   2.007   0.905   8.432  2.1872 -0.0779  1.0417
10239TIP3    H254913   1.942   0.792   8.355 -1.1022  2.4348 -0.1223
10240TIP3   OH254914   5.724   3.922   8.541  0.9528  0.0078 -0.1402
10240TIP3    H154915   5.807   3.892   8.504  0.1310  0.5072 -2.5521
10240TIP3    H254916   5.729   4.018   8.538  0.7528  0.0674  0.8853
10241TIP3   OH254917   2.173   1.474   9.692 -0.2644  0.0513  0.1060
10241TIP3    H154918   2.213   1.402   9.741 -0.7642 -0.5566 -0.3603
10241TIP3    H254919   2.155   1.437   9.605 -2.2634  0.1396  0.4374
10242TIP3   OH254920   0.760   5.625   9.890 -0.3803  0.0579  0.0025
10242TIP3    H154921   0.817   5.560   9.849 -0.2340  0.3457 -0.2514
10242TIP3    H254922   0.672   5.588   9.882 -0.4052  0.3156 -0.9718
10243TIP3   OH254923   6.225   1.775  12.400 -0.1398  0.1023 -0.2199
10243TIP3    H154924   6.230   1.702  12.338 -1.5506 -1.8989  1.8624
10243TIP3    H254925   6.313   1.811  12.401 -0.1842  0.6623 -3.7736
10244TIP3   OH254926   5.978   0.319   8.518  0.0874  0.0536  0.2974
10244TIP3    H154927   5.891   0.294   8.548  0.3006 -1.0680  0.0274
10244TIP3    H254928   5.966   0.345   8.427 -0.2261  1.5242  0.7350
10245TIP3   OH254929   0.996   5.078  10.372 -0.0951 -0.1570 -0.0425
10245TIP3    H154930   0.903   5.099  10.381  0.0504 -0.1659  1.8951
10245TIP3    H254931   1.030   5.079  10.462  1.7932 -0.1067 -0.7124
10246TIP3   OH254932   2.184   0.295   9.084  0.4464 -0.2727  0.0391
10246TIP3    H154933   2.244   0.360   9.047  0.2165 -0.3010 -0.3914
10246TIP3    H254934   2.165   0.236   9.012  1.1926 -1.2390  0.6053
10247TIP3   OH254935   1.998   4.361  10.647 -0.5857  0.7190  0.0060
10247TIP3    H154936   1.923   4.418  10.633 -0.6613  0.1559 -2.1601
10247TIP3    H254937   2.066   4.418  10.683 -0.3958  2.4149 -2.7999
10248TIP3   OH254938   2.278   2.531  11.420  0.0690  0.4519  0.2086
10248TIP3    H154939   2.350   2.469  11.419  0.4438  0.8758  0.5500
10248TIP3    H254940   2.320   2.617  11.414 -0.4810  0.6575 -1.0945
10249TIP3   OH254941   4.927   3.381   9.413  0.1189  0.6235 -0.6257
10249TIP3    H154942   4.920   3.339   9.327 -0.8389  1.1356 -0.8155
10249TIP3    H254943   4.907   3.311   9.476  1.1673  0.1652 -0.7949
10250TIP3   OH254944   0.300   1.164   8.836  0.3608 -0.2299 -0.2598
10250TIP3    H154945   0.339   1.176   8.923 -2.7524  0.2802  1.2027
10250TIP3    H254946   0.208   1.143   8.854 -0.6397  0.9127 -3.4485
10251TIP3   OH254947   1.778   5.948  11.889  0.3134  0.3558 -0.1015
10251TIP3    H154948   1.873   5.945  11.886  0.2978  0.2488 -2.6239
10251TIP3    H254949   1.752   5.857  11.906  0.6597  0.1778 -0.5036
10252TIP3   OH254950   2.820   2.673  11.458 -0.0438  0.3873  0.6151
10252TIP3    H154951   2.782   2.761  11.462  1.3880  1.1361 -0.9154
10252TIP3    H254952   2.912   2.687  11.435 -0.0339 -1.5269 -0.8056
10253TIP3   OH254953   6.007   0.566  10.715 -0.1327  0.0403 -0.4541
10253TIP3    H154954   5.912   0.567  10.726 -0.1577 -1.2635 -0.3464
10253TIP3    H254955   6.024   0.483  10.671  0.9999  0.0611 -0.0665
10254TIP3   OH254956   0.850   4.848   9.325  0.0966 -0.2033  0.1034
10254TIP3    H154957   0.819   4.939   9.325 -0.4196 -0.3751  0.6385
10254TIP3    H254958   0.836   4.817   9.415 -0.4602 -1.0540 -0.2639
10255TIP3   OH254959   0.664   0.576   8.323 -0.5737 -0.3864  0.0763
10255TIP3    H154960   0.752   0.543   8.304 -0.8446 -0.4847 -1.1290
10255TIP3    H254961   0.607   0.499   8.315 -0.8461 -0.2055  0.2381
10256TIP3   OH254962   0.800   5.835   9.519  0.1730  0.0517  0.5175
10256TIP3    H154963   0.718   5.790   9.502 -0.2000  0.3003  1.6076
10256TIP3    H254964   0.828   5.804   9.605  0.3037  1.3033  0.9497
10257TIP3   OH254965   3.559   2.656   9.280 -0.2547 -0.0307 -0.6554
10257TIP3    H154966   3.560   2.665   9.185  2.2154  1.6917 -0.5496
10257TIP3    H254967   3.644   2.618   9.302  0.2978  1.9613  0.9880
10258TIP3   OH254968   2.508   4.189   8.760  0.1431  0.8610  0.1685
10258TIP3    H154969   2.471   4.115   8.712  2.1813 -0.8191  1.0576
10258TIP3    H254970   2.580   4.219   8.705  1.3428  0.0900  1.2782
10259TIP3   OH254971   5.970   0.570   8.281  0.0618 -0.1186  0.2752
10259TIP3    H154972   5.951   0.650   8.331  1.7746  1.1258 -0.9211
10259TIP3    H254973   6.065   0.573   8.268 -0.1013 -1.3706 -1.4423
10260TIP3   OH254974   2.871   4.506  12.175  0.0227 -0.0059 -0.3906
10260TIP3    H154975   2.951   4.546  12.208 -0.3702  1.2115 -0.8500
10260TIP3    H254976   2.837   4.455  12.248  0.2890  0.9113  0.3896
10261TIP3   OH254977   3.910   2.825  10.851  0.2502 -0.0104 -0.0382
10261TIP3    H154978   3.837   2.802  10.794  0.8383 -1.4259 -0.2603
10261TIP3    H254979   3.927   2.917  10.832 -0.6951  0.0096 -0.8558
10262TIP3   OH254980   1.998   5.853  10.809  0.4638 -0.0980  0.2835
10262TIP3    H154981   1.945   5.783  10.771  0.8557 -1.6280  2.3941
10262TIP3    H254982   2.076   5.856  10.754  0.6612 -1.6826  0.4260
10263TIP3   OH254983   2.078   2.244   8.428 -0.1468 -0.0258  0.0070
10263TIP3    H154984   2.171   2.259   8.414  0.2510  0.4570  2.7492
10263TIP3    H254985   2.049   2.316   8.483 -1.8247 -0.9139  0.3833
10264TIP3   OH254986   4.327   3.599  10.011 -0.9608  0.0581 -0.3044
10264TIP3    H154987   4.268   3.610   9.936  0.5107  1.1443 -1.3696
10264TIP3    H254988   4.367   3.513   9.997  1.2791  1.3018 -2.3424
10265TIP3   OH254989   3.263   5.917   8.892  0.2573 -0.1604  0.0664
10265TIP3    H154990   3.263   5.852   8.962 -0.2661  1.6275  1.8090
10265TIP3    H254991   3.317   5.878   8.823  0.9194 -1.9271  1.5101
10266TIP3   OH254992   5.954   2.777  10.478  0.9532  0.1254  0.3254
10266TIP3    H154993   5.903   2.765  10.557 -1.2447 -2.0274 -1.2791
10266TIP3    H254994   5.931   2.865  10.448 -1.8977 -0.7426 -0.2991
10267TIP3   OH254995   5.614   5.527   9.532 -0.0307 -0.2483 -0.2710
10267TIP3    H154996   5.599   5.433   9.536 -0.6178 -0.1317  0.7758
10267TIP3    H254997   5.659   5.548   9.613  0.8111  0.2711 -0.8559
10268TIP3   OH254998   4.420   4.813   9.885  0.1714  0.2493 -0.1444
10268TIP3    H154999   4.471   4.772   9.815 -1.3526 -0.3383 -0.9534
10268TIP3    H255000   4.428   4.907   9.867  0.1742  0.1237 -0.8505
10269TIP3   OH255001   6.100   4.911  11.534 -0.3140 -0.6775 -0.1915
10269TIP3    H155002   6.148   4.982  11.492 -0.4979 -0.9176 -0.8096
10269TIP3    H255003   6.058   4.952  11.609 -0.1244 -0.2120 -0.3382
10270TIP3   OH255004   1.573   2.594   8.551  0.2529  0.2855 -0.2987
10270TIP3    H155005   1.576   2.561   8.461 -0.8720 -1.3782  0.2253
10270TIP3    H255006   1.508   2.665   8.548 -2.3447 -1.9296 -0.2359
10271TIP3   OH255007   4.081   6.269  12.234 -0.8782 -0.1780  0.3407
10271TIP3    H155008   4.155   6.301  12.184 -1.2890  0.1064 -0.0880
10271TIP3    H255009   4.106   6.283  12.325 -0.4589  0.0264  0.1984
10272TIP3   OH255010   0.845   6.495  10.547 -0.7033 -0.2641  0.4472
10272TIP3    H155011   0.845   6.563  10.479  0.2707  0.2402  0.9419
10272TIP3    H255012   0.766   6.512  10.598 -0.7591  0.1528  0.2224
10273TIP3   OH255013   3.630   1.669   9.698  0.5741  0.0655 -0.4705
10273TIP3    H155014   3.573   1.746   9.695  0.7223  0.2862  1.3413
10273TIP3    H255015   3.581   1.605   9.750  0.7270 -0.8469 -1.4198
10274TIP3   OH255016   0.827   1.828   9.745  0.1434  0.1064 -0.5474
10274TIP3    H155017   0.922   1.823   9.749  0.0622 -3.6160  0.4727
10274TIP3    H255018   0.803   1.772   9.671 -1.2805 -1.2945  0.8953
10275TIP3   OH255019   5.862   5.530   8.641 -0.2455  0.6759  0.5191
10275TIP3    H155020   5.815   5.573   8.570 -0.4921 -0.2007  0.1423
10275TIP3    H255021   5.794   5.485   8.692 -0.1400  1.7129  1.6232
10276TIP3   OH255022   2.713   6.539   9.311  0.2502 -0.3283  0.1572
10276TIP3    H155023   2.655   6.608   9.279  2.0280  0.5704 -1.2853
10276TIP3    H255024   2.653   6.473   9.347 -1.5339  1.5674  0.8524
10277TIP3   OH255025   0.958   4.180   8.511  0.2098  0.4989 -0.3775
10277TIP3    H155026   0.931   4.197   8.421  0.3551  1.0692 -0.3187
10277TIP3    H255027   1.051   4.205   8.513 -0.3294  2.7060  0.4708
10278TIP3   OH255028   5.201   0.187   8.531  0.0684 -0.0152  0.4667
10278TIP3    H155029   5.129   0.127   8.509  0.5660  0.0354 -1.4238
10278TIP3    H255030   5.170   0.272   8.502  1.0223 -0.0559 -0.7388
10279TIP3   OH255031   1.441   3.675   9.988  0.1129  0.1716  0.2271
10279TIP3    H155032   1.482   3.754  10.025 -0.4878 -0.1623  1.6709
10279TIP3    H255033   1.515   3.615   9.973  0.5205  0.8217 -0.4293
10280TIP3   OH255034   3.081   3.291  10.076 -0.0098 -0.2425  0.3461
10280TIP3    H155035   3.126   3.207  10.085  0.3172 -0.2085 -0.8307
10280TIP3    H255036   2.996   3.268  10.038 -0.5917 -0.1935  1.5602
10281TIP3   OH255037   4.764   2.345   8.321 -0.1136 -0.5081 -0.2460
10281TIP3    H155038   4.723   2.355   8.235  0.5075 -1.4859 -0.6728
10281TIP3    H255039   4.691   2.351   8.383 -0.7208 -0.8909 -0.9116
10282TIP3   OH255040   4.261   0.967   8.788 -0.4870  0.2888  0.1459
10282TIP3    H155041   4.281   0.875   8.767 -0.0893  0.9646 -2.8599
10282TIP3    H255042   4.345   1.011   8.784 -1.0380  1.2630 -1.4524
10283TIP3   OH255043   3.291   1.066  10.226  0.0318 -0.1009 -0.2393
10283TIP3    H155044   3.304   1.161  10.236  4.5418 -0.4146 -1.0214
10283TIP3    H255045   3.264   1.056  10.135 -0.2796  0.4398 -0.2121
10284TIP3   OH255046   2.038   3.795   9.720  0.3410  0.7098  0.2160
10284TIP3    H155047   2.095   3.797   9.797  1.5692 -0.7304 -0.5974
10284TIP3    H255048   2.089   3.836   9.650  1.2591 -2.2272 -0.9967
10285TIP3   OH255049   2.281   3.538  12.184 -0.2391 -0.2965 -0.2268
10285TIP3    H155050   2.276   3.450  12.220  0.3100 -0.1159  0.3152
10285TIP3    H255051   2.190   3.562  12.165 -0.5701 -0.3709  1.1336
10286TIP3   OH255052   3.859   1.010   9.886  0.2560  0.3638 -0.3842
10286TIP3    H155053   3.875   1.064   9.809 -1.3359  1.8767  0.2883
10286TIP3    H255054   3.817   1.069   9.949 -0.5519 -1.3889  0.7971
10287TIP3   OH255055   3.522   6.381  12.188  0.2872  0.1506  0.3847
10287TIP3    H155056   3.566   6.347  12.110  0.3255 -0.3254  0.6137
10287TIP3    H255057   3.465   6.450  12.155 -0.4673 -0.7326 -0.2017
10288TIP3   OH255058   0.129   5.935   8.474  0.3536  0.3047  0.0801
10288TIP3    H155059   0.157   5.914   8.385 -1.2584 -0.5130 -0.2606
10288TIP3    H255060   0.210   5.939   8.524  1.1655 -0.7780 -1.1047
10289TIP3   OH255061   3.394   3.309   9.572  0.0207 -0.1154 -0.2306
10289TIP3    H155062   3.325   3.283   9.633  0.5393  1.4115  1.1044
10289TIP3    H255063   3.368   3.396   9.542  1.9338  1.1039  1.3665
10290TIP3   OH255064   6.379   2.693   9.042 -0.3091 -0.1458  0.2645
10290TIP3    H155065   6.330   2.640   9.105 -0.5730 -0.8009 -0.4883
10290TIP3    H255066   6.314   2.754   9.006  0.2514  1.6794  2.1085
10291TIP3   OH255067   5.939   4.367   9.100  0.1411 -0.4556  0.1783
10291TIP3    H155068   5.987   4.317   9.167  0.1885 -2.8283 -1.5024
10291TIP3    H255069   5.923   4.303   9.030 -2.5165  1.1419 -0.7977
10292TIP3   OH255070   2.563   2.654  11.985 -0.0229  0.0745 -0.0011
10292TIP3    H155071   2.605   2.670  11.900  2.3103  1.1921  1.2716
10292TIP3    H255072   2.534   2.740  12.014  1.4157  0.1347  1.3831
10293TIP3   OH255073   4.314   2.182   9.025 -0.2866  0.3130  0.5549
10293TIP3    H155074   4.260   2.147   9.096  0.6423 -0.8105  0.7377
10293TIP3    H255075   4.366   2.250   9.067 -0.1311  0.0250  0.8395
10294TIP3   OH255076   5.591   0.816  10.340 -0.1038 -0.9426  0.2793
10294TIP3    H155077   5.565   0.810  10.432 -0.1130 -1.6112  0.2356
10294TIP3    H255078   5.595   0.910  10.322  1.0750 -0.7632  1.3029
10295TIP3   OH255079   4.764   5.562  11.069 -0.0402 -0.3771  0.2175
10295TIP3    H155080   4.683   5.516  11.090 -0.0983 -0.5635 -0.3764
10295TIP3    H255081   4.821   5.494  11.033  0.4134 -0.2638  0.7153
10296TIP3   OH255082   1.186   1.724  10.278  0.1254 -0.1569  0.0317
10296TIP3    H155083   1.151   1.637  10.261  0.3811 -0.0057 -1.4106
10296TIP3    H255084   1.135   1.782  10.222  1.4139  0.3103 -0.7051
10297TIP3   OH255085   4.351   2.186   8.567 -0.0803 -0.0371 -0.5094
10297TIP3    H155086   4.257   2.171   8.581 -0.2892  1.4010 -0.2245
10297TIP3    H255087   4.390   2.099   8.575 -1.4074 -0.6972 -0.8365
10298TIP3   OH255088   6.298   0.928  11.406 -0.2024 -0.1819 -0.0826
10298TIP3    H155089   6.213   0.917  11.364 -0.7988 -2.1827  1.4582
10298TIP3    H255090   6.361   0.927  11.334 -1.4598  2.0484 -1.3146
10299TIP3   OH255091   1.137   0.835   9.341 -0.2215 -0.0816 -0.3702
10299TIP3    H155092   1.202   0.765   9.340  0.5266  0.6023 -1.1210
10299TIP3    H255093   1.188   0.915   9.354 -1.0260  0.3689  0.1430
10300TIP3   OH255094   1.690   3.351  10.741  0.3642 -0.5053  0.1877
10300TIP3    H155095   1.769   3.300  10.759  1.0314 -0.8723 -3.0193
10300TIP3    H255096   1.722   3.432  10.702 -0.7943 -0.3042 -0.4101
10301TIP3   OH255097   5.368   6.443  11.677  0.1637 -0.6905  0.0224
10301TIP3    H155098   5.366   6.359  11.632  3.0614 -0.7545 -0.1412
10301TIP3    H255099   5.428   6.497  11.625 -0.1151  0.8288  1.2005
10302TIP3   OH255100   5.216   3.693   9.518 -0.0522 -0.7451  0.2386
10302TIP3    H155101   5.205   3.627   9.449 -1.3319  1.1777 -1.5425
10302TIP3    H255102   5.310   3.697   9.533  0.1401 -2.1995 -0.3661
10303TIP3   OH255103   5.396   4.905  10.793 -0.7535 -0.4402 -0.2205
10303TIP3    H155104   5.433   4.883  10.707  0.8541 -0.2668  0.3948
10303TIP3    H255105   5.304   4.925  10.774  0.0206  1.7678 -2.3070
10304TIP3   OH255106   1.347   2.412   9.335 -0.2321 -0.1955 -0.0868
10304TIP3    H155107   1.343   2.503   9.305  0.3050 -0.5714 -1.3819
10304TIP3    H255108   1.346   2.418   9.430  1.9725  1.2999 -0.0797
10305TIP3   OH255109   5.045   4.329   9.022 -0.4456  0.3492 -0.9485
10305TIP3    H155110   5.093   4.246   9.026  0.0646  0.6399 -0.9133
10305TIP3    H255111   5.093   4.388   9.081  0.1916  1.1550 -2.2217
10306TIP3   OH255112   1.765   0.629   8.795  0.0298 -0.0391 -0.0640
10306TIP3    H155113   1.694   0.564   8.797  1.0258 -1.1651  0.8425
10306TIP3    H255114   1.751   0.682   8.874  0.5694 -0.7295  0.5191
10307TIP3   OH255115   5.657   4.439   9.358 -0.1993  0.1044  0.2557
10307TIP3    H155116   5.570   4.406   9.338 -0.1713  0.0495  0.2243
10307TIP3    H255117   5.685   4.484   9.278 -0.1574  0.0342  0.2306
10308TIP3   OH255118   5.001   6.366  10.538  0.5438  0.2725 -0.4033
10308TIP3    H155119   4.915   6.407  10.542  0.1589 -0.5057 -0.4812
10308TIP3    H255120   5.046   6.396  10.617 -0.4837 -0.8106  0.6225
10309TIP3   OH255121   1.117   2.144  10.118  0.0918 -0.5197 -1.2188
10309TIP3    H155122   1.096   2.175  10.031 -0.3371  0.3757 -0.8034
10309TIP3    H255123   1.196   2.193  10.143 -1.3972  1.4005  0.0103
10310TIP3   OH255124   3.905   3.474   9.017 -0.4920 -0.2483  0.5937
10310TIP3    H155125   3.901   3.539   8.947 -0.6578 -0.7794  0.1043
10310TIP3    H255126   3.869   3.520   9.094  0.7979  0.7148  0.6500
10311TIP3   OH255127   2.102   1.582   8.923 -0.4294  0.4170 -0.7299
10311TIP3    H155128   2.165   1.641   8.881  0.0243  0.2037 -0.3562
10311TIP3    H255129   2.114   1.499   8.878 -0.2027  0.2849 -0.4215
10312TIP3   OH255130   3.954   5.133  11.298  0.0776  0.4133 -0.5514
10312TIP3    H155131   3.928   5.115  11.389 -1.2441  0.7907 -0.8252
10312TIP3    H255132   3.909   5.066  11.247  1.4516 -0.2820 -0.8749
10313TIP3   OH255133   4.970   0.149   9.821 -0.0003 -0.1868 -0.8852
10313TIP3    H155134   4.988   0.125   9.730 -1.0137 -0.8420 -0.9303
10313TIP3    H255135   4.874   0.153   9.826 -0.0734 -2.1539  0.6311
10314TIP3   OH255136   0.724   4.792  10.467  0.2887 -0.6435 -0.5415
10314TIP3    H155137   0.673   4.711  10.461 -0.6241 -0.1683  0.6044
10314TIP3    H255138   0.814   4.764  10.449  0.4327 -2.4306  2.3198
10315TIP3   OH255139   0.078   0.943  10.922  0.3093 -0.1208 -0.1337
10315TIP3    H155140   0.094   1.029  10.883  0.9982 -0.9576 -1.8038
10315TIP3    H255141   0.092   0.882  10.850  1.5036 -1.7585  1.4265
10316TIP3   OH255142   1.222   2.450   8.751 -0.6243 -0.2153 -0.4654
10316TIP3    H155143   1.235   2.383   8.818  3.2658  1.5247  0.8207
10316TIP3    H255144   1.248   2.409   8.669  1.3144 -0.4924  0.2440
10317TIP3   OH255145   4.957   0.132   9.045 -0.9469  0.3681 -0.1008
10317TIP3    H155146   5.015   0.100   8.977  1.0765  1.9855  0.7580
10317TIP3    H255147   4.876   0.156   8.999 -1.6201 -3.2529 -1.1281
10318TIP3   OH255148   5.428   5.415  10.905  0.0115  0.1466 -0.0578
10318TIP3    H155149   5.477   5.494  10.926  0.1512 -0.0878  0.5194
10318TIP3    H255150   5.495   5.350  10.882  0.0018 -0.2691  1.0498
10319TIP3   OH255151   1.751   5.763   9.995 -0.4598 -0.3399  0.1511
10319TIP3    H155152   1.674   5.812  10.023 -0.2312 -0.7175  1.5048
10319TIP3    H255153   1.791   5.818   9.927 -0.1189  1.4694  1.7268
10320TIP3   OH255154   6.672   0.391  10.200  0.5481  0.3483  0.5128
10320TIP3    H155155   6.766   0.395  10.181  0.4581  0.2526  0.0468
10320TIP3    H255156   6.665   0.424  10.290  1.0885 -0.1647  0.7494
10321TIP3   OH255157   2.408   6.572  10.214  0.2476  0.2748 -0.5628
10321TIP3    H155158   2.474   6.503  10.220  1.7716  1.5603 -1.5007
10321TIP3    H255159   2.425   6.614  10.129 -2.4805  0.0193 -1.3272
10322TIP3   OH255160   3.946   2.130   8.814 -0.2544  0.1567  0.8431
10322TIP3    H155161   3.942   2.085   8.899 -1.7091 -3.0869 -0.7430
10322TIP3    H255162   3.858   2.118   8.778  0.5347  0.7941 -1.4147
10323TIP3   OH255163   1.894   4.373   9.543  0.1284  0.3238 -0.5643
10323TIP3    H155164   1.864   4.365   9.453  0.4237 -0.2871 -0.6126
10323TIP3    H255165   1.920   4.464   9.552 -0.5754  0.5638 -0.8806
10324TIP3   OH255166   4.887   1.619   9.500 -0.4487  0.0606 -0.0093
10324TIP3    H155167   4.951   1.558   9.464 -1.0106 -0.0208 -0.8865
10324TIP3    H255168   4.837   1.651   9.425 -0.4192  1.3255  0.4672
10325TIP3   OH255169   2.926   0.373  11.024  0.0412  0.1314  0.3737
10325TIP3    H155170   2.843   0.326  11.030  0.1464 -0.1253 -0.0849
10325TIP3    H255171   2.992   0.307  11.042  0.2538 -0.2001 -1.4568
10326TIP3   OH255172   4.453   0.478  10.935  0.3592 -0.4958  0.2997
10326TIP3    H155173   4.406   0.494  10.853 -1.4699  0.3717  1.4479
10326TIP3    H255174   4.484   0.388  10.927  0.1915 -0.4417 -1.3272
10327TIP3   OH255175   3.690   0.105   9.668  0.1338  0.0320  0.7114
10327TIP3    H155176   3.760   0.078   9.609 -0.2343  0.6972 -0.0409
10327TIP3    H255177   3.620   0.043   9.652 -0.5643  1.1323 -0.7337
10328TIP3   OH255178   1.723   5.851  11.528  0.1279  0.0182 -0.2078
10328TIP3    H155179   1.676   5.837  11.610 -1.6790 -2.6215 -1.5495
10328TIP3    H255180   1.811   5.818  11.544  0.7252  2.1887  1.4397
10329TIP3   OH255181   0.316   5.037   9.735 -0.8057  0.2447  0.2198
10329TIP3    H155182   0.305   4.948   9.769 -2.1727  0.7185  1.1117
10329TIP3    H255183   0.372   5.026   9.658 -0.4700 -1.3073  0.6434
10330TIP3   OH255184   3.589   5.914  10.526 -0.1003  0.1526  0.1198
10330TIP3    H155185   3.591   6.009  10.516  0.5103  0.3737  1.9946
10330TIP3    H255186   3.562   5.900  10.617  2.4959 -1.3797  0.7641
10331TIP3   OH255187   1.603   2.151  10.135  0.2135 -0.0850 -0.2045
10331TIP3    H155188   1.614   2.067  10.179 -0.9961 -0.0680  0.1560
10331TIP3    H255189   1.657   2.144  10.056  2.3540 -0.1420  1.1896
10332TIP3   OH255190   3.065   1.785   9.038 -0.2341  0.0615 -0.5814
10332TIP3    H155191   2.992   1.729   9.014 -0.7078  0.1694  0.5323
10332TIP3    H255192   3.030   1.874   9.035 -0.0710  0.1370 -0.3581
10333TIP3   OH255193   3.036   2.601   8.686 -1.0172  0.4557  0.0400
10333TIP3    H155194   3.092   2.620   8.611  0.0013 -0.5425  0.5291
10333TIP3    H255195   2.979   2.530   8.655  0.5591 -1.1749  0.6970
10334TIP3   OH255196   0.642   4.647  11.281 -0.5805 -0.2678  0.4622
10334TIP3    H155197   0.647   4.585  11.208  0.6962 -0.8800  1.0166
10334TIP3    H255198   0.630   4.732  11.240 -0.8335 -0.7056 -0.4031
10335TIP3   OH255199   0.082   2.531  11.702  0.3434 -0.5418  0.6854
10335TIP3    H155200   0.030   2.480  11.764  1.5287  0.7542  2.8858
10335TIP3    H255201   0.017   2.571  11.644 -0.7515 -2.5228  0.4409
10336TIP3   OH255202   2.195   6.201   9.654 -0.0628  0.0291 -0.0008
10336TIP3    H155203   2.231   6.142   9.720 -1.3683  0.0330  0.7540
10336TIP3    H255204   2.142   6.263   9.705 -0.0659  0.8121 -0.9422
10337TIP3   OH255205   5.727   4.555   9.114 -0.0112 -0.5106  0.1041
10337TIP3    H155206   5.810   4.515   9.091  1.1075 -0.3677  3.4280
10337TIP3    H255207   5.742   4.649   9.102  0.2786 -0.4966  0.5491
10338TIP3   OH255208   1.077   4.542  10.854  0.3674 -0.0233  0.0496
10338TIP3    H155209   1.135   4.615  10.875 -0.5618  0.1066  2.3970
10338TIP3    H255210   0.994   4.582  10.830  0.0463 -0.2930  0.7025
10339TIP3   OH255211   4.244   5.232  10.442 -0.4134  0.2044 -0.0646
10339TIP3    H155212   4.229   5.190  10.358 -1.4480  0.8414 -0.2235
10339TIP3    H255213   4.339   5.243  10.448 -0.3320  0.1410 -1.1301
10340TIP3   OH255214   6.638   1.365  10.355  0.2255  0.5713 -0.6053
10340TIP3    H155215   6.559   1.413  10.379  0.3058  0.8300 -0.8423
10340TIP3    H255216   6.606   1.284  10.315  0.0808  0.6541 -0.6601
10341TIP3   OH255217   4.094   0.053  10.701 -0.1329 -0.4148 -0.0696
10341TIP3    H155218   4.053  -0.016  10.752 -2.2985  0.6380 -0.2774
10341TIP3    H255219   4.021   0.097  10.657  1.1470  2.0129  0.0777
10342TIP3   OH255220   4.158   3.137   8.565 -0.7900  0.8802  0.3149
10342TIP3    H155221   4.209   3.217   8.577  0.7642  0.2830 -1.8539
10342TIP3    H255222   4.186   3.080   8.637  2.4367  0.2215 -1.2914
10343TIP3   OH255223   4.521   3.690  10.764 -0.3688  0.1723 -0.0697
10343TIP3    H155224   4.428   3.669  10.765 -0.6967  1.4281 -1.5463
10343TIP3    H255225   4.529   3.771  10.814  0.0044 -0.1620  0.4250
10344TIP3   OH255226   3.759   6.159   8.778  0.0804 -0.0853  0.1374
10344TIP3    H155227   3.814   6.099   8.728  1.6411  0.6327  0.9328
10344TIP3    H255228   3.670   6.139   8.750  0.5980 -2.3560 -0.0692
10345TIP3   OH255229   1.995   5.187  10.980  0.5847  0.2106  0.3838
10345TIP3    H155230   2.003   5.091  10.976 -0.6917  0.0567  0.9478
10345TIP3    H255231   1.903   5.202  11.002  0.4809  1.5998 -0.8240
10346TIP3   OH255232   4.354   0.008   9.816 -0.0599  0.0337 -0.4709
10346TIP3    H155233   4.332   0.058   9.737 -1.3764  1.6547  0.8409
10346TIP3    H255234   4.444   0.032   9.836  0.5630 -0.9926 -1.8540
10347TIP3   OH255235   0.296   0.739  12.227  0.0617 -0.6253  0.1184
10347TIP3    H155236   0.224   0.799  12.245  0.4936  0.0845 -0.4533
10347TIP3    H255237   0.254   0.656  12.204 -0.5865 -0.0579 -0.7944
10348TIP3   OH255238   5.467   2.886   9.003  0.6141  0.4502 -0.5199
10348TIP3    H155239   5.541   2.933   8.965  0.3762  0.4834 -0.9489
10348TIP3    H255240   5.448   2.816   8.940 -0.0508  0.7638 -0.6748
10349TIP3   OH255241   3.469   1.140  11.600  0.2589 -0.1150  0.3653
10349TIP3    H155242   3.384   1.108  11.632 -0.2174 -0.4412 -1.1655
10349TIP3    H255243   3.462   1.235  11.607  1.0414 -0.1774  3.3300
10350TIP3   OH255244   2.169   5.003   9.602  0.2414 -0.2246 -0.0560
10350TIP3    H155245   2.202   4.989   9.513 -1.2790  2.0768 -1.0715
10350TIP3    H255246   2.241   5.047   9.647  0.6711 -0.5431 -0.4200
10351TIP3   OH255247   6.486   2.385  10.613  0.3904  0.3766 -0.1651
10351TIP3    H155248   6.421   2.422  10.672  3.0187  1.4351  2.3681
10351TIP3    H255249   6.490   2.292  10.637  1.0108  0.6794  0.9999
10352TIP3   OH255250   0.149   4.411   9.695 -0.0650  0.3505 -0.1638
10352TIP3    H155251   0.146   4.450   9.608 -2.3173  0.0833 -0.2894
10352TIP3    H255252   0.212   4.464   9.743 -1.6334  3.0478 -0.8389
10353TIP3   OH255253   2.112   1.382   8.741 -0.0286 -0.2127  0.4337
10353TIP3    H155254   2.205   1.361   8.742 -0.2315 -1.8367 -2.5917
10353TIP3    H255255   2.107   1.468   8.699  0.1333  0.5723  1.9592
10354TIP3   OH255256   2.025   6.342   9.832  0.3207 -0.1587  0.1031
10354TIP3    H155257   1.949   6.286   9.846  0.3540 -0.8664 -2.1365
10354TIP3    H255258   1.990   6.431   9.832 -0.2824 -0.3880  0.3745
10355TIP3   OH255259   2.294   4.165  11.407  0.1800 -0.4732  0.0419
10355TIP3    H155260   2.207   4.194  11.434  0.1856  0.4365 -0.8235
10355TIP3    H255261   2.312   4.088  11.460 -0.2568  0.5760  1.8053
10356TIP3   OH255262   4.294   1.759   8.886 -0.1391  0.4639  0.0326
10356TIP3    H155263   4.208   1.798   8.873 -0.1905  0.1201 -0.7141
10356TIP3    H255264   4.354   1.834   8.891 -0.4147  0.6864  0.0465
10357TIP3   OH255265   6.022   3.823   9.734  0.1996  0.2094  0.3616
10357TIP3    H155266   6.098   3.844   9.788  1.2376  1.0331 -1.3360
10357TIP3    H255267   5.976   3.906   9.724  0.3725  0.2146 -0.5027
10358TIP3   OH255268   4.124   0.915   9.301  0.6426 -0.4237  0.6834
10358TIP3    H155269   4.200   0.967   9.275 -0.1504  2.1374  3.0811
10358TIP3    H255270   4.162   0.840   9.348  1.7038 -0.7019 -0.5228
10359TIP3   OH255271   3.056   6.040   9.371  0.0955  0.2786  0.0147
10359TIP3    H155272   3.029   6.123   9.409 -2.3772 -0.4439  0.0291
10359TIP3    H255273   3.105   5.996   9.441 -1.6449  0.2923  1.3060
10360TIP3   OH255274   5.560   4.440  11.343  0.0793 -0.3712 -0.3309
10360TIP3    H155275   5.604   4.521  11.319  0.9745 -1.3840 -2.4121
10360TIP3    H255276   5.630   4.384  11.377 -0.5362 -0.2850  1.1303
10361TIP3   OH255277   5.142   4.724  11.150 -0.2101  0.1168  0.2933
10361TIP3    H155278   5.225   4.759  11.181 -1.0595  1.3691  1.2608
10361TIP3    H255279   5.085   4.724  11.227 -1.2350 -0.3522 -0.4305
10362TIP3   OH255280   6.251   1.213  10.501  0.3221 -0.2044 -0.3744
10362TIP3    H155281   6.274   1.166  10.421 -1.2398 -0.9070 -0.4446
10362TIP3    H255282   6.300   1.295  10.496  0.6821 -0.4799 -1.7638
10363TIP3   OH255283   3.530   6.577  11.404  0.4002  0.8117 -0.1298
10363TIP3    H155284   3.602   6.630  11.439  0.2989  1.5609 -1.0049
10363TIP3    H255285   3.454   6.601  11.456  0.5108  0.9921 -0.0525
10364TIP3   OH255286   4.102   2.949  11.791 -0.1038  0.5707  0.8799
10364TIP3    H155287   4.048   3.005  11.847 -0.3152  0.8595  0.3912
10364TIP3    H255288   4.076   2.860  11.814 -1.1683  0.7097  0.2845
10365TIP3   OH255289   3.907   5.075   9.462  0.1467  0.5306 -0.6349
10365TIP3    H155290   3.830   5.129   9.479  0.6366  1.2452 -0.6263
10365TIP3    H255291   3.879   5.011   9.397 -0.6975  0.2157  0.0289
10366TIP3   OH255292   1.221   5.293  10.880 -0.3624  0.2985 -0.3295
10366TIP3    H155293   1.292   5.324  10.824 -0.3992 -0.8428 -1.0324
10366TIP3    H255294   1.250   5.207  10.911 -0.6607  0.6052  0.8298
10367TIP3   OH255295   2.590   0.291  10.334  0.0162  0.7252  0.8503
10367TIP3    H155296   2.673   0.252  10.361  0.9818  2.8992  1.2012
10367TIP3    H255297   2.524   0.226  10.359  1.4889 -0.4803  1.7586
10368TIP3   OH255298   1.007   3.056  10.845 -0.1261 -0.1134 -0.0800
10368TIP3    H155299   0.974   2.966  10.844  0.7935 -0.4645 -0.9635
10368TIP3    H255300   0.931   3.109  10.820 -0.6337 -0.6643  0.2796
10369TIP3   OH255301   2.732   4.758  10.490  0.1702  0.1147  0.5639
10369TIP3    H155302   2.642   4.760  10.456 -0.1325  1.7323  1.3629
10369TIP3    H255303   2.730   4.816  10.566  1.4051 -1.5299  1.9154
10370TIP3   OH255304   4.522   2.214  10.662 -0.3806  0.0517 -0.4170
10370TIP3    H155305   4.474   2.212  10.579  1.2248 -2.1486 -1.3956
10370TIP3    H255306   4.606   2.253  10.640 -0.0350 -0.3134  0.2260
10371TIP3   OH255307   1.134   1.437   8.920 -0.1560  0.0896 -0.4027
10371TIP3    H155308   1.057   1.490   8.942  0.2879  0.5524  0.0512
10371TIP3    H255309   1.208   1.496   8.933  0.2467 -0.1607 -1.4299
10372TIP3   OH255310   3.146   0.897   8.529 -0.6528  0.4268  0.1192
10372TIP3    H155311   3.097   0.897   8.611 -1.3205 -0.9192 -0.2493
10372TIP3    H255312   3.149   0.805   8.503 -0.9338  0.8731 -1.6262
10373TIP3   OH255313   1.806   0.539   9.799  0.0316 -0.5762  0.5294
10373TIP3    H155314   1.857   0.485   9.738 -0.0810  0.3641 -0.4226
10373TIP3    H255315   1.717   0.505   9.793  0.1412 -0.8840  0.6339
10374TIP3   OH255316   0.911   4.337   8.275  0.2770  0.2764 -0.0914
10374TIP3    H155317   0.866   4.420   8.289  0.7136  0.4603  0.2641
10374TIP3    H255318   0.841   4.274   8.258 -0.0083  0.9366 -1.5438
10375TIP3   OH255319   0.640   0.039   8.807 -0.0648  0.6233  0.0927
10375TIP3    H155320   0.608   0.113   8.757  0.4974  0.9389  0.1913
10375TIP3    H255321   0.605   0.052   8.895  0.4133  1.0277  0.2294
10376TIP3   OH255322   5.195   1.156  11.086 -0.0139  0.6651 -0.2373
10376TIP3    H155323   5.131   1.100  11.127  0.8992 -0.2194  0.0237
10376TIP3    H255324   5.211   1.226  11.149  1.5162 -0.7788  1.0803
10377TIP3   OH255325   3.403   5.592   9.691  0.1355  0.8055 -0.0812
10377TIP3    H155326   3.328   5.629   9.645 -1.0035 -1.2225  0.0027
10377TIP3    H255327   3.443   5.533   9.627  0.1484  0.0056  0.6419
10378TIP3   OH255328   3.114   5.619   8.862  0.1286 -0.2920  0.5054
10378TIP3    H155329   3.061   5.605   8.784  0.6812  0.2229  0.0247
10378TIP3    H255330   3.200   5.583   8.840 -0.3748 -2.5074  1.8180
10379TIP3   OH255331   6.525   1.096  11.001 -0.5074 -0.2223 -0.0475
10379TIP3    H155332   6.518   1.106  10.906 -0.4024  1.0922  0.0655
10379TIP3    H255333   6.618   1.078  11.016 -0.6799 -1.4038 -0.2455
10380TIP3   OH255334   2.167   0.626  12.197  0.0414  0.0452  0.2273
10380TIP3    H155335   2.105   0.605  12.127  1.2485 -0.4344 -0.7298
10380TIP3    H255336   2.222   0.547  12.205  0.8028  0.6134  0.7448
10381TIP3   OH255337   3.968   2.932   9.059 -0.0423 -0.8655 -0.1804
10381TIP3    H155338   3.956   3.024   9.034  0.2672 -1.3514 -2.2800
10381TIP3    H255339   3.889   2.911   9.109 -1.4015 -0.1585 -1.9220
10382TIP3   OH255340   0.366   0.851   8.904  0.1174  0.2539 -0.0511
10382TIP3    H155341   0.414   0.934   8.905 -0.2408  0.4810 -1.2134
10382TIP3    H255342   0.378   0.817   8.816 -0.7547 -0.3385  0.0470
10383TIP3   OH255343   0.909   0.995  10.371 -0.4074  0.5198  0.4076
10383TIP3    H155344   0.894   0.993  10.277 -0.2951 -0.5273  0.3974
10383TIP3    H255345   0.996   1.033  10.381  1.9719 -4.0562 -0.3062
10384TIP3   OH255346   3.171   5.820  11.458  0.2084  0.3864 -0.9700
10384TIP3    H155347   3.077   5.834  11.443  0.1536 -1.0537 -2.3086
10384TIP3    H255348   3.191   5.741  11.407  1.5767 -0.9325  1.4213
10385TIP3   OH255349   6.292   1.182  10.198  0.5986 -0.2305 -0.0384
10385TIP3    H155350   6.197   1.186  10.187  0.8108 -0.5064 -2.7078
10385TIP3    H255351   6.321   1.273  10.185  0.7395 -0.2058  0.4370
10386TIP3   OH255352   3.654   6.246  12.376 -0.2837  0.1095  0.0154
10386TIP3    H155353   3.619   6.306  12.311 -0.6222 -0.5309 -0.4056
10386TIP3    H255354   3.608   6.164  12.360  1.0657 -0.6321 -0.2684
10387TIP3   OH255355   1.720   0.859  11.162 -0.4942 -0.7969 -0.5485
10387TIP3    H155356   1.746   0.835  11.251  1.2396 -1.8074 -1.2741
10387TIP3    H255357   1.791   0.916  11.132 -0.3692 -1.5607 -1.7322
10388TIP3   OH255358   1.634   0.737   9.436 -0.1077 -0.6754  0.0598
10388TIP3    H155359   1.720   0.780   9.431 -1.2921  1.7829 -1.7849
10388TIP3    H255360   1.653   0.648   9.465  3.0008 -0.0948  0.1858
10389TIP3   OH255361   2.586   6.061  10.962  0.0376 -0.3163 -0.2181
10389TIP3    H155362   2.557   6.091  11.048 -1.2100  1.8121 -1.3059
10389TIP3    H255363   2.670   6.106  10.948 -1.0817  1.6077 -1.1916
10390TIP3   OH255364   3.512   3.063  11.456  0.1519 -0.5749 -0.1565
10390TIP3    H155365   3.563   3.117  11.516  0.6990 -0.4846 -0.6924
10390TIP3    H255366   3.472   3.125  11.396 -1.0557 -0.6013  0.5972
10391TIP3   OH255367   6.445   3.437   8.953  0.2446 -0.3862  0.0166
10391TIP3    H155368   6.500   3.474   9.022  1.8822 -0.7874 -1.0301
10391TIP3    H255369   6.507   3.405   8.887 -1.2629  0.1683 -1.7454
10392TIP3   OH255370   0.548   6.307   8.729  0.2542  0.4196 -0.3101
10392TIP3    H155371   0.486   6.267   8.790  0.7957  1.0834  0.6943
10392TIP3    H255372   0.606   6.236   8.703 -0.3664 -0.0050 -0.5610
10393TIP3   OH255373   1.971   0.336   9.679  0.5003  0.3568  0.5408
10393TIP3    H155374   1.972   0.335   9.583 -2.9330  0.4449  0.3515
10393TIP3    H255375   2.018   0.257   9.705 -2.3591 -2.2971 -1.5427
10394TIP3   OH255376   4.234   1.071  10.863  0.2466  0.7430  0.0020
10394TIP3    H155377   4.230   1.057  10.769  1.9709 -0.8045  0.0978
10394TIP3    H255378   4.289   1.148  10.874 -1.4776  2.0778 -0.2564
10395TIP3   OH255379   6.070   1.963   9.392 -0.3728 -0.1025  0.6271
10395TIP3    H155380   6.134   1.892   9.402 -0.2753 -0.2728 -0.8534
10395TIP3    H255381   6.114   2.026   9.335 -1.0249  0.4301  0.7036
10396TIP3   OH255382   5.259   3.123   9.004  0.5397  0.0113 -0.1144
10396TIP3    H155383   5.338   3.088   9.045 -0.7407 -2.7171  0.2347
10396TIP3    H255384   5.271   3.109   8.911  0.9047  0.6370 -0.1691
10397TIP3   OH255385   4.425   4.662  10.738  0.1821 -0.5102  0.1833
10397TIP3    H155386   4.361   4.728  10.710 -0.4499 -1.5780 -0.9391
10397TIP3    H255387   4.424   4.596  10.670  2.9498 -0.2996 -0.1884
10398TIP3   OH255388   0.233   2.210   8.501 -1.1246  0.4607  0.5660
10398TIP3    H155389   0.145   2.175   8.486 -0.6876 -0.2327 -0.4457
10398TIP3    H255390   0.291   2.136   8.486 -0.2242  1.4189 -0.8771
10399TIP3   OH255391   3.833   0.783  11.111  0.1031 -0.6616  0.2080
10399TIP3    H155392   3.845   0.784  11.016  1.0724  0.7190  0.3057
10399TIP3    H255393   3.764   0.719  11.126 -0.5964 -0.3713 -1.5011
10400TIP3   OH255394   6.052   6.394  11.556  0.2658 -0.0717  0.2339
10400TIP3    H155395   5.969   6.441  11.552  0.9992  1.2056 -0.8162
10400TIP3    H255396   6.056   6.344  11.474  0.7082  0.2045  0.0816
10401TIP3   OH255397   3.136   5.722   9.115 -0.4584 -0.2221 -0.0104
10401TIP3    H155398   3.089   5.803   9.098  3.2841  1.9185 -1.3134
10401TIP3    H255399   3.117   5.667   9.040 -1.4277  0.2462 -0.1211
10402TIP3   OH255400   4.779   6.311  11.854 -0.1883  0.3915 -0.0385
10402TIP3    H155401   4.699   6.316  11.905 -0.8490  0.4244 -1.0435
10402TIP3    H255402   4.843   6.360  11.905 -1.2186  1.6970  0.0489
10403TIP3   OH255403   5.829   5.320  10.252  0.2823  0.1813  0.3691
10403TIP3    H155404   5.891   5.341  10.183 -0.0221  0.2367  0.1091
10403TIP3    H255405   5.792   5.235  10.226  0.9028 -0.2882  0.9866
10404TIP3   OH255406   3.803   2.027  10.245  0.2722  0.6539  0.3526
10404TIP3    H155407   3.729   2.053  10.189  0.8402 -0.3538 -0.9067
10404TIP3    H255408   3.762   1.984  10.320 -0.4284 -1.5133 -1.1775
10405TIP3   OH255409   3.190   3.948   8.707  0.1305 -0.0752  0.5265
10405TIP3    H155410   3.269   3.992   8.739  0.3224 -0.0073 -0.0381
10405TIP3    H255411   3.140   3.929   8.786  0.9013 -0.4873  0.9255
10406TIP3   OH255412   2.251   0.805   9.618  0.4317 -0.0317  0.0994
10406TIP3    H155413   2.267   0.868   9.548 -0.0957  0.5949  0.5339
10406TIP3    H255414   2.203   0.734   9.575  1.4995 -0.4237 -0.5112
10407TIP3   OH255415   4.999   1.574   9.756  0.3404 -0.1370  0.3913
10407TIP3    H155416   4.970   1.586   9.665  0.1312 -0.3671  0.4243
10407TIP3    H255417   4.983   1.658   9.798 -2.0024 -0.7419  0.8672
10408TIP3   OH255418   3.025   1.316   9.516 -0.5683 -0.1842  0.0843
10408TIP3    H155419   3.077   1.238   9.538  0.7185  0.7830  0.6063
10408TIP3    H255420   2.936   1.295   9.547  0.1001 -0.8535  1.6701
10409TIP3   OH255421   5.227   0.753  10.009  0.5674 -0.0557  0.3416
10409TIP3    H155422   5.302   0.757   9.949  0.2665 -1.1465 -0.1289
10409TIP3    H255423   5.156   0.715   9.957  0.0216 -0.1268  1.1168
10410TIP3   OH255424   0.127   2.658  10.114  0.0125  0.0067 -0.7223
10410TIP3    H155425   0.133   2.643  10.020  0.2205 -0.4698 -0.6403
10410TIP3    H255426   0.167   2.579  10.153  0.2242  0.3440 -0.2459
10411TIP3   OH255427   1.443   2.559   8.949 -0.4013 -0.1721  0.1884
10411TIP3    H155428   1.456   2.597   8.862  3.7255  0.5598  0.8920
10411TIP3    H255429   1.353   2.583   8.973 -1.5162  0.0071 -3.5939
10412TIP3   OH255430   2.844   0.921  10.340 -0.2420  0.1080 -0.2012
10412TIP3    H155431   2.896   0.876  10.273  0.3213  2.7434 -1.6753
10412TIP3    H255432   2.825   0.853  10.405  1.2459 -2.0065 -1.8133
10413TIP3   OH255433   2.806   5.421   9.985  0.0111  0.6817  0.3145
10413TIP3    H155434   2.878   5.358   9.984  0.3721  1.0389  1.4690
10413TIP3    H255435   2.835   5.493   9.929  0.5248  0.7828  0.7031
10414TIP3   OH255436   2.287   2.011   9.258 -0.0299  0.0133  0.3755
10414TIP3    H155437   2.195   2.037   9.264  0.2813  1.2137  0.1606
10414TIP3    H255438   2.300   1.990   9.165  0.3866  1.7692  0.0053
10415TIP3   OH255439   5.304   2.389  11.305  0.2609 -0.0873  0.1443
10415TIP3    H155440   5.313   2.317  11.368  2.1335 -0.0909 -0.0885
10415TIP3    H255441   5.299   2.346  11.220  1.6193  0.0371 -0.0163
10416TIP3   OH255442   2.660   1.712   8.408 -0.0292  0.2639 -0.1184
10416TIP3    H155443   2.737   1.751   8.365 -0.0627 -0.8272 -1.2252
10416TIP3    H255444   2.590   1.719   8.343 -0.0530 -1.5294 -0.3244
10417TIP3   OH255445   1.821   2.791  11.635  0.0045 -0.4340 -0.1280
10417TIP3    H155446   1.915   2.777  11.624  0.2436  0.9642 -0.0024
10417TIP3    H255447   1.801   2.867  11.581 -0.6476  0.5280  1.4113
10418TIP3   OH255448   6.330   1.804  12.025 -0.3346 -0.0706  0.1658
10418TIP3    H155449   6.368   1.889  12.003  0.5706  0.1292  2.2586
10418TIP3    H255450   6.238   1.822  12.045 -0.4747  0.1760 -0.6759
10419TIP3   OH255451   2.856   6.108  10.236 -0.2928 -0.5346 -0.1143
10419TIP3    H155452   2.790   6.056  10.191  0.2717 -1.3719  0.0033
10419TIP3    H255453   2.860   6.071  10.324 -1.3014  1.0134  0.6173
10420TIP3   OH255454   2.359   5.459   9.764  0.0378  0.3420  0.3115
10420TIP3    H155455   2.382   5.535   9.711  0.7158 -0.5213 -0.6916
10420TIP3    H255456   2.270   5.437   9.737 -0.0103  0.5442  0.3047
10421TIP3   OH255457   1.080   2.616  11.818 -0.0284  0.2427 -0.2364
10421TIP3    H155458   1.114   2.654  11.899  0.9966 -0.3826 -0.3591
10421TIP3    H255459   1.095   2.522  11.826  0.6426  0.2217 -1.3782
10422TIP3   OH255460   3.645   3.606   9.701 -0.0546  0.1941  0.4444
10422TIP3    H155461   3.563   3.623   9.654  0.5085  0.0022 -0.6338
10422TIP3    H255462   3.647   3.673   9.770 -1.1911  0.0915  0.5886
10423TIP3   OH255463   1.130   6.593  10.908 -0.4652  0.1533  0.4626
10423TIP3    H155464   1.206   6.650  10.897 -0.7176  0.6080  1.0564
10423TIP3    H255465   1.121   6.549  10.823  1.1101 -0.7324  0.6990
10424TIP3   OH255466   2.267   2.392  10.250 -0.0336  0.8384 -0.0969
10424TIP3    H155467   2.315   2.433  10.179  0.4787  0.5608  0.0872
10424TIP3    H255468   2.325   2.400  10.326  0.6192 -1.2708 -0.3049
10425TIP3   OH255469   3.787   6.605   8.540  0.1000  0.4837 -0.0855
10425TIP3    H155470   3.696   6.593   8.570 -0.3454 -0.6343 -1.7478
10425TIP3    H255471   3.798   6.700   8.535 -1.5881  0.6597 -1.4961
10426TIP3   OH255472   2.293   0.468  10.718  0.5785 -0.0807  0.1936
10426TIP3    H155473   2.199   0.452  10.713  0.3220  0.8848  1.3916
10426TIP3    H255474   2.327   0.440  10.633 -0.8198 -0.2431 -0.3313
10427TIP3   OH255475   0.267   2.857   8.956  0.4696 -0.2461  0.3466
10427TIP3    H155476   0.235   2.883   8.869 -0.6144 -0.0211  0.7993
10427TIP3    H255477   0.247   2.932   9.012  1.8444 -0.0799  0.6556
10428TIP3   OH255478   1.151   0.529   8.620  0.4811  0.8992 -0.8906
10428TIP3    H155479   1.194   0.572   8.547 -1.2494  1.8987 -1.3711
10428TIP3    H255480   1.086   0.592   8.651  1.0842  0.4711  1.4689
10429TIP3   OH255481   6.361   6.400   8.692 -0.6159 -0.5609 -0.2298
10429TIP3    H155482   6.431   6.455   8.657 -1.7271  0.6229 -0.6722
10429TIP3    H255483   6.324   6.356   8.615 -0.5415 -0.9656 -0.0353
10430TIP3   OH255484   2.892   1.994  10.969 -0.5523  0.0934 -0.8214
10430TIP3    H155485   2.908   2.088  10.958 -0.3472  0.2322  0.4954
10430TIP3    H255486   2.817   1.990  11.027 -0.1598 -0.5586 -0.3516
10431TIP3   OH255487   5.057   4.847  10.228  0.1530 -0.4627 -0.0931
10431TIP3    H155488   5.064   4.859  10.323  2.1389 -0.4503 -0.1968
10431TIP3    H255489   4.994   4.913  10.200 -0.0523 -0.1013  1.1563
10432TIP3   OH255490   0.619   0.140  11.026 -0.0101 -0.3577  0.3749
10432TIP3    H155491   0.646   0.171  11.113 -1.7666  0.8347  0.5248
10432TIP3    H255492   0.615   0.219  10.972  1.1626 -1.0949 -0.8737
10433TIP3   OH255493   1.190   4.467   9.908 -0.0897  0.8655 -0.3772
10433TIP3    H155494   1.260   4.493   9.967 -1.6053  0.8920  1.5329
10433TIP3    H255495   1.138   4.546   9.895 -2.7737 -0.1594  2.7051
10434TIP3   OH255496   3.780   0.873  11.674  0.1109 -0.2526 -0.0309
10434TIP3    H155497   3.777   0.864  11.579  0.2927 -1.0007  0.0313
10434TIP3    H255498   3.762   0.786  11.707 -2.0552  0.4033  0.6774
10435TIP3   OH255499   4.796   3.553  11.305  0.4984 -0.6188 -0.4827
10435TIP3    H155500   4.847   3.616  11.356  0.3777 -0.8603 -0.0563
10435TIP3    H255501   4.798   3.473  11.357  0.9473 -1.0766 -1.1969
10436TIP3   OH255502   5.871   5.078   8.571  0.2867  0.0844  0.5113
10436TIP3    H155503   5.800   5.140   8.558 -1.5912 -2.1587 -0.7391
10436TIP3    H255504   5.833   5.010   8.627  1.4651 -1.1183 -0.0967
10437TIP3   OH255505   1.369   4.204   9.167  0.0144  0.4615 -0.2297
10437TIP3    H155506   1.280   4.240   9.163  0.5700  1.8670 -0.3723
10437TIP3    H255507   1.358   4.120   9.212 -1.3855  0.5855 -0.2739
10438TIP3   OH255508   6.036   6.268   9.356  0.4996  0.3170 -0.4929
10438TIP3    H155509   6.107   6.291   9.297  0.9200  1.7441  0.5039
10438TIP3    H255510   6.079   6.229   9.432  0.1501  0.3977 -0.2484
10439TIP3   OH255511   3.004   1.465  10.249 -0.7127 -0.0037 -0.7807
10439TIP3    H155512   2.972   1.407  10.318 -0.8152  0.2087 -0.6482
10439TIP3    H255513   3.060   1.410  10.194  0.6275  0.1955  0.3462
   6.67294   6.67294  30.00000
