Title
55513
    1DOPE     N    1   3.919   5.696   9.787  0.1584  0.1660  0.3994
    1DOPE   HN1    2   4.018   5.724   9.804  0.3524 -0.7703  0.8597
    1DOPE   HN2    3   3.866   5.784   9.772  1.2816  0.5277 -1.8616
    1DOPE   HN3    4   3.896   5.654   9.879  1.2667  0.9757  1.0718
    1DOPE   C12    5   3.906   5.600   9.674 -0.2924  0.8195 -0.1418
    1DOPE  H12A    6   3.813   5.541   9.690 -1.2512  2.6529  1.4688
    1DOPE  H12B    7   3.988   5.525   9.685 -0.4736  0.6367 -0.0190
    1DOPE   C11    8   3.934   5.648   9.532 -0.7022  0.1028 -0.4856
    1DOPE  H11A    9   3.845   5.703   9.493  0.6044  0.7458 -2.7268
    1DOPE  H11B   10   3.944   5.561   9.464  1.1753  0.0863 -0.2298
    1DOPE     P   11   4.194   5.668   9.513  0.0476 -0.5541  0.4961
    1DOPE   O13   12   4.217   5.570   9.623 -0.0957 -0.2329 -0.5956
    1DOPE   O14   13   4.287   5.782   9.496 -0.5252  0.0858  0.0379
    1DOPE   O11   14   4.198   5.587   9.379  0.0973 -0.0043  0.2284
    1DOPE   O12   15   4.051   5.726   9.521 -0.0764 -0.3517  0.5056
    1DOPE    C1   16   4.175   5.664   9.266  0.2676  0.4285 -0.7606
    1DOPE    HA   17   4.255   5.737   9.242 -0.6820  0.8996 -2.7304
    1DOPE    HB   18   4.074   5.710   9.269 -0.9413 -2.0952 -0.2932
    1DOPE    C2   19   4.180   5.568   9.144  0.5467 -0.5683  0.1651
    1DOPE    HS   20   4.117   5.484   9.182 -2.6417  1.9473  0.9001
    1DOPE   O21   21   4.317   5.539   9.112 -0.2503 -0.2008 -0.0129
    1DOPE   C21   22   4.350   5.405   9.130  0.2230  0.5405  0.1129
    1DOPE   O22   23   4.284   5.322   9.193 -0.2586 -0.4713  0.3923
    1DOPE   C22   24   4.483   5.386   9.067  0.2772 -0.5415  0.1994
    1DOPE   H2R   25   4.549   5.458   9.121  1.1150 -1.9814  1.1784
    1DOPE   H2S   26   4.481   5.432   8.966  1.1534  2.3615  1.3835
    1DOPE    C3   27   4.095   5.647   9.028  0.7797 -0.0634  0.2949
    1DOPE    HX   28   4.143   5.733   8.978 -0.6441  1.6767  1.7815
    1DOPE    HY   29   3.996   5.685   9.058 -0.3559 -2.8869  0.4820
    1DOPE   O31   30   4.084   5.553   8.921 -0.5233 -0.0110  0.2618
    1DOPE   C31   31   3.983   5.469   8.944  0.3029  0.8770  0.1608
    1DOPE   O32   32   3.908   5.470   9.043  0.5114  0.3353 -0.3389
    1DOPE   C32   33   3.973   5.358   8.840 -0.0589 -0.0376 -0.2250
    1DOPE   H2X   34   3.956   5.411   8.744  1.3171  2.6457  0.9068
    1DOPE   H2Y   35   4.070   5.304   8.838  0.0767  0.1799 -2.9423
    1DOPE   C23   36   4.534   5.239   9.077  0.1191  0.1026  0.2491
    1DOPE   H3R   37   4.510   5.207   9.181  0.7185  0.4933  0.5119
    1DOPE   H3S   38   4.643   5.247   9.061 -0.0055  0.3642 -0.5310
    1DOPE   C24   39   4.476   5.134   8.984 -0.2738 -0.1559 -0.7676
    1DOPE   H4R   40   4.366   5.127   8.996 -0.3619  0.9398 -0.8245
    1DOPE   H4S   41   4.533   5.040   9.004 -0.7195 -0.8108 -2.4744
    1DOPE   C25   42   4.498   5.165   8.834  0.3473 -0.2603 -0.2616
    1DOPE   H5R   43   4.439   5.256   8.811  2.8235  1.4153 -0.3456
    1DOPE   H5S   44   4.453   5.077   8.783  1.6338 -0.6277 -0.8150
    1DOPE   C26   45   4.643   5.187   8.777  0.5667 -0.1476  0.1352
    1DOPE   H6R   46   4.701   5.092   8.778 -2.5067 -2.1814  1.8149
    1DOPE   H6S   47   4.693   5.254   8.850 -0.6200  0.7875  0.1121
    1DOPE   C27   48   4.637   5.245   8.638 -0.3982 -0.0766 -1.0485
    1DOPE   H7R   49   4.573   5.336   8.648 -0.4080 -0.2062  0.1673
    1DOPE   H7S   50   4.590   5.169   8.572  3.7842 -2.3768 -1.7141
    1DOPE   C28   51   4.767   5.298   8.580  0.0192 -0.2778  0.6172
    1DOPE   H8R   52   4.809   5.375   8.649  0.9672 -0.6397  0.4518
    1DOPE   H8S   53   4.737   5.357   8.491  0.1430 -2.8545 -1.2160
    1DOPE   C29   54   4.857   5.179   8.552 -0.5608  0.1039  0.4321
    1DOPE   H9R   55   4.861   5.101   8.630 -0.2945 -2.2231 -1.7727
    1DOPE  C210   56   4.944   5.159   8.449  0.1029  0.9434  0.0399
    1DOPE  H10R   57   4.997   5.063   8.459 -1.3282  0.0693 -0.4668
    1DOPE  C211   58   4.976   5.248   8.325  0.6852 -0.3770 -0.0006
    1DOPE  H11R   59   5.083   5.270   8.304  0.7838 -1.0693 -0.2591
    1DOPE  H11S   60   4.925   5.345   8.340 -1.0422 -1.3455  0.7750
    1DOPE  C212   61   4.904   5.184   8.201 -0.4843  0.0939 -0.7716
    1DOPE  H12R   62   4.797   5.188   8.229 -0.1733 -0.8425  0.6404
    1DOPE  H12S   63   4.922   5.075   8.192  0.1573  0.2729 -1.7842
    1DOPE  C213   64   4.936   5.254   8.075 -0.8999 -0.1401 -0.2881
    1DOPE  H13R   65   5.046   5.267   8.073 -0.9015  1.0306  2.3264
    1DOPE  H13S   66   4.881   5.350   8.081 -2.0440 -0.8251  0.7119
    1DOPE  C214   67   4.873   5.183   7.957  0.3886 -0.2719 -0.4332
    1DOPE  H14R   68   4.767   5.174   7.986  0.4481  2.3812  0.9067
    1DOPE  H14S   69   4.925   5.087   7.932 -0.6414 -0.1728 -3.4253
    1DOPE  C215   70   4.885   5.261   7.828  0.8310 -0.2140  0.3889
    1DOPE  H15R   71   4.992   5.260   7.797  0.7993 -1.4466  0.2459
    1DOPE  H15S   72   4.849   5.365   7.843 -0.8534 -0.7089 -0.0121
    1DOPE  C216   73   4.810   5.204   7.708 -0.6266  0.5451  0.3113
    1DOPE  H16R   74   4.851   5.102   7.692  2.1049  1.2433  2.1402
    1DOPE  H16S   75   4.834   5.264   7.618  1.2010  0.0003  0.4002
    1DOPE  C217   76   4.660   5.193   7.725 -0.0574 -0.0582  0.2180
    1DOPE  H17R   77   4.621   5.292   7.759 -0.0328  0.1785 -0.4177
    1DOPE  H17S   78   4.649   5.124   7.811  3.2426 -2.2584 -0.9247
    1DOPE  C218   79   4.586   5.139   7.601  0.5310 -0.4113 -0.0239
    1DOPE  H18R   80   4.476   5.138   7.620  0.3620 -0.0329 -0.9541
    1DOPE  H18S   81   4.620   5.038   7.571 -0.3086 -0.2734 -1.5305
    1DOPE  H18T   82   4.607   5.213   7.521  0.7181  0.2109  0.5844
    1DOPE   C33   83   3.849   5.274   8.853  0.0527 -0.1623  0.3634
    1DOPE   H3X   84   3.768   5.350   8.859 -0.5976 -0.5514 -2.3048
    1DOPE   H3Y   85   3.856   5.213   8.946  0.1279 -1.3770 -0.4185
    1DOPE   C34   86   3.809   5.191   8.732  0.1261 -0.1290 -0.1655
    1DOPE   H4X   87   3.710   5.143   8.746 -0.8980  1.7980 -0.4803
    1DOPE   H4Y   88   3.785   5.255   8.644  0.2300 -0.5259 -0.4850
    1DOPE   C35   89   3.914   5.084   8.703 -0.5229 -0.4664 -0.0246
    1DOPE   H5X   90   4.013   5.126   8.674 -0.3850 -2.0154 -2.0915
    1DOPE   H5Y   91   3.881   5.019   8.619  1.5492 -0.0137 -1.2775
    1DOPE   C36   92   3.952   4.995   8.821 -0.4978  0.0532 -0.1733
    1DOPE   H6X   93   3.862   4.943   8.862 -2.2972  2.6954 -0.5546
    1DOPE   H6Y   94   3.994   5.044   8.911 -0.2164 -0.8702  0.2105
    1DOPE   C37   95   4.053   4.889   8.784 -0.3537 -0.4673 -0.1782
    1DOPE   H7X   96   4.136   4.927   8.721 -0.4072 -0.6958 -0.3891
    1DOPE   H7Y   97   4.102   4.841   8.871  0.8667 -0.8763 -1.0553
    1DOPE   C38   98   3.996   4.767   8.717  0.0788  0.9875  0.2552
    1DOPE   H8X   99   3.929   4.797   8.634  0.0194 -1.0921 -0.5179
    1DOPE   H8Y  100   3.929   4.717   8.790  0.6631  1.7386  1.3370
    1DOPE   C39  101   4.102   4.677   8.665 -0.1878  0.0025 -0.0377
    1DOPE   H9X  102   4.160   4.721   8.582 -1.4426  1.1096 -0.3601
    1DOPE  C310  103   4.113   4.548   8.705  0.1679 -1.3253  0.9388
    1DOPE  H10X  104   4.188   4.483   8.657  0.0029  0.0637 -1.3736
    1DOPE  C311  105   4.041   4.483   8.821  2.0638  0.2294  0.3941
    1DOPE  H11X  106   3.970   4.554   8.869  1.1768  0.2505 -0.8972
    1DOPE  H11Y  107   3.978   4.404   8.777 -0.2640  1.1669  1.8481
    1DOPE  C312  108   4.127   4.421   8.930 -0.0765  0.4883  0.2195
    1DOPE  H12X  109   4.058   4.353   8.985 -0.4723  1.0693  0.4521
    1DOPE  H12Y  110   4.167   4.494   9.004 -1.2532 -0.7699  2.1997
    1DOPE  C313  111   4.246   4.342   8.873 -0.1683  0.0468 -0.5183
    1DOPE  H13X  112   4.319   4.402   8.815 -0.5213 -0.5248 -1.5728
    1DOPE  H13Y  113   4.305   4.319   8.965 -0.1673 -0.8865 -0.7449
    1DOPE  C314  114   4.209   4.216   8.793  0.1888 -1.0888 -0.2417
    1DOPE  H14X  115   4.288   4.189   8.719  0.7659 -0.2891  0.0707
    1DOPE  H14Y  116   4.118   4.252   8.741 -0.6839  0.5119  2.2126
    1DOPE  C315  117   4.185   4.096   8.879  0.0182 -0.2392  0.0551
    1DOPE  H15X  118   4.106   4.035   8.830 -1.2644  1.4904 -0.1042
    1DOPE  H15Y  119   4.141   4.125   8.977 -1.3029  1.8826 -1.0972
    1DOPE  C316  120   4.316   4.008   8.901  0.2135  0.2172 -0.5625
    1DOPE  H16X  121   4.294   3.933   8.979  0.1801  0.7328 -0.0694
    1DOPE  H16Y  122   4.400   4.072   8.935  1.2828 -2.0406  1.2665
    1DOPE  C317  123   4.363   3.926   8.785 -0.0924 -0.3464  0.6716
    1DOPE  H17X  124   4.404   4.001   8.714 -0.9335 -1.4158 -1.0405
    1DOPE  H17Y  125   4.450   3.872   8.828  1.5155  1.1895 -0.5024
    1DOPE  C318  126   4.267   3.838   8.702  0.1544  0.3796  0.4932
    1DOPE  H18X  127   4.220   3.761   8.766  1.3407 -1.3714 -0.6600
    1DOPE  H18Y  128   4.186   3.896   8.654  0.3094  1.0113  0.9827
    1DOPE  H18Z  129   4.329   3.782   8.628 -0.3748 -1.8872  1.6670
    2DOPE     N  130   6.432   5.160   9.875  0.4872 -0.2326 -0.2579
    2DOPE   HN1  131   6.333   5.171   9.906 -0.0002  0.0829 -1.8196
    2DOPE   HN2  132   6.490   5.149   9.960  0.2431 -2.0854 -0.2870
    2DOPE   HN3  133   6.455   5.244   9.818  1.7393  0.0545  0.6265
    2DOPE   C12  134   6.444   5.032   9.782  0.0795  0.7388 -0.6373
    2DOPE  H12A  135   6.499   4.949   9.832 -0.8053  1.4343  1.6393
    2DOPE  H12B  136   6.491   5.064   9.687  0.1792  1.2164 -0.4263
    2DOPE   C11  137   6.299   4.989   9.731  0.5297 -0.4979 -0.3919
    2DOPE  H11A  138   6.314   4.895   9.674 -0.8025 -3.1923  3.3234
    2DOPE  H11B  139   6.258   5.063   9.659 -0.6831  0.7392  1.4870
    2DOPE     P  140   6.084   5.053   9.862  0.1982  0.4937 -0.0325
    2DOPE   O13  141   6.146   5.183   9.889 -0.2917  0.5623 -0.1548
    2DOPE   O14  142   5.992   4.992   9.965 -0.4901 -0.1654 -0.8208
    2DOPE   O11  143   6.007   5.052   9.721 -0.5431 -0.6249  0.2661
    2DOPE   O12  144   6.202   4.954   9.831  0.1902 -0.6853  0.7796
    2DOPE    C1  145   5.903   4.958   9.693  0.0349  0.8149 -0.7185
    2DOPE    HA  146   5.813   5.000   9.744  0.4666 -0.1211  0.9033
    2DOPE    HB  147   5.937   4.858   9.728  3.2147  1.1412 -2.5595
    2DOPE    C2  148   5.869   4.955   9.536 -0.6423  0.8643  0.4273
    2DOPE    HS  149   5.802   4.867   9.520  2.6105 -2.3179  2.5608
    2DOPE   O21  150   5.984   4.945   9.453  0.7851  0.3118 -0.1300
    2DOPE   C21  151   6.037   4.823   9.446  0.1216 -1.0816  0.4377
    2DOPE   O22  152   5.989   4.724   9.502  0.2854  0.4384 -0.4284
    2DOPE   C22  153   6.180   4.837   9.374  0.4847 -0.0932  0.3528
    2DOPE   H2R  154   6.255   4.841   9.455  1.4597  0.1252 -0.5328
    2DOPE   H2S  155   6.167   4.931   9.316 -0.0117 -0.7875 -0.7049
    2DOPE    C3  156   5.778   5.068   9.488  0.2486 -0.0547 -1.0925
    2DOPE    HX  157   5.848   5.151   9.463  0.3022  0.2979  0.1853
    2DOPE    HY  158   5.708   5.090   9.571  0.8133  1.5092 -0.9903
    2DOPE   O31  159   5.691   5.033   9.377  0.4523 -0.0413 -0.2626
    2DOPE   C31  160   5.724   5.066   9.254  0.4243 -0.3046 -0.7382
    2DOPE   O32  161   5.823   5.138   9.222  0.3951  0.1049  0.1005
    2DOPE   C32  162   5.622   5.014   9.156 -0.3287 -0.3391  1.0374
    2DOPE   H2X  163   5.662   4.915   9.124  1.2055 -0.0634  1.9766
    2DOPE   H2Y  164   5.521   5.002   9.201 -1.9846  1.8340 -1.7882
    2DOPE   C23  165   6.193   4.714   9.274  0.1662 -0.4821 -0.2493
    2DOPE   H3R  166   6.189   4.623   9.337  1.3326  0.3102  1.0332
    2DOPE   H3S  167   6.297   4.730   9.240  1.0286 -1.1191  1.9115
    2DOPE   C24  168   6.098   4.715   9.149 -0.4967 -0.1364  0.6721
    2DOPE   H4R  169   5.993   4.721   9.186 -0.6137  1.5343  0.1871
    2DOPE   H4S  170   6.112   4.628   9.082  0.2554  1.2595 -1.0618
    2DOPE   C25  171   6.125   4.832   9.054  0.1650 -0.4671  0.3787
    2DOPE   H5R  172   6.232   4.825   9.028  0.3399  2.3163  0.0638
    2DOPE   H5S  173   6.105   4.924   9.114 -1.5850 -0.3253 -0.3472
    2DOPE   C26  174   6.032   4.837   8.935 -0.6631  0.1990  0.6877
    2DOPE   H6R  175   5.928   4.856   8.970 -1.5552 -1.2638 -1.0151
    2DOPE   H6S  176   6.039   4.734   8.894  1.8338  0.1084  1.1554
    2DOPE   C27  177   6.060   4.936   8.831 -0.2742  0.9129  0.8472
    2DOPE   H7R  178   5.997   4.916   8.742  4.1348 -0.1263 -2.4191
    2DOPE   H7S  179   6.161   4.925   8.786 -0.5544  1.1126  0.1575
    2DOPE   C28  180   6.049   5.080   8.880 -0.2255  0.0051  0.1585
    2DOPE   H8R  181   6.125   5.095   8.960 -1.1445 -0.9504  1.2415
    2DOPE   H8S  182   5.953   5.094   8.935 -0.0490  1.7074  0.0630
    2DOPE   C29  183   6.077   5.187   8.774 -0.0932 -0.1326  0.3793
    2DOPE   H9R  184   6.172   5.165   8.723  0.4668  0.0143  1.3333
    2DOPE  C210  185   6.008   5.293   8.733 -0.2676  0.4643  0.7452
    2DOPE  H10R  186   6.041   5.350   8.645  0.1546  0.4156  0.8679
    2DOPE  C211  187   5.875   5.334   8.778  0.0784 -0.1234 -0.5410
    2DOPE  H11R  188   5.867   5.445   8.774 -0.7159  0.0187  2.3789
    2DOPE  H11S  189   5.870   5.302   8.885 -1.4779 -0.1590 -0.6010
    2DOPE  C212  190   5.763   5.255   8.701  0.1359 -0.2054  0.5894
    2DOPE  H12R  191   5.669   5.273   8.757 -1.1879 -1.2665 -1.1894
    2DOPE  H12S  192   5.781   5.146   8.692 -1.8188 -0.5138 -0.0376
    2DOPE  C213  193   5.732   5.300   8.559 -0.1771  0.3129  0.5301
    2DOPE  H13R  194   5.824   5.318   8.499 -1.9980 -0.2058 -2.6612
    2DOPE  H13S  195   5.679   5.397   8.568  1.1774  1.0855  0.4239
    2DOPE  C214  196   5.647   5.199   8.477  0.2480  0.3903  0.1561
    2DOPE  H14R  197   5.608   5.250   8.386  0.9092  0.8302  0.1095
    2DOPE  H14S  198   5.569   5.180   8.554 -0.1289  1.2348 -0.0034
    2DOPE  C215  199   5.734   5.070   8.443 -0.8303  0.1472  0.0428
    2DOPE  H15R  200   5.752   5.019   8.541 -0.6797  2.9000  1.5341
    2DOPE  H15S  201   5.839   5.083   8.407 -0.2596 -4.4110 -0.6079
    2DOPE  C216  202   5.652   4.974   8.360 -0.3102  0.2895 -0.5668
    2DOPE  H16R  203   5.631   5.028   8.265 -0.7010  2.1479  0.5329
    2DOPE  H16S  204   5.559   4.945   8.413 -0.1953  0.0924 -0.4736
    2DOPE  C217  205   5.731   4.851   8.333 -0.0937 -0.1889 -0.5583
    2DOPE  H17R  206   5.745   4.805   8.433 -2.5951  0.5928  0.2052
    2DOPE  H17S  207   5.832   4.888   8.305 -0.2460  0.0392 -0.8053
    2DOPE  C218  208   5.674   4.752   8.230 -0.0263  0.1369 -0.1182
    2DOPE  H18R  209   5.663   4.804   8.132  2.8981 -0.1711 -0.7171
    2DOPE  H18S  210   5.582   4.700   8.264  0.9064 -2.8217 -1.7517
    2DOPE  H18T  211   5.760   4.683   8.214 -0.4006 -0.2987 -0.2784
    2DOPE   C33  212   5.607   5.109   9.038  0.2052  0.0697 -0.9190
    2DOPE   H3X  213   5.699   5.129   8.979  0.2221  0.3315 -0.8065
    2DOPE   H3Y  214   5.578   5.204   9.087  0.4365 -0.4432  0.2347
    2DOPE   C34  215   5.492   5.069   8.946  0.4476 -0.6310  0.5745
    2DOPE   H4X  216   5.399   5.058   9.006  0.1403 -0.3481  0.1554
    2DOPE   H4Y  217   5.475   5.142   8.864  0.8887 -0.7596  0.3654
    2DOPE   C35  218   5.508   4.939   8.865  0.0893  0.2376 -0.4928
    2DOPE   H5X  219   5.483   4.851   8.929 -1.7669 -0.5761 -2.2004
    2DOPE   H5Y  220   5.613   4.920   8.834  0.0306 -1.2645  0.1317
    2DOPE   C36  221   5.411   4.926   8.747  0.1053  0.1654 -0.1899
    2DOPE   H6X  222   5.433   5.010   8.677  0.0918  0.4471  0.1430
    2DOPE   H6Y  223   5.305   4.934   8.779  0.7419  1.3009  1.8243
    2DOPE   C37  224   5.437   4.799   8.666  0.3794 -0.9568  0.0664
    2DOPE   H7X  225   5.535   4.793   8.614  0.6039  0.7227  0.2360
    2DOPE   H7Y  226   5.429   4.710   8.732  2.8631 -1.1644  0.1868
    2DOPE   C38  227   5.328   4.776   8.548 -0.2322 -0.1085 -0.0926
    2DOPE   H8X  228   5.342   4.858   8.474 -0.2750 -1.5893 -1.8160
    2DOPE   H8Y  229   5.232   4.804   8.596  1.4865  1.5191  2.6480
    2DOPE   C39  230   5.321   4.631   8.504  0.1155 -0.2241  0.3405
    2DOPE   H9X  231   5.397   4.561   8.544 -0.0207 -2.0695 -2.3414
    2DOPE  C310  232   5.241   4.587   8.399  0.2654 -0.1277 -0.0963
    2DOPE  H10X  233   5.247   4.489   8.350 -2.7663 -0.3629 -0.1716
    2DOPE  C311  234   5.153   4.689   8.337  1.2745 -0.3550  0.6459
    2DOPE  H11X  235   5.193   4.793   8.344 -1.8824  1.0095  0.2577
    2DOPE  H11Y  236   5.157   4.669   8.228  2.0387 -0.8579  0.7638
    2DOPE  C312  237   5.012   4.695   8.390 -0.5596  0.0546 -0.4418
    2DOPE  H12X  238   5.003   4.729   8.495 -1.7181  1.3132 -0.9371
    2DOPE  H12Y  239   4.963   4.595   8.390  1.7645 -1.1740 -1.8600
    2DOPE  C313  240   4.925   4.787   8.298  0.6564 -0.5277  0.4173
    2DOPE  H13X  241   4.843   4.839   8.353  0.5057 -0.5619  0.2253
    2DOPE  H13Y  242   4.982   4.878   8.269 -1.8479  1.4863  1.3430
    2DOPE  C314  243   4.888   4.720   8.168  0.0586  0.3053  0.0546
    2DOPE  H14X  244   4.833   4.625   8.183  0.7399 -0.4599 -1.9942
    2DOPE  H14Y  245   4.979   4.694   8.110  0.4080  3.9560 -1.3052
    2DOPE  C315  246   4.800   4.814   8.078  0.8120 -0.3007  0.5065
    2DOPE  H15X  247   4.861   4.906   8.062  0.1108  0.1159  0.1674
    2DOPE  H15Y  248   4.710   4.830   8.143  0.0535  0.6584 -0.7391
    2DOPE  C316  249   4.755   4.754   7.943  0.7957  0.5127 -0.6899
    2DOPE  H16X  250   4.676   4.811   7.889  0.2666  0.8679  0.4279
    2DOPE  H16Y  251   4.710   4.655   7.968 -0.3922  1.4111  0.9639
    2DOPE  C317  252   4.879   4.738   7.855 -0.4391 -0.2614  0.1429
    2DOPE  H17X  253   4.927   4.837   7.868  2.5298 -1.6822  0.8198
    2DOPE  H17Y  254   4.943   4.660   7.900  2.2061  2.2489  1.0117
    2DOPE  C318  255   4.856   4.717   7.707 -0.2593 -0.7357  0.2962
    2DOPE  H18X  256   4.796   4.627   7.681 -1.5708 -0.1057  1.0553
    2DOPE  H18Y  257   4.809   4.805   7.658  1.9865 -0.4913 -1.6200
    2DOPE  H18Z  258   4.948   4.693   7.650 -0.8606 -0.1834 -0.9594
    3DOPE     N  259   2.561   7.548  10.162 -0.0031 -0.2255  0.4581
    3DOPE   HN1  260   2.556   7.622  10.235 -0.4656  1.7733 -1.4701
    3DOPE   HN2  261   2.525   7.456  10.193  1.7664 -2.1687 -2.7543
    3DOPE   HN3  262   2.662   7.526  10.149  0.0881 -0.2940  1.2527
    3DOPE   C12  263   2.504   7.591  10.024  0.3239 -0.2794  0.1248
    3DOPE  H12A  264   2.583   7.649   9.972 -0.1082 -0.8397 -1.2020
    3DOPE  H12B  265   2.415   7.655  10.043  1.0041  1.3788 -1.8335
    3DOPE   C11  266   2.446   7.466   9.953 -0.1584 -0.3656 -0.0341
    3DOPE  H11A  267   2.405   7.493   9.853  1.1621  2.9870  0.1944
    3DOPE  H11B  268   2.363   7.441  10.022  0.2843 -0.1032  0.6045
    3DOPE     P  269   2.660   7.352   9.840 -0.0389  0.9827 -0.2869
    3DOPE   O13  270   2.767   7.253   9.879  0.5750 -0.2050  0.0217
    3DOPE   O14  271   2.707   7.483   9.812  0.0545 -0.2534  0.0606
    3DOPE   O11  272   2.580   7.306   9.715  0.3418  0.5107 -0.0300
    3DOPE   O12  273   2.544   7.356   9.945  0.1259 -0.7320 -0.1023
    3DOPE    C1  274   2.480   7.204   9.726  1.0855  0.4789 -0.5594
    3DOPE    HA  275   2.397   7.234   9.794  2.1514  1.1434  0.4966
    3DOPE    HB  276   2.522   7.104   9.751 -1.3113 -1.6796 -4.2027
    3DOPE    C2  277   2.407   7.166   9.587  0.3450 -0.0818  0.1034
    3DOPE    HS  278   2.356   7.067   9.594 -0.5338  0.3027 -0.5554
    3DOPE   O21  279   2.499   7.165   9.476  0.3083  0.0289  0.0188
    3DOPE   C21  280   2.613   7.099   9.484 -0.2622 -0.2918 -0.4764
    3DOPE   O22  281   2.636   7.007   9.554  0.2364 -0.1843 -0.0511
    3DOPE   C22  282   2.711   7.162   9.379  0.9369  0.6693  0.3093
    3DOPE   H2R  283   2.764   7.255   9.407 -0.4324  1.4979  0.2167
    3DOPE   H2S  284   2.662   7.187   9.283 -0.1429 -1.1297  0.3455
    3DOPE    C3  285   2.304   7.270   9.539  0.7938 -0.2413 -0.0802
    3DOPE    HX  286   2.352   7.366   9.510 -1.1431  1.3755  1.7869
    3DOPE    HY  287   2.246   7.302   9.628  0.2415  0.8257 -0.8042
    3DOPE   O31  288   2.224   7.233   9.419 -0.3146 -0.4094  0.0098
    3DOPE   C31  289   2.123   7.156   9.452  1.1550  0.3930  0.2586
    3DOPE   O32  290   2.084   7.125   9.565  0.0236 -0.3467 -0.1036
    3DOPE   C32  291   2.048   7.102   9.331 -0.2976  0.6843  0.6933
    3DOPE   H2X  292   1.957   7.043   9.355  0.3075 -2.1368 -3.0595
    3DOPE   H2Y  293   2.020   7.186   9.263  1.2327  0.3928 -0.3583
    3DOPE   C23  294   2.823   7.058   9.335 -0.0052  0.1816 -0.3889
    3DOPE   H3R  295   2.880   7.102   9.251  0.6042  1.5209  0.6757
    3DOPE   H3S  296   2.784   6.960   9.303  0.6157  0.3657 -1.7678
    3DOPE   C24  297   2.929   7.021   9.443  0.1354 -0.3293  0.1452
    3DOPE   H4R  298   3.011   6.961   9.399  1.3162  0.7445  0.8040
    3DOPE   H4S  299   2.889   6.952   9.520  0.2898 -0.7442 -0.1467
    3DOPE   C25  300   2.988   7.144   9.503  0.7370  0.1284  0.3280
    3DOPE   H5R  301   2.916   7.198   9.568 -1.8722 -0.5918 -1.7873
    3DOPE   H5S  302   3.007   7.218   9.423  2.0694  0.3766  0.8569
    3DOPE   C26  303   3.120   7.105   9.573 -0.5559 -0.6016  0.7409
    3DOPE   H6R  304   3.187   7.066   9.493  0.0758 -0.6272  1.2765
    3DOPE   H6S  305   3.099   7.024   9.646 -0.7463  0.6222  2.0924
    3DOPE   C27  306   3.185   7.220   9.648  0.5257  0.2894 -0.2410
    3DOPE   H7R  307   3.119   7.242   9.734 -0.4434 -2.1369 -0.2812
    3DOPE   H7S  308   3.193   7.315   9.591  1.2094  1.6085  1.9465
    3DOPE   C28  309   3.330   7.184   9.698  0.6304 -0.3707 -0.1765
    3DOPE   H8R  310   3.375   7.260   9.764 -0.1634  0.5490 -0.6717
    3DOPE   H8S  311   3.389   7.176   9.604  1.1351  0.3240  0.0721
    3DOPE   C29  312   3.319   7.058   9.777 -0.2422 -0.1645 -0.4865
    3DOPE   H9R  313   3.242   7.065   9.855  0.8516 -0.5007  0.6720
    3DOPE  C210  314   3.411   6.954   9.785  0.6471 -0.2173  0.2689
    3DOPE  H10R  315   3.374   6.861   9.831 -1.5540  1.2030  1.5911
    3DOPE  C211  316   3.532   6.948   9.689  0.6291 -0.2033  0.0166
    3DOPE  H11R  317   3.617   6.907   9.747 -0.2976 -0.8007  0.9964
    3DOPE  H11S  318   3.545   7.050   9.647  1.4440 -1.9856 -4.7579
    3DOPE  C212  319   3.516   6.862   9.561 -0.0859  0.3182  1.0663
    3DOPE  H12R  320   3.611   6.879   9.506 -1.2558  0.3375 -1.0919
    3DOPE  H12S  321   3.439   6.893   9.486  0.4519 -0.7992  0.0143
    3DOPE  C213  322   3.519   6.708   9.585 -0.0978 -0.3861 -0.9322
    3DOPE  H13R  323   3.410   6.686   9.580 -0.0928 -0.1918 -2.1973
    3DOPE  H13S  324   3.560   6.700   9.688 -0.5146  2.4396 -0.4563
    3DOPE  C214  325   3.611   6.628   9.492 -0.6005  0.3617 -0.1368
    3DOPE  H14R  326   3.686   6.695   9.445  2.0493 -2.4764 -0.2522
    3DOPE  H14S  327   3.539   6.575   9.425 -1.0265 -2.5565  2.4000
    3DOPE  C215  328   3.705   6.525   9.550 -0.0066 -0.0633 -0.1282
    3DOPE  H15R  329   3.649   6.454   9.615  1.3268  0.3174  1.4845
    3DOPE  H15S  330   3.772   6.581   9.618  2.7551 -0.8840 -2.0343
    3DOPE  C216  331   3.788   6.457   9.438  0.0351 -0.2775 -0.4321
    3DOPE  H16R  332   3.835   6.530   9.369  0.2466  0.3734  0.3803
    3DOPE  H16S  333   3.715   6.404   9.373  0.9133  1.0301 -2.5877
    3DOPE  C217  334   3.899   6.359   9.483  0.0846  0.1385 -0.2645
    3DOPE  H17R  335   3.848   6.310   9.569 -1.0875  0.7183 -0.5984
    3DOPE  H17S  336   3.990   6.415   9.514 -0.8082  1.2793  0.4154
    3DOPE  C218  337   3.939   6.262   9.379 -0.0292  0.0837 -0.8036
    3DOPE  H18R  338   3.854   6.192   9.360 -0.3015  0.0649  0.4045
    3DOPE  H18S  339   4.034   6.217   9.415  2.4203  3.2952 -2.7422
    3DOPE  H18T  340   3.954   6.316   9.284 -3.6175 -0.5142 -1.8849
    3DOPE   C33  341   2.150   7.011   9.243  0.4391  0.4433  0.5768
    3DOPE   H3X  342   2.252   7.055   9.237 -0.7683  3.6868  1.3857
    3DOPE   H3Y  343   2.116   7.015   9.138 -0.4607 -0.2502  0.8233
    3DOPE   C34  344   2.153   6.859   9.282 -0.2459  0.1174 -0.4265
    3DOPE   H4X  345   2.234   6.818   9.218 -1.7844 -1.1516 -1.6490
    3DOPE   H4Y  346   2.180   6.833   9.387  0.3948  2.9395  0.1980
    3DOPE   C35  347   2.021   6.788   9.245 -0.8968 -0.5652  0.0004
    3DOPE   H5X  348   1.928   6.833   9.287 -0.7353 -2.0805  2.1759
    3DOPE   H5Y  349   2.029   6.691   9.300  0.1073 -0.4570  0.0589
    3DOPE   C36  350   2.005   6.758   9.090  0.1231 -0.4563 -0.5268
    3DOPE   H6X  351   2.050   6.660   9.064 -1.1454 -1.1699 -0.1537
    3DOPE   H6Y  352   2.041   6.846   9.034 -2.1208  1.5729  1.0265
    3DOPE   C37  353   1.854   6.751   9.043 -0.2280  0.4484  0.3913
    3DOPE   H7X  354   1.803   6.836   9.094  1.0022  0.5461  1.5361
    3DOPE   H7Y  355   1.840   6.765   8.934 -0.5116  1.9083  0.5920
    3DOPE   C38  356   1.791   6.614   9.074 -0.0735  0.6565 -0.1049
    3DOPE   H8X  357   1.825   6.593   9.178 -0.1563  0.2489 -0.1563
    3DOPE   H8Y  358   1.829   6.531   9.010 -0.0080  1.5615 -1.2732
    3DOPE   C39  359   1.643   6.620   9.079  0.4211  0.8808 -0.1683
    3DOPE   H9X  360   1.604   6.695   9.150  0.5348 -0.3626  1.2420
    3DOPE  C310  361   1.554   6.567   8.992 -0.1996  0.1436  0.2768
    3DOPE  H10X  362   1.448   6.574   9.021  0.2346  0.9978  1.7487
    3DOPE  C311  363   1.593   6.473   8.875  0.2793  0.7803 -0.4107
    3DOPE  H11X  364   1.510   6.473   8.801 -1.2923 -1.0873  1.2101
    3DOPE  H11Y  365   1.675   6.518   8.815 -1.5612  2.6823 -1.6175
    3DOPE  C312  366   1.619   6.323   8.902  0.9865  0.2396 -0.8344
    3DOPE  H12X  367   1.539   6.295   8.974  1.0722  0.1515 -0.7727
    3DOPE  H12Y  368   1.722   6.309   8.942  1.1293 -0.3568 -1.3847
    3DOPE  C313  369   1.595   6.230   8.780 -0.1946 -0.6461 -0.2626
    3DOPE  H13X  370   1.495   6.247   8.735 -0.2683 -0.0548  0.1075
    3DOPE  H13Y  371   1.675   6.257   8.708  1.8248 -0.9248  1.7585
    3DOPE  C314  372   1.628   6.082   8.813 -0.4681  0.8399 -0.5633
    3DOPE  H14X  373   1.572   6.056   8.905 -0.3552  1.2433 -0.3802
    3DOPE  H14Y  374   1.737   6.072   8.830 -0.1992  1.8215 -1.5792
    3DOPE  C315  375   1.590   5.987   8.698 -0.4603  0.2463 -0.7095
    3DOPE  H15X  376   1.479   5.991   8.689 -0.4135  0.7324 -1.1307
    3DOPE  H15Y  377   1.617   5.880   8.708  0.3939  0.5445  0.4339
    3DOPE  C316  378   1.648   6.037   8.568  0.3226  0.0789  0.1044
    3DOPE  H16X  379   1.758   6.044   8.582  0.1890  0.4682  1.0546
    3DOPE  H16Y  380   1.620   6.139   8.533  1.4436  0.3283 -0.1007
    3DOPE  C317  381   1.617   5.936   8.461 -0.1919  0.8627 -0.4332
    3DOPE  H17X  382   1.634   5.833   8.500 -1.7863  0.1602 -1.4840
    3DOPE  H17Y  383   1.508   5.932   8.443 -0.1789  1.1174 -0.5599
    3DOPE  C318  384   1.678   5.956   8.325 -0.4661  0.5305  0.2356
    3DOPE  H18X  385   1.789   5.964   8.317 -0.4633 -0.4398 -0.8792
    3DOPE  H18Y  386   1.647   5.871   8.261  0.7961 -0.1956  0.5498
    3DOPE  H18Z  387   1.630   6.041   8.272 -1.3188 -1.4544 -2.3785
    4DOPE     N  388   5.595   2.527   9.524 -0.2207 -0.4591  0.5672
    4DOPE   HN1  389   5.598   2.630   9.527 -0.3386 -0.2205 -3.0957
    4DOPE   HN2  390   5.519   2.485   9.466 -0.1107 -0.1588  0.2004
    4DOPE   HN3  391   5.572   2.499   9.622 -0.1204 -1.4842  0.3113
    4DOPE   C12  392   5.724   2.455   9.486  0.3801 -0.3952  0.1712
    4DOPE  H12A  393   5.700   2.347   9.486  0.9986 -0.5455 -1.0676
    4DOPE  H12B  394   5.797   2.489   9.563 -0.2888 -1.4108  1.2981
    4DOPE   C11  395   5.783   2.494   9.346 -0.3333  0.4381 -0.3715
    4DOPE  H11A  396   5.732   2.438   9.265 -0.6175 -0.1777  0.2219
    4DOPE  H11B  397   5.889   2.463   9.352  0.2021  1.8483 -1.8142
    4DOPE     P  398   5.872   2.744   9.366 -0.0165  0.1642 -0.2352
    4DOPE   O13  399   5.954   2.676   9.471  0.1137  0.3291  0.7078
    4DOPE   O14  400   5.802   2.864   9.405 -0.3369  0.2517  0.2327
    4DOPE   O11  401   5.961   2.775   9.236  0.4883  0.3608  0.1701
    4DOPE   O12  402   5.763   2.636   9.327  0.1506  0.1111  0.5111
    4DOPE    C1  403   5.910   2.852   9.133  0.9552  0.4755 -0.3489
    4DOPE    HA  404   5.799   2.853   9.130  0.8932 -0.9036  0.5742
    4DOPE    HB  405   5.943   2.812   9.035  2.5278 -3.0184  1.4144
    4DOPE    C2  406   5.950   3.000   9.131  0.0333  0.7517  0.5517
    4DOPE    HS  407   5.929   3.047   9.230  0.8617  1.5707  0.3461
    4DOPE   O21  408   5.876   3.050   9.013  0.0490  0.0197  0.2564
    4DOPE   C21  409   5.817   3.164   9.032 -0.3923  0.2612 -0.0389
    4DOPE   O22  410   5.833   3.234   9.129 -0.4065 -0.3125 -0.0497
    4DOPE   C22  411   5.719   3.193   8.914 -0.9668 -0.0774 -0.5720
    4DOPE   H2R  412   5.765   3.161   8.818  2.2274  0.9852  0.4958
    4DOPE   H2S  413   5.693   3.301   8.910  0.8179  0.4832  1.4851
    4DOPE    C3  414   6.100   3.006   9.101 -0.0544 -0.6715  0.2351
    4DOPE    HX  415   6.121   2.964   9.000  0.0599 -2.7863  1.0707
    4DOPE    HY  416   6.160   2.948   9.175 -0.1622 -0.7248  0.2807
    4DOPE   O31  417   6.144   3.148   9.091 -0.3994  0.2628  0.0726
    4DOPE   C31  418   6.164   3.205   9.207 -0.3060 -0.3242  0.1247
    4DOPE   O32  419   6.116   3.159   9.313  0.0402 -0.1482  0.1944
    4DOPE   C32  420   6.229   3.342   9.189  0.1919  0.0627  0.1502
    4DOPE   H2X  421   6.201   3.411   9.271 -1.7019  1.2211 -1.3813
    4DOPE   H2Y  422   6.338   3.338   9.166 -0.3983 -0.6098 -2.9751
    4DOPE   C23  423   5.581   3.125   8.943  0.1588 -0.4158  0.4174
    4DOPE   H3R  424   5.557   3.128   9.052 -0.3550 -0.2911  0.3056
    4DOPE   H3S  425   5.577   3.015   8.923 -0.8797 -0.3700  0.2789
    4DOPE   C24  426   5.471   3.195   8.869  0.1741 -0.1065 -0.9077
    4DOPE   H4R  427   5.487   3.190   8.759 -1.7723 -1.8623 -1.1694
    4DOPE   H4S  428   5.472   3.304   8.890  1.4200 -0.0732 -1.1092
    4DOPE   C25  429   5.332   3.141   8.899 -0.2602  0.5070  0.1667
    4DOPE   H5R  430   5.300   3.122   9.004 -1.0483 -0.9369 -0.3102
    4DOPE   H5S  431   5.329   3.043   8.848 -2.5001  0.3523  0.4973
    4DOPE   C26  432   5.222   3.226   8.840 -0.4959 -0.2386 -0.1056
    4DOPE   H6R  433   5.206   3.314   8.906 -1.4388 -0.6169  0.1855
    4DOPE   H6S  434   5.126   3.171   8.842 -0.3185 -0.5348  1.6003
    4DOPE   C27  435   5.243   3.298   8.699  0.7753 -0.2556  0.4892
    4DOPE   H7R  436   5.264   3.222   8.621  1.0929  0.0985  0.2264
    4DOPE   H7S  437   5.329   3.368   8.700  0.1406  0.5976 -1.0341
    4DOPE   C28  438   5.109   3.374   8.656  0.4411  0.4005  0.3812
    4DOPE   H8R  439   5.025   3.321   8.704 -0.3277  1.6248  0.4364
    4DOPE   H8S  440   5.078   3.383   8.549  1.4005  1.0483  0.1428
    4DOPE   C29  441   5.106   3.518   8.704  0.2127 -1.0919  0.9268
    4DOPE   H9R  442   5.080   3.528   8.810  3.3740 -3.3356  2.0845
    4DOPE  C210  443   5.138   3.628   8.629 -0.5434  0.3939  0.2117
    4DOPE  H10R  444   5.139   3.728   8.676 -0.6854  0.5055 -0.0170
    4DOPE  C211  445   5.176   3.616   8.488 -0.6536 -0.6041 -0.2277
    4DOPE  H11R  446   5.096   3.558   8.438 -0.4474 -1.8172  0.8003
    4DOPE  H11S  447   5.270   3.557   8.479 -0.5435 -0.5833  0.7104
    4DOPE  C212  448   5.206   3.751   8.414 -0.0448  0.2566 -0.6882
    4DOPE  H12R  449   5.255   3.712   8.322 -0.7351 -1.3924 -0.3928
    4DOPE  H12S  450   5.285   3.799   8.477  1.5142 -2.7402 -0.1837
    4DOPE  C213  451   5.084   3.840   8.377  0.5773  0.4459 -1.2768
    4DOPE  H13R  452   5.010   3.839   8.460 -1.2854  0.4609 -2.8713
    4DOPE  H13S  453   5.029   3.793   8.292 -1.7400  0.9792 -0.1490
    4DOPE  C214  454   5.122   3.984   8.343 -0.5685  0.4796  0.3388
    4DOPE  H14R  455   5.172   3.979   8.244  0.4018  1.8104  0.7365
    4DOPE  H14S  456   5.203   4.018   8.412 -0.9716 -0.0582  1.0897
    4DOPE  C215  457   4.999   4.079   8.342 -0.4578 -0.2141  0.2321
    4DOPE  H15R  458   4.971   4.108   8.446  0.7541 -1.2973  0.8922
    4DOPE  H15S  459   4.920   4.021   8.290 -0.1141 -1.0596  0.6321
    4DOPE  C216  460   5.025   4.201   8.263 -0.3620  0.5264  0.2438
    4DOPE  H16R  461   5.015   4.179   8.154 -0.8299 -0.5019  0.4770
    4DOPE  H16S  462   5.111   4.263   8.294 -0.1831 -0.5361  2.0326
    4DOPE  C217  463   4.910   4.305   8.278  0.3397 -0.1273 -0.2313
    4DOPE  H17R  464   4.941   4.368   8.192  2.3624  1.1756  1.3741
    4DOPE  H17S  465   4.914   4.368   8.369 -0.4217 -3.0066  1.9350
    4DOPE  C218  466   4.769   4.253   8.252  0.8411 -0.0060 -0.8913
    4DOPE  H18R  467   4.735   4.189   8.336  1.1595  1.6761  0.5698
    4DOPE  H18S  468   4.756   4.200   8.155 -0.6898 -1.5759  0.1327
    4DOPE  H18T  469   4.707   4.344   8.236 -1.1837 -1.4963 -2.0356
    4DOPE   C33  470   6.163   3.414   9.068 -0.3461  0.4425  0.1023
    4DOPE   H3X  471   6.068   3.364   9.039  0.9943 -1.8212 -0.6107
    4DOPE   H3Y  472   6.230   3.388   8.983  1.1999 -0.7001  1.6026
    4DOPE   C34  473   6.152   3.567   9.097  0.1889  0.4436  0.2477
    4DOPE   H4X  474   6.250   3.600   9.136 -0.0208 -0.9028  2.0059
    4DOPE   H4Y  475   6.127   3.619   9.001 -0.6629  0.3620  0.4162
    4DOPE   C35  476   6.034   3.611   9.189 -0.0253 -0.3679 -0.4414
    4DOPE   H5X  477   6.023   3.530   9.265  2.2175  1.5553  2.1369
    4DOPE   H5Y  478   5.941   3.599   9.131 -0.7933 -0.7360  0.8220
    4DOPE   C36  479   6.039   3.743   9.252 -0.2642  0.0909 -0.5595
    4DOPE   H6X  480   6.119   3.743   9.329 -0.7860 -0.2059 -0.0126
    4DOPE   H6Y  481   5.953   3.747   9.322  2.2990  0.4278  2.8519
    4DOPE   C37  482   6.045   3.868   9.166  0.0093  0.1007  0.1688
    4DOPE   H7X  483   6.039   3.953   9.237 -1.3709  1.1538 -1.1569
    4DOPE   H7Y  484   6.144   3.874   9.117 -0.7572 -0.5681 -1.5132
    4DOPE   C38  485   5.931   3.863   9.069  0.4521 -1.0337 -0.2502
    4DOPE   H8X  486   5.839   3.860   9.132  2.2051 -1.1436  2.4239
    4DOPE   H8Y  487   5.932   3.772   9.005  1.9898 -1.2626  0.0786
    4DOPE   C39  488   5.926   3.993   8.980 -0.0297 -0.5878 -0.0251
    4DOPE   H9X  489   5.960   3.983   8.875  0.4733  2.5178 -0.2503
    4DOPE  C310  490   5.889   4.114   9.022  0.8460  0.0697  0.6971
    4DOPE  H10X  491   5.897   4.196   8.949 -1.6299  1.4774  1.8534
    4DOPE  C311  492   5.821   4.155   9.151 -0.1316 -0.3590  0.2083
    4DOPE  H11X  493   5.852   4.094   9.239  0.6945  1.2074  1.0491
    4DOPE  H11Y  494   5.861   4.256   9.172  4.2362 -1.6700 -0.7912
    4DOPE  C312  495   5.674   4.144   9.138  0.2065 -0.1112  0.4333
    4DOPE  H12X  496   5.658   4.049   9.084  2.0930 -1.5685  2.2621
    4DOPE  H12Y  497   5.627   4.225   9.079 -1.5445  0.4261  2.4290
    4DOPE  C313  498   5.597   4.126   9.268 -0.5933 -0.6204 -0.0516
    4DOPE  H13X  499   5.606   4.024   9.311  0.7516 -0.3801  0.2840
    4DOPE  H13Y  500   5.620   4.216   9.328 -3.0994  1.9470 -2.6199
    4DOPE  C314  501   5.448   4.132   9.223 -0.1000 -0.3239  0.1880
    4DOPE  H14X  502   5.442   4.053   9.145 -2.1468 -0.9812  0.9412
    4DOPE  H14Y  503   5.430   4.231   9.174 -1.6928 -1.6635 -2.1174
    4DOPE  C315  504   5.349   4.116   9.334 -0.2105  0.3937 -0.1552
    4DOPE  H15X  505   5.371   4.192   9.412 -1.1306  0.9554 -0.4207
    4DOPE  H15Y  506   5.370   4.026   9.396 -1.7990 -0.5352 -0.8988
    4DOPE  C316  507   5.201   4.126   9.298 -0.2291  0.0720  0.7154
    4DOPE  H16X  508   5.150   4.087   9.388  0.0412 -1.3401  0.2784
    4DOPE  H16Y  509   5.174   4.063   9.210 -1.1950  3.2517 -1.4724
    4DOPE  C317  510   5.145   4.265   9.259  0.1855 -0.0615  0.2862
    4DOPE  H17X  511   5.163   4.343   9.336  0.9522  0.9884 -0.9257
    4DOPE  H17Y  512   5.214   4.292   9.176  0.2932  0.5795  0.5814
    4DOPE  C318  513   5.004   4.263   9.206 -0.0354 -0.5979  0.5056
    4DOPE  H18X  514   4.963   4.366   9.199  3.0713  0.6860 -0.5479
    4DOPE  H18Y  515   5.009   4.224   9.102  2.3243  0.3340  0.1819
    4DOPE  H18Z  516   4.935   4.209   9.274 -0.6565  0.8194  1.0371
    5DOPE     N  517   2.277   4.986   9.998 -0.4161 -0.6522  0.5380
    5DOPE   HN1  518   2.377   4.974   9.974 -1.2617 -1.5355 -3.3178
    5DOPE   HN2  519   2.240   5.065   9.941  0.4026 -0.4407  0.2864
    5DOPE   HN3  520   2.264   5.006  10.099 -0.0472 -2.7745  1.0667
    5DOPE   C12  521   2.192   4.866   9.963  0.3413 -0.1854 -0.2089
    5DOPE  H12A  522   2.097   4.902   9.917  0.6890  0.8037 -0.1890
    5DOPE  H12B  523   2.168   4.801  10.049 -2.6297  2.5793  1.2949
    5DOPE   C11  524   2.258   4.780   9.845 -0.6796 -0.0475 -0.5458
    5DOPE  H11A  525   2.245   4.837   9.751  1.0086 -0.5323 -1.1155
    5DOPE  H11B  526   2.207   4.682   9.828 -0.3650 -0.6616  1.7726
    5DOPE     P  527   2.493   4.738   9.758  0.2094  0.0979 -0.1601
    5DOPE   O13  528   2.574   4.618   9.784 -0.4738 -0.0111 -0.0039
    5DOPE   O14  529   2.557   4.868   9.747  0.3311  0.2927 -0.2757
    5DOPE   O11  530   2.408   4.718   9.626  0.7021 -0.0181  0.3303
    5DOPE   O12  531   2.392   4.754   9.877 -0.3073 -0.3299 -0.2905
    5DOPE    C1  532   2.379   4.578   9.583  0.5868  0.5622 -0.6146
    5DOPE    HA  533   2.318   4.522   9.656 -0.0408  0.1015 -1.4676
    5DOPE    HB  534   2.475   4.524   9.566 -0.7227 -1.6242 -1.4328
    5DOPE    C2  535   2.283   4.589   9.459 -0.1485 -0.1440 -0.4282
    5DOPE    HS  536   2.249   4.490   9.423 -1.9243 -0.1885  1.1678
    5DOPE   O21  537   2.364   4.653   9.356 -0.4123 -0.0440 -0.5092
    5DOPE   C21  538   2.451   4.573   9.290 -0.0100 -0.3995  0.1275
    5DOPE   O22  539   2.462   4.455   9.307  0.2850  0.9165  0.3212
    5DOPE   C22  540   2.551   4.663   9.221  0.7637  0.3906 -0.1090
    5DOPE   H2R  541   2.617   4.693   9.305  0.8325 -0.7036  0.2431
    5DOPE   H2S  542   2.499   4.759   9.203 -0.1258  0.5671  2.8658
    5DOPE    C3  543   2.152   4.679   9.482 -0.2716 -0.3309 -0.0492
    5DOPE    HX  544   2.184   4.775   9.528 -0.8014  1.2964 -2.8417
    5DOPE    HY  545   2.073   4.635   9.547 -1.8310  2.1041 -0.1425
    5DOPE   O31  546   2.094   4.706   9.350  0.1551  0.1328  0.1476
    5DOPE   C31  547   2.021   4.604   9.301  0.0183 -0.7159 -0.2924
    5DOPE   O32  548   1.983   4.506   9.362  0.5636 -0.1888 -0.1215
    5DOPE   C32  549   1.980   4.641   9.158  0.5855 -0.0139 -0.3356
    5DOPE   H2X  550   1.888   4.584   9.136  1.3250 -1.0396 -0.8375
    5DOPE   H2Y  551   1.949   4.748   9.158 -2.2083 -0.6046  3.5549
    5DOPE   C23  552   2.621   4.600   9.100 -0.3053  0.2388  0.3584
    5DOPE   H3R  553   2.651   4.679   9.028  1.0899 -1.2873 -0.8118
    5DOPE   H3S  554   2.564   4.525   9.041 -0.9074  1.2529 -0.3830
    5DOPE   C24  555   2.753   4.531   9.133 -0.1448  0.6523 -0.3080
    5DOPE   H4R  556   2.769   4.446   9.063 -1.2305 -0.4442  0.7244
    5DOPE   H4S  557   2.733   4.479   9.229  1.1725 -0.9470 -0.8378
    5DOPE   C25  558   2.862   4.634   9.149 -0.3843  0.1097  0.5919
    5DOPE   H5R  559   2.932   4.587   9.222 -2.8504 -1.8126  1.8691
    5DOPE   H5S  560   2.819   4.728   9.190  2.4624  1.7923  0.0033
    5DOPE   C26  561   2.931   4.653   9.012  0.2338  0.3968  0.1744
    5DOPE   H6R  562   2.863   4.673   8.927 -0.2282 -1.8157 -0.0527
    5DOPE   H6S  563   2.995   4.568   8.979 -1.5744  0.0127 -2.6586
    5DOPE   C27  564   3.034   4.776   9.023  0.1222  0.2582 -0.4288
    5DOPE   H7R  565   3.099   4.744   9.107 -0.6121  0.5551  0.2637
    5DOPE   H7S  566   2.993   4.870   9.066 -0.9597 -0.6996  0.7220
    5DOPE   C28  567   3.116   4.782   8.895 -0.5262  0.3861 -0.2173
    5DOPE   H8R  568   3.137   4.679   8.860  0.4741 -0.4555  2.5421
    5DOPE   H8S  569   3.211   4.830   8.927 -0.3352 -0.6071  0.7833
    5DOPE   C29  570   3.059   4.871   8.794 -0.4663 -0.1076  0.2305
    5DOPE   H9R  571   3.048   4.978   8.818  1.7309  0.1290  0.3822
    5DOPE  C210  572   3.051   4.838   8.662  0.0229  0.0744  0.0052
    5DOPE  H10R  573   3.003   4.909   8.594 -1.4836  0.3537  1.2984
    5DOPE  C211  574   3.072   4.698   8.614  0.2660  0.0070  0.0299
    5DOPE  H11R  575   2.983   4.633   8.629  0.2743  0.2114  1.0103
    5DOPE  H11S  576   3.154   4.648   8.670  0.6380  0.8179  0.2175
    5DOPE  C212  577   3.108   4.703   8.463 -0.1442 -0.3158 -0.4704
    5DOPE  H12R  578   3.134   4.599   8.432  0.1359 -0.7748  1.2404
    5DOPE  H12S  579   3.204   4.759   8.451  0.6301 -0.9394  2.2665
    5DOPE  C213  580   2.992   4.748   8.379 -0.0442  0.3359 -0.4827
    5DOPE  H13R  581   2.966   4.852   8.410 -0.3264  0.0974  0.0886
    5DOPE  H13S  582   2.909   4.681   8.406  1.1018 -0.8849  0.1013
    5DOPE  C214  583   3.038   4.741   8.230  0.6153  0.0088  0.3402
    5DOPE  H14R  584   3.071   4.636   8.217  1.1908  0.0511  1.3291
    5DOPE  H14S  585   3.119   4.810   8.198 -0.7572  1.5465  0.0856
    5DOPE  C215  586   2.925   4.765   8.121 -0.7355 -0.0993 -0.0019
    5DOPE  H15R  587   2.921   4.875   8.105 -3.6214 -0.2539 -0.8540
    5DOPE  H15S  588   2.826   4.723   8.146 -0.9984 -0.1819 -1.1451
    5DOPE  C216  589   2.964   4.704   7.984 -0.1252 -0.2591  0.0712
    5DOPE  H16R  590   2.975   4.593   7.989 -0.9054 -0.3585 -0.3544
    5DOPE  H16S  591   3.061   4.745   7.950 -1.6862  1.6436 -2.4165
    5DOPE  C217  592   2.860   4.743   7.873 -0.6229 -0.0294 -0.2433
    5DOPE  H17R  593   2.852   4.854   7.880 -2.1291 -0.0355 -1.4212
    5DOPE  H17S  594   2.758   4.708   7.898 -1.0813  1.3354 -0.1096
    5DOPE  C218  595   2.899   4.690   7.737 -0.3108 -0.5369 -0.1827
    5DOPE  H18R  596   3.008   4.706   7.723 -0.1888 -0.6980  0.5658
    5DOPE  H18S  597   2.844   4.745   7.657  1.2956 -0.4355 -1.2799
    5DOPE  H18T  598   2.876   4.583   7.720  0.4257 -1.1249  2.1655
    5DOPE   C33  599   2.079   4.587   9.063 -0.7920  0.2405  0.1615
    5DOPE   H3X  600   2.181   4.623   9.087  0.1032 -1.4831 -0.8721
    5DOPE   H3Y  601   2.063   4.628   8.961 -0.4150 -1.2376 -0.5323
    5DOPE   C34  602   2.086   4.434   9.039 -0.3154 -0.9142  0.2200
    5DOPE   H4X  603   2.093   4.376   9.133 -0.5352  0.8082  1.3421
    5DOPE   H4Y  604   1.994   4.405   8.984  0.8442  0.5269 -2.7219
    5DOPE   C35  605   2.199   4.393   8.947 -0.1605  0.2698  0.1083
    5DOPE   H5X  606   2.178   4.284   8.939 -0.9886  0.5604 -2.2829
    5DOPE   H5Y  607   2.301   4.407   8.988 -0.0375 -1.8937  0.6638
    5DOPE   C36  608   2.197   4.455   8.807  0.5796  0.8052  0.4534
    5DOPE   H6X  609   2.200   4.565   8.798 -0.6677  1.0500  2.3393
    5DOPE   H6Y  610   2.096   4.435   8.766  1.0627 -2.1245  0.4343
    5DOPE   C37  611   2.303   4.393   8.722  0.3823  0.4648  0.1851
    5DOPE   H7X  612   2.396   4.425   8.774  2.0321 -1.6382 -1.2838
    5DOPE   H7Y  613   2.288   4.285   8.744 -1.9554  1.4006  4.3754
    5DOPE   C38  614   2.290   4.438   8.573 -0.2478 -0.1401 -0.4542
    5DOPE   H8X  615   2.279   4.548   8.571  1.0727  0.0257  0.2663
    5DOPE   H8Y  616   2.186   4.407   8.549 -1.1579  2.1896  0.2731
    5DOPE   C39  617   2.408   4.397   8.493 -1.1751  0.2626  0.5689
    5DOPE   H9X  618   2.505   4.430   8.533 -0.7640  0.2090 -0.3541
    5DOPE  C310  619   2.406   4.327   8.379  0.1598 -0.7831  0.1950
    5DOPE  H10X  620   2.505   4.307   8.336  1.1648  2.0610  0.9444
    5DOPE  C311  621   2.288   4.281   8.301  0.6819  0.3704 -0.1069
    5DOPE  H11X  622   2.274   4.171   8.297 -1.6098  0.6204 -0.1657
    5DOPE  H11Y  623   2.194   4.325   8.340  0.0054 -2.3108  1.5778
    5DOPE  C312  624   2.285   4.338   8.158  0.0125 -1.2211 -0.1440
    5DOPE  H12X  625   2.371   4.309   8.094 -0.6534  2.1152 -2.8302
    5DOPE  H12Y  626   2.275   4.447   8.171  0.7699 -1.1480 -0.1296
    5DOPE  C313  627   2.160   4.282   8.080 -0.6305  0.3648 -0.6788
    5DOPE  H13X  628   2.146   4.172   8.080 -1.9689  0.5092 -0.9480
    5DOPE  H13Y  629   2.076   4.331   8.135  0.2935 -1.0503  2.1542
    5DOPE  C314  630   2.170   4.328   7.932  0.6445 -0.0291  0.1185
    5DOPE  H14X  631   2.231   4.252   7.878  1.2560 -0.4589  1.3713
    5DOPE  H14Y  632   2.241   4.412   7.924 -0.3209  0.8070  0.0506
    5DOPE  C315  633   2.028   4.346   7.868 -0.2842 -0.0399  0.3165
    5DOPE  H15X  634   2.044   4.384   7.765  1.2785 -0.9683  0.1772
    5DOPE  H15Y  635   1.985   4.432   7.924 -0.7311 -1.0531  1.5757
    5DOPE  C316  636   1.933   4.233   7.877  0.3682 -0.0590 -0.2259
    5DOPE  H16X  637   1.833   4.278   7.857  0.7324  0.2642 -1.4330
    5DOPE  H16Y  638   1.933   4.190   7.979  1.2334  0.1355 -0.1343
    5DOPE  C317  639   1.957   4.112   7.782  0.6171 -0.4184 -0.4509
    5DOPE  H17X  640   1.957   4.161   7.682 -1.1454  0.8011  0.0985
    5DOPE  H17Y  641   2.059   4.068   7.786  0.4726 -0.9206 -1.8947
    5DOPE  C318  642   1.851   4.000   7.781 -0.7483 -1.0611 -0.2416
    5DOPE  H18X  643   1.877   3.914   7.715 -0.3583 -1.3825  0.3194
    5DOPE  H18Y  644   1.840   3.969   7.887 -0.7329  2.4343  0.8907
    5DOPE  H18Z  645   1.755   4.035   7.738 -0.1166  0.3390 -0.5596
    6DOPE     N  646   1.737   4.955   9.645  0.2095 -0.3119 -0.0623
    6DOPE   HN1  647   1.788   5.006   9.720 -3.2607  0.8688  1.7628
    6DOPE   HN2  648   1.688   5.033   9.597  1.5181  0.3492 -0.3607
    6DOPE   HN3  649   1.661   4.891   9.677 -1.0105  1.6125  1.1303
    6DOPE   C12  650   1.843   4.904   9.553  0.5717 -0.6610  0.3192
    6DOPE  H12A  651   1.802   4.868   9.457  3.1543  0.6861 -1.4137
    6DOPE  H12B  652   1.895   4.821   9.605  1.7950  0.2152  0.5638
    6DOPE   C11  653   1.947   5.013   9.537 -0.2866 -1.0098 -0.5940
    6DOPE  H11A  654   1.891   5.098   9.492 -0.3908 -0.6447  0.2171
    6DOPE  H11B  655   2.026   4.980   9.466 -0.7853  1.1130 -2.2458
    6DOPE     P  656   2.114   5.173   9.677  0.3212  0.3092 -0.5023
    6DOPE   O13  657   2.183   5.145   9.806  0.5482  0.1978 -0.2245
    6DOPE   O14  658   2.037   5.298   9.673 -0.1152 -0.1910  0.1988
    6DOPE   O11  659   2.197   5.154   9.545  0.2449 -0.0566  0.3851
    6DOPE   O12  660   2.005   5.061   9.663 -0.4339  0.3217 -0.4093
    6DOPE    C1  661   2.322   5.083   9.547 -0.4355 -0.2099 -0.4834
    6DOPE    HA  662   2.310   4.975   9.570 -1.2893  0.0045  0.1203
    6DOPE    HB  663   2.388   5.121   9.628  1.6590  1.8811 -2.9953
    6DOPE    C2  664   2.402   5.083   9.412  0.3874 -0.4493  0.7180
    6DOPE    HS  665   2.437   5.184   9.384 -0.2420 -0.5185 -0.3772
    6DOPE   O21  666   2.313   5.020   9.315 -0.4977  0.3754 -0.3752
    6DOPE   C21  667   2.336   5.046   9.187 -0.0477  0.0180 -0.3511
    6DOPE   O22  668   2.400   5.135   9.143 -0.4069 -0.7918 -0.1015
    6DOPE   C22  669   2.256   4.944   9.102 -0.9640 -0.4133  0.4098
    6DOPE   H2R  670   2.153   4.944   9.142 -1.3879 -0.4045 -0.6442
    6DOPE   H2S  671   2.316   4.854   9.129  0.8986  1.0429  1.3874
    6DOPE    C3  672   2.537   5.004   9.415  0.2915  0.6148  0.5364
    6DOPE    HX  673   2.500   4.900   9.426  2.4474 -0.1773  0.6115
    6DOPE    HY  674   2.591   5.029   9.508 -2.6141 -0.6189  2.7105
    6DOPE   O31  675   2.605   5.011   9.289 -0.6484 -0.2484 -0.2360
    6DOPE   C31  676   2.689   5.112   9.279  0.2228  0.2526  0.3398
    6DOPE   O32  677   2.704   5.203   9.361  0.0693  0.4392 -0.3648
    6DOPE   C32  678   2.762   5.114   9.142  0.3677  0.6141 -0.1620
    6DOPE   H2X  679   2.841   5.036   9.149  0.9565  1.1333 -0.8936
    6DOPE   H2Y  680   2.684   5.071   9.075  0.8376 -1.2910  0.4592
    6DOPE   C23  681   2.244   4.981   8.959 -0.5740  0.8140 -0.3743
    6DOPE   H3R  682   2.339   4.980   8.901 -0.5251 -3.9384 -0.5881
    6DOPE   H3S  683   2.208   5.085   8.946  0.7345  1.3321 -0.0008
    6DOPE   C24  684   2.160   4.884   8.882  0.9732  0.5097 -0.3389
    6DOPE   H4R  685   2.057   4.877   8.925  1.0417  1.5349  0.0190
    6DOPE   H4S  686   2.194   4.778   8.892  0.2997  0.3552  0.4537
    6DOPE   C25  687   2.158   4.921   8.737  0.0441 -1.0177 -0.0943
    6DOPE   H5R  688   2.260   4.938   8.695 -0.3186 -1.1921 -1.0730
    6DOPE   H5S  689   2.105   5.017   8.719 -1.4439 -1.7430  0.2950
    6DOPE   C26  690   2.088   4.833   8.633  0.5258  0.8466 -0.1710
    6DOPE   H6R  691   1.978   4.849   8.639  0.0299 -1.0484 -2.5232
    6DOPE   H6S  692   2.100   4.726   8.660  1.4965  0.8783 -0.4686
    6DOPE   C27  693   2.128   4.856   8.486 -0.4216 -0.3277 -0.0740
    6DOPE   H7R  694   2.235   4.824   8.482  0.1383  1.4873 -0.7596
    6DOPE   H7S  695   2.114   4.961   8.453 -0.5460 -0.5281 -0.6684
    6DOPE   C28  696   2.039   4.762   8.402  0.0087  0.1383 -0.5555
    6DOPE   H8R  697   1.938   4.807   8.405  0.2636  0.6440  1.3740
    6DOPE   H8S  698   2.042   4.661   8.447  2.0885  0.8792  1.1396
    6DOPE   C29  699   2.095   4.773   8.265 -0.2958  1.0170  0.5294
    6DOPE   H9R  700   2.155   4.689   8.227 -1.8929 -0.1831  0.5157
    6DOPE  C210  701   2.083   4.875   8.176  0.2676  0.5374  0.6504
    6DOPE  H10R  702   2.125   4.865   8.075 -0.2963  0.7063  0.3971
    6DOPE  C211  703   2.008   5.002   8.197  0.6691  0.5143  0.6981
    6DOPE  H11R  704   2.079   5.086   8.209  1.9190  0.5467 -4.5409
    6DOPE  H11S  705   1.958   4.994   8.295  1.0042 -2.3459  0.7202
    6DOPE  C212  706   1.901   5.022   8.087  0.4977  0.2481 -0.2674
    6DOPE  H12R  707   1.844   4.928   8.071  1.1545 -0.4307  1.2130
    6DOPE  H12S  708   1.959   5.043   7.994  0.9969  2.8676  0.5490
    6DOPE  C213  709   1.796   5.130   8.109 -0.8282  0.2130  0.4359
    6DOPE  H13R  710   1.755   5.121   8.212 -2.0506  0.3028 -0.0248
    6DOPE  H13S  711   1.715   5.111   8.036  0.2891 -2.5257 -0.1798
    6DOPE  C214  712   1.842   5.274   8.081 -0.0387  0.2225  0.3612
    6DOPE  H14R  713   1.905   5.273   7.989 -0.2307  0.3486  0.2262
    6DOPE  H14S  714   1.900   5.293   8.173  0.0408 -2.2864  0.9050
    6DOPE  C215  715   1.730   5.380   8.038  0.6597 -0.1506  1.0393
    6DOPE  H15R  716   1.631   5.369   8.087 -0.1778  0.8337 -0.3661
    6DOPE  H15S  717   1.708   5.358   7.931  0.3942  0.2820  1.0029
    6DOPE  C216  718   1.774   5.527   8.053 -0.3855  0.0482  0.0952
    6DOPE  H16R  719   1.691   5.598   8.031 -0.4042 -0.4346 -1.5137
    6DOPE  H16S  720   1.856   5.546   7.981 -1.8041  0.9142 -1.3780
    6DOPE  C217  721   1.810   5.555   8.206  0.3175  0.6901 -0.2378
    6DOPE  H17R  722   1.862   5.652   8.217  1.4254  0.0408  0.4721
    6DOPE  H17S  723   1.892   5.488   8.239  2.4122  2.9477 -0.5688
    6DOPE  C218  724   1.685   5.536   8.299 -0.1846  0.4908  0.4275
    6DOPE  H18R  725   1.604   5.598   8.257  0.4949  0.2130 -1.3722
    6DOPE  H18S  726   1.718   5.572   8.399 -1.2305  1.7876  0.3331
    6DOPE  H18T  727   1.645   5.433   8.306  2.1265 -0.4546  0.9462
    6DOPE   C33  728   2.816   5.251   9.101 -0.3109 -0.0073  0.1438
    6DOPE   H3X  729   2.768   5.338   9.152  2.1314  0.2344  2.2774
    6DOPE   H3Y  730   2.809   5.259   8.991 -1.4173 -1.8872  0.0219
    6DOPE   C34  731   2.968   5.259   9.141 -0.0128  0.2226  0.1425
    6DOPE   H4X  732   2.986   5.251   9.250 -0.0735 -1.3181  0.0612
    6DOPE   H4Y  733   3.021   5.173   9.095  1.5658  0.7626  0.8948
    6DOPE   C35  734   3.041   5.373   9.077 -0.2988 -0.0365 -0.0184
    6DOPE   H5X  735   2.990   5.464   9.115 -0.6700 -0.5889  0.8418
    6DOPE   H5Y  736   3.016   5.363   8.969 -1.5288 -0.1865  0.2599
    6DOPE   C36  737   3.193   5.371   9.080  0.5390 -0.2407 -0.0707
    6DOPE   H6X  738   3.233   5.280   9.032  0.0281  0.2314 -1.4219
    6DOPE   H6Y  739   3.228   5.363   9.185  1.4966  0.4879 -0.3263
    6DOPE   C37  740   3.242   5.494   9.003  0.9083 -0.5321  0.2162
    6DOPE   H7X  741   3.200   5.487   8.900  2.2314  0.3596 -0.4151
    6DOPE   H7Y  742   3.199   5.590   9.041  2.6431  0.1107  0.6749
    6DOPE   C38  743   3.391   5.510   8.985  0.6343 -0.2963  0.3209
    6DOPE   H8X  744   3.409   5.579   8.899 -1.2970  1.8552  1.5186
    6DOPE   H8Y  745   3.448   5.417   8.967  0.1178 -0.5672  0.0608
    6DOPE   C39  746   3.459   5.559   9.108 -0.4570 -0.3303 -0.9954
    6DOPE   H9X  747   3.457   5.486   9.191  1.3572 -0.7080 -1.2374
    6DOPE  C310  748   3.512   5.674   9.132 -0.2210 -0.1483 -0.2429
    6DOPE  H10X  749   3.576   5.685   9.221 -0.4679 -4.2337  0.6257
    6DOPE  C311  750   3.504   5.784   9.026  0.4520  0.4203 -0.0871
    6DOPE  H11X  751   3.577   5.773   8.944 -0.1693  1.3198 -0.7832
    6DOPE  H11Y  752   3.404   5.783   8.978  0.7485 -0.8566 -0.7059
    6DOPE  C312  753   3.536   5.920   9.089  0.6087 -0.6147 -0.2163
    6DOPE  H12X  754   3.557   5.995   9.010  2.0147 -0.1279  0.5823
    6DOPE  H12Y  755   3.626   5.923   9.154  1.2379  4.0932 -0.9452
    6DOPE  C313  756   3.422   5.986   9.178 -0.1892  0.4887  0.0784
    6DOPE  H13X  757   3.327   5.999   9.121 -0.0328  2.3053  0.1834
    6DOPE  H13Y  758   3.391   5.912   9.255 -0.2077 -1.6287 -1.8530
    6DOPE  C314  759   3.469   6.116   9.239  0.2861 -0.1377 -0.3970
    6DOPE  H14X  760   3.471   6.188   9.154 -1.8986 -0.1584 -0.5185
    6DOPE  H14Y  761   3.575   6.102   9.270  0.5062  0.6640 -0.7368
    6DOPE  C315  762   3.384   6.162   9.349  0.2248 -0.3919 -0.8766
    6DOPE  H15X  763   3.436   6.251   9.393 -1.3468 -0.2408  0.7575
    6DOPE  H15Y  764   3.364   6.085   9.426 -0.3730 -1.6700 -2.2669
    6DOPE  C316  765   3.249   6.222   9.308  0.8066 -0.4713  0.3717
    6DOPE  H16X  766   3.176   6.152   9.263  0.8034 -1.0149  1.1864
    6DOPE  H16Y  767   3.282   6.304   9.242 -3.3114  2.7204  1.8121
    6DOPE  C317  768   3.176   6.282   9.429  0.6127 -0.0080 -0.2057
    6DOPE  H17X  769   3.245   6.342   9.492 -1.0796 -0.4431  2.1820
    6DOPE  H17Y  770   3.105   6.360   9.392  1.4440  0.9946  0.2496
    6DOPE  C318  771   3.100   6.181   9.511 -0.2478 -0.6711  0.0182
    6DOPE  H18X  772   3.084   6.224   9.612 -0.1899 -3.8323  1.4866
    6DOPE  H18Y  773   3.005   6.148   9.462  1.6026 -2.1749 -2.8231
    6DOPE  H18Z  774   3.150   6.088   9.544  1.4653  0.2585  0.1031
    7DOPE     N  775   6.221   7.480   9.861  0.0231  0.0268 -0.3267
    7DOPE   HN1  776   6.196   7.389   9.817 -0.0936  0.1477 -0.5098
    7DOPE   HN2  777   6.322   7.478   9.885  0.0488 -2.2540 -0.4209
    7DOPE   HN3  778   6.168   7.486   9.951  0.9712 -0.9717  0.3224
    7DOPE   C12  779   6.186   7.596   9.774 -0.3403  1.2183 -0.6838
    7DOPE  H12A  780   6.209   7.696   9.816  0.5819  0.9859 -0.6053
    7DOPE  H12B  781   6.076   7.598   9.765 -0.4418 -1.9812 -1.4926
    7DOPE   C11  782   6.246   7.597   9.626  0.1920  0.4334  0.0202
    7DOPE  H11A  783   6.209   7.685   9.570  0.0540  0.4673  0.1647
    7DOPE  H11B  784   6.215   7.504   9.573 -2.4877  2.1452 -1.6120
    7DOPE     P  785   6.486   7.682   9.551 -0.1364 -0.3575  0.2140
    7DOPE   O13  786   6.606   7.607   9.509  0.0742  0.1987  0.0865
    7DOPE   O14  787   6.519   7.800   9.637  0.1728 -0.0916  0.1868
    7DOPE   O11  788   6.412   7.729   9.419  0.2393 -0.5783 -0.1796
    7DOPE   O12  789   6.388   7.587   9.631  0.1260 -0.0271 -0.2673
    7DOPE    C1  790   6.353   7.649   9.317  0.4645  0.1900 -0.7342
    7DOPE    HA  791   6.247   7.635   9.345  0.2025  2.1860 -0.5573
    7DOPE    HB  792   6.395   7.546   9.319 -0.7606 -0.3209  0.6863
    7DOPE    C2  793   6.376   7.714   9.178  0.3360  0.1010  0.3007
    7DOPE    HS  794   6.480   7.750   9.168 -0.2909  2.0296  0.3059
    7DOPE   O21  795   6.280   7.813   9.169 -0.6181  0.3958  0.3465
    7DOPE   C21  796   6.313   7.918   9.098 -0.4651 -0.7870 -0.6320
    7DOPE   O22  797   6.418   7.933   9.040 -0.3632 -0.1114  0.5201
    7DOPE   C22  798   6.199   8.029   9.106  0.3423  0.3302 -0.2131
    7DOPE   H2R  799   6.251   8.117   9.149  0.2970  0.4133 -0.3277
    7DOPE   H2S  800   6.116   7.996   9.171 -0.2371  0.8474 -0.6713
    7DOPE    C3  801   6.350   7.614   9.066 -0.0944  0.4585 -0.1410
    7DOPE    HX  802   6.248   7.569   9.069  0.9524 -2.0210  0.6471
    7DOPE    HY  803   6.421   7.530   9.080 -0.8328 -0.3642 -1.1752
    7DOPE   O31  804   6.364   7.667   8.935 -0.3325  0.0576  0.4543
    7DOPE   C31  805   6.486   7.682   8.889 -0.3419  0.2019 -0.2206
    7DOPE   O32  806   6.589   7.645   8.947  0.0630 -0.4887  0.0881
    7DOPE   C32  807   6.481   7.740   8.744  0.4459  0.4414 -0.1652
    7DOPE   H2X  808   6.575   7.798   8.729  0.6789  0.3906  0.9491
    7DOPE   H2Y  809   6.482   7.659   8.669  0.9650  1.6225 -1.4820
    7DOPE   C23  810   6.146   8.070   8.965  0.8703  0.7732  0.3463
    7DOPE   H3R  811   6.095   7.975   8.937  2.4588 -0.7147  2.2232
    7DOPE   H3S  812   6.231   8.091   8.896  1.0716 -2.9302 -0.7845
    7DOPE   C24  813   6.042   8.182   8.959  0.1295  0.1030 -0.4125
    7DOPE   H4R  814   6.086   8.273   9.003 -0.2751 -0.0884  0.4244
    7DOPE   H4S  815   5.957   8.168   9.030 -0.7431 -0.0211 -1.4478
    7DOPE   C25  816   5.996   8.195   8.812  0.7265 -0.4706  0.6357
    7DOPE   H5R  817   5.936   8.105   8.785  0.3414 -0.0763  0.1812
    7DOPE   H5S  818   6.083   8.192   8.743  1.3982 -2.0873  1.4879
    7DOPE   C26  819   5.917   8.316   8.782 -0.0067  0.6391  0.2677
    7DOPE   H6R  820   5.820   8.308   8.836  0.3478 -4.1343  0.5957
    7DOPE   H6S  821   5.900   8.329   8.673  0.4722 -0.3157  0.0786
    7DOPE   C27  822   5.989   8.445   8.813  0.2676 -0.0155  0.6328
    7DOPE   H7R  823   6.086   8.454   8.759  1.3632 -0.4142  2.4413
    7DOPE   H7S  824   6.015   8.455   8.921 -0.2893  0.1436  0.7517
    7DOPE   C28  825   5.907   8.571   8.777 -0.2988 -0.6402  0.5323
    7DOPE   H8R  826   5.817   8.561   8.842 -2.3478  2.3855 -1.5685
    7DOPE   H8S  827   5.865   8.576   8.674  2.7359 -0.8131 -0.8291
    7DOPE   C29  828   5.974   8.703   8.817  0.6473  0.3165 -0.4435
    7DOPE   H9R  829   5.964   8.706   8.927 -2.4023  0.1751 -0.6543
    7DOPE  C210  830   6.001   8.812   8.745  0.1381 -0.0813  0.4047
    7DOPE  H10R  831   6.051   8.894   8.799 -0.4272 -0.3510  1.3691
    7DOPE  C211  832   5.959   8.837   8.606 -0.0503  0.4269  0.5545
    7DOPE  H11R  833   5.894   8.757   8.564  0.9694 -0.5967  0.8652
    7DOPE  H11S  834   6.048   8.851   8.540 -1.0239 -0.7342 -1.0813
    7DOPE  C212  835   5.878   8.969   8.607  0.4631 -1.1015  0.0590
    7DOPE  H12R  836   5.934   9.053   8.654 -1.1190 -0.5112  0.9661
    7DOPE  H12S  837   5.796   8.948   8.680  1.0467 -3.9303  0.0158
    7DOPE  C213  838   5.819   9.007   8.467 -0.3917  0.1029  0.3681
    7DOPE  H13R  839   5.897   9.017   8.389 -0.9076 -1.3746 -0.3709
    7DOPE  H13S  840   5.781   9.112   8.461  0.8102  0.5385 -0.0014
    7DOPE  C214  841   5.707   8.908   8.445 -0.1922 -0.1894  0.1635
    7DOPE  H14R  842   5.658   8.874   8.539  0.1299 -0.6370  0.1758
    7DOPE  H14S  843   5.752   8.816   8.403 -1.8860  0.4301 -3.3852
    7DOPE  C215  844   5.604   8.957   8.336  1.1914  0.0649  0.6589
    7DOPE  H15R  845   5.652   8.965   8.236  1.6158  0.2534  0.8745
    7DOPE  H15S  846   5.551   9.048   8.371  0.0563 -0.5060  0.4772
    7DOPE  C216  847   5.494   8.852   8.313  0.7072 -0.0413  0.4315
    7DOPE  H16R  848   5.452   8.819   8.410 -0.3499 -3.4095 -1.0270
    7DOPE  H16S  849   5.543   8.762   8.271 -0.3649 -1.0016  1.1849
    7DOPE  C217  850   5.388   8.894   8.219  0.2825 -0.4073  0.2754
    7DOPE  H17R  851   5.419   8.912   8.114  0.2374  2.3906  0.6544
    7DOPE  H17S  852   5.355   8.991   8.263 -0.3370 -0.6578  0.3805
    7DOPE  C218  853   5.268   8.794   8.206 -0.3421  0.2287  0.1762
    7DOPE  H18R  854   5.199   8.819   8.122 -2.5791 -2.6477  0.9808
    7DOPE  H18S  855   5.217   8.793   8.305  0.9201  1.0981  0.8570
    7DOPE  H18T  856   5.294   8.689   8.182  0.1489 -0.1120  2.0294
    7DOPE   C33  857   6.358   7.840   8.721  0.4791  0.4484 -0.1728
    7DOPE   H3X  858   6.371   7.925   8.791 -1.0579  0.3557  0.2541
    7DOPE   H3Y  859   6.265   7.786   8.748  1.6606  0.1180  3.6944
    7DOPE   C34  860   6.352   7.899   8.574  0.1313 -0.3535 -0.6286
    7DOPE   H4X  861   6.399   7.828   8.504 -0.9986 -1.5569 -0.2133
    7DOPE   H4Y  862   6.245   7.915   8.549 -0.0159 -0.1797  0.0872
    7DOPE   C35  863   6.415   8.038   8.562  0.2365  0.0798 -0.5636
    7DOPE   H5X  864   6.517   8.034   8.606  0.3980 -2.1298 -1.0465
    7DOPE   H5Y  865   6.365   8.120   8.619 -0.9049 -1.9004  1.4202
    7DOPE   C36  866   6.427   8.079   8.416 -0.5331 -0.7177  0.4875
    7DOPE   H6X  867   6.495   8.014   8.357  0.9086  1.0065  0.1550
    7DOPE   H6Y  868   6.467   8.182   8.408 -0.5938 -0.7034  0.3563
    7DOPE   C37  869   6.294   8.091   8.333 -0.1731 -0.5861 -0.2565
    7DOPE   H7X  870   6.242   7.994   8.319  0.0559 -0.9307  1.0846
    7DOPE   H7Y  871   6.227   8.151   8.398  1.0922  1.1871 -0.5151
    7DOPE   C38  872   6.329   8.159   8.203 -0.4737  0.1876 -0.2983
    7DOPE   H8X  873   6.427   8.118   8.170 -0.9890 -1.8940  0.5838
    7DOPE   H8Y  874   6.352   8.265   8.227  0.8770 -0.2157  0.2441
    7DOPE   C39  875   6.223   8.141   8.096 -0.8854  0.4765  0.2418
    7DOPE   H9X  876   6.126   8.185   8.127 -1.1751 -0.6387  0.9565
    7DOPE  C310  877   6.212   8.048   7.999  0.5717  0.2646 -0.1817
    7DOPE  H10X  878   6.140   8.062   7.917  0.0734 -0.0004  0.2131
    7DOPE  C311  879   6.324   7.948   7.966 -0.3066  0.1466 -0.3626
    7DOPE  H11X  880   6.407   8.007   7.922  0.0139  0.7485  0.9965
    7DOPE  H11Y  881   6.370   7.910   8.059 -0.3268  0.5924 -0.1665
    7DOPE  C312  882   6.270   7.844   7.869 -0.0287 -0.2044 -0.9266
    7DOPE  H12X  883   6.355   7.778   7.842 -1.7305 -3.1264  0.3066
    7DOPE  H12Y  884   6.240   7.897   7.776  0.6003  0.5013 -0.7318
    7DOPE  C313  885   6.156   7.759   7.934 -0.3843  0.0962 -0.0745
    7DOPE  H13X  886   6.188   7.741   8.039  1.1196  0.6831 -0.4107
    7DOPE  H13Y  887   6.067   7.824   7.950 -0.1085  1.3280 -2.9976
    7DOPE  C314  888   6.131   7.631   7.861 -0.8792  0.0960  0.2969
    7DOPE  H14X  889   6.073   7.564   7.929 -2.0220  2.9311  2.3114
    7DOPE  H14Y  890   6.229   7.586   7.835  0.4460  2.9798 -0.0331
    7DOPE  C315  891   6.051   7.639   7.729  0.3621  0.2700 -0.0458
    7DOPE  H15X  892   6.100   7.714   7.663  1.1750  0.7498  1.0741
    7DOPE  H15Y  893   5.943   7.662   7.744  0.0627 -1.5946  0.9450
    7DOPE  C316  894   6.061   7.499   7.652 -0.1899 -0.6991  0.5199
    7DOPE  H16X  895   6.168   7.471   7.640 -0.7842 -2.7268 -0.5121
    7DOPE  H16Y  896   6.022   7.514   7.549  0.5553 -0.3116  0.2850
    7DOPE  C317  897   5.979   7.389   7.719  0.1814 -0.9956  0.0966
    7DOPE  H17X  898   6.032   7.370   7.815  1.5829  0.5131 -0.3175
    7DOPE  H17Y  899   5.888   7.447   7.745 -0.2266 -1.9931  0.9562
    7DOPE  C318  900   5.964   7.266   7.637  0.2241  0.0855  0.2961
    7DOPE  H18X  901   5.907   7.280   7.542 -0.0759  1.5723  0.6707
    7DOPE  H18Y  902   6.065   7.224   7.619  0.8074  0.7470  1.8465
    7DOPE  H18Z  903   5.909   7.193   7.700  0.0571 -1.3819 -1.4545
    8DOPE     N  904   4.708   6.311  10.030 -0.2085 -0.7057  0.0921
    8DOPE   HN1  905   4.695   6.211  10.054  4.0009 -1.9118 -1.8292
    8DOPE   HN2  906   4.807   6.333  10.049 -0.8044  1.6331  0.7630
    8DOPE   HN3  907   4.646   6.372  10.087 -0.3268 -1.0960  0.3864
    8DOPE   C12  908   4.690   6.336   9.882  0.0591 -0.2935 -0.3672
    8DOPE  H12A  909   4.702   6.442   9.854  0.4713 -0.2607 -0.0669
    8DOPE  H12B  910   4.591   6.291   9.856  0.2206 -0.2291 -1.1292
    8DOPE   C11  911   4.805   6.256   9.811  0.0942 -0.1097  0.0435
    8DOPE  H11A  912   4.903   6.301   9.839 -0.4052  1.9333 -1.2846
    8DOPE  H11B  913   4.804   6.259   9.700 -2.3782 -1.0345 -0.0185
    8DOPE     P  914   4.896   6.008   9.794 -0.3906 -0.1086  0.1476
    8DOPE   O13  915   4.817   5.879   9.802 -0.0216  0.5018  0.3525
    8DOPE   O14  916   5.029   6.020   9.860 -0.1293 -0.1361 -0.7894
    8DOPE   O11  917   4.911   6.057   9.640 -0.1973 -0.0549 -0.0985
    8DOPE   O12  918   4.806   6.118   9.856 -0.4528 -0.9896  0.2276
    8DOPE    C1  919   4.923   5.960   9.530  0.3021  0.3035  0.5270
    8DOPE    HA  920   4.892   5.858   9.561 -0.6343  0.9354  1.7805
    8DOPE    HB  921   5.022   5.951   9.481 -1.2967  0.7554 -3.1086
    8DOPE    C2  922   4.832   6.000   9.410  0.3687  0.3509 -0.0375
    8DOPE    HS  923   4.840   5.911   9.344  3.1719  0.4906  0.0183
    8DOPE   O21  924   4.874   6.127   9.360  0.4694 -0.3620 -0.2271
    8DOPE   C21  925   4.960   6.116   9.262  0.6361 -0.1945 -0.2340
    8DOPE   O22  926   5.005   6.012   9.216  0.1130  0.0945 -0.2643
    8DOPE   C22  927   4.997   6.254   9.215 -0.5942  0.3213 -0.3904
    8DOPE   H2R  928   5.067   6.243   9.129  1.0663  1.5335  0.7513
    8DOPE   H2S  929   5.062   6.294   9.295  0.9154 -0.2000 -1.3061
    8DOPE    C3  930   4.692   6.014   9.475  0.0003 -0.2737  0.2385
    8DOPE    HX  931   4.688   6.116   9.520 -0.0801  0.3065 -1.0429
    8DOPE    HY  932   4.682   5.939   9.556  0.4306 -0.4106  0.1665
    8DOPE   O31  933   4.592   5.998   9.371  0.0720  0.0225  0.2102
    8DOPE   C31  934   4.539   6.109   9.315 -0.6980  0.0449  0.1501
    8DOPE   O32  935   4.561   6.223   9.355  0.1865 -0.0001  0.2110
    8DOPE   C32  936   4.442   6.075   9.212 -0.3287  0.1082  0.3213
    8DOPE   H2X  937   4.496   6.050   9.118 -2.8195 -0.7907 -0.9443
    8DOPE   H2Y  938   4.388   5.985   9.249 -2.0436  1.2093  0.5573
    8DOPE   C23  939   4.877   6.351   9.187  0.2938  0.1637 -0.1098
    8DOPE   H3R  940   4.907   6.454   9.159  0.8404 -0.5524 -2.4550
    8DOPE   H3S  941   4.812   6.356   9.277 -0.3917  0.5743 -0.6168
    8DOPE   C24  942   4.785   6.305   9.072 -0.6675  0.1117  0.2124
    8DOPE   H4R  943   4.698   6.374   9.072 -0.1577  0.8438  2.5864
    8DOPE   H4S  944   4.752   6.199   9.066  0.7839 -0.3535 -0.1919
    8DOPE   C25  945   4.845   6.339   8.934 -0.7433 -0.2725 -0.3856
    8DOPE   H5R  946   4.925   6.262   8.925  0.1773  0.7655 -1.3701
    8DOPE   H5S  947   4.886   6.442   8.935 -1.3512 -0.0206  1.4615
    8DOPE   C26  948   4.748   6.323   8.813 -0.4363  0.0427  0.2217
    8DOPE   H6R  949   4.664   6.393   8.828  1.0466  1.9233  0.1359
    8DOPE   H6S  950   4.704   6.221   8.821  0.5882 -0.3741  0.8994
    8DOPE   C27  951   4.809   6.345   8.673  0.6006 -0.4143 -0.2145
    8DOPE   H7R  952   4.901   6.286   8.651  0.5447  0.0002 -1.7200
    8DOPE   H7S  953   4.847   6.449   8.665  0.6309 -0.3951  0.1779
    8DOPE   C28  954   4.704   6.323   8.565  0.6598  0.3027 -0.1100
    8DOPE   H8R  955   4.625   6.394   8.600 -0.2606 -0.6943 -0.1225
    8DOPE   H8S  956   4.666   6.220   8.578 -0.6343  0.8116  0.3200
    8DOPE   C29  957   4.745   6.365   8.427  0.2885  0.3050 -0.3394
    8DOPE   H9R  958   4.781   6.469   8.426  1.2079  0.0405  1.4513
    8DOPE  C210  959   4.752   6.293   8.309 -0.7265  0.4984  0.1104
    8DOPE  H10R  960   4.781   6.343   8.216  2.0296  1.4109  1.3448
    8DOPE  C211  961   4.710   6.151   8.280 -0.5611 -0.0903 -0.0950
    8DOPE  H11R  962   4.683   6.095   8.372 -0.5617  0.1589  0.0570
    8DOPE  H11S  963   4.791   6.092   8.231 -0.6834  0.6957 -1.2908
    8DOPE  C212  964   4.603   6.159   8.165  0.1118 -0.6300 -0.8330
    8DOPE  H12R  965   4.655   6.194   8.073  1.9041 -1.0445 -0.0237
    8DOPE  H12S  966   4.520   6.227   8.194  1.4850  0.9210 -0.3821
    8DOPE  C213  967   4.536   6.023   8.138  0.0530 -0.4018 -0.0825
    8DOPE  H13R  968   4.458   6.007   8.215  1.5025 -2.9349  0.9860
    8DOPE  H13S  969   4.609   5.939   8.144 -0.3298 -0.7618 -0.4689
    8DOPE  C214  970   4.478   6.025   7.993  0.3052  0.2454 -0.2350
    8DOPE  H14R  971   4.565   6.048   7.927 -0.2988  1.3492 -0.6726
    8DOPE  H14S  972   4.413   6.115   7.981 -0.2908 -0.0664  0.5504
    8DOPE  C215  973   4.415   5.889   7.966 -0.9615  0.2316  0.5216
    8DOPE  H15R  974   4.344   5.852   8.044  1.5502 -2.7759  1.6241
    8DOPE  H15S  975   4.499   5.815   7.962  0.7618  2.0321  1.6193
    8DOPE  C216  976   4.349   5.888   7.829  0.0083 -0.4196  0.2498
    8DOPE  H16R  977   4.430   5.905   7.755  0.4661 -0.0099  0.8328
    8DOPE  H16S  978   4.276   5.971   7.832  0.1750 -0.2563 -0.1853
    8DOPE  C217  979   4.293   5.751   7.788 -0.1399 -0.1695 -0.5095
    8DOPE  H17R  980   4.370   5.681   7.827  1.4543  1.3225 -0.8677
    8DOPE  H17S  981   4.281   5.734   7.679  1.4617 -0.0203 -0.7249
    8DOPE  C218  982   4.167   5.697   7.854 -0.0506 -0.0041 -0.1874
    8DOPE  H18R  983   4.177   5.706   7.964 -0.6702  0.2351 -0.1440
    8DOPE  H18S  984   4.145   5.592   7.826 -1.3373  0.3228 -0.5023
    8DOPE  H18T  985   4.076   5.749   7.818 -0.9691 -1.9867 -0.8714
    8DOPE   C33  986   4.334   6.185   9.171  0.2063 -0.8419  0.3166
    8DOPE   H3X  987   4.368   6.286   9.204 -0.3818 -0.5467  0.0546
    8DOPE   H3Y  988   4.243   6.171   9.233 -0.4725  0.8228 -0.2120
    8DOPE   C34  989   4.299   6.193   9.022  0.8501  0.1416  0.3497
    8DOPE   H4X  990   4.286   6.089   8.987 -1.6297  0.6637 -0.4661
    8DOPE   H4Y  991   4.196   6.233   9.013  0.3377 -0.5365  2.6755
    8DOPE   C35  992   4.387   6.280   8.931 -0.9640  0.3824 -0.4964
    8DOPE   H5X  993   4.497   6.266   8.946 -0.8101  0.9027 -1.1010
    8DOPE   H5Y  994   4.364   6.383   8.963 -1.5621  0.2691 -0.5625
    8DOPE   C36  995   4.368   6.263   8.773 -0.3270 -0.1585  0.4272
    8DOPE   H6X  996   4.413   6.163   8.751 -0.2932 -0.0043 -0.2217
    8DOPE   H6Y  997   4.433   6.322   8.706  1.7073 -1.2685  1.3144
    8DOPE   C37  998   4.224   6.288   8.724 -0.3668  0.0656  0.4118
    8DOPE   H7X  999   4.172   6.198   8.765  0.7081 -0.1024  1.4626
    8DOPE   H7Y 1000   4.186   6.375   8.781  0.1000  0.8217 -0.4089
    8DOPE   C38 1001   4.217   6.302   8.568  0.5718  0.4000  0.2440
    8DOPE   H8X 1002   4.282   6.217   8.540  0.7141  0.3810  0.6177
    8DOPE   H8Y 1003   4.271   6.393   8.534 -2.7031  1.5095 -2.5087
    8DOPE   C39 1004   4.073   6.294   8.510  0.0287 -0.5831 -0.3911
    8DOPE   H9X 1005   3.994   6.356   8.557  0.4570 -0.9598  0.8834
    8DOPE  C310 1006   4.044   6.220   8.402 -0.4807  0.5405  0.0703
    8DOPE  H10X 1007   3.937   6.207   8.379 -0.6830 -0.4980  1.4222
    8DOPE  C311 1008   4.135   6.137   8.312  0.5076 -0.1581 -0.9140
    8DOPE  H11X 1009   4.112   6.149   8.204  0.9193 -2.6767 -1.3431
    8DOPE  H11Y 1010   4.241   6.163   8.333  1.0402 -0.2674 -3.1940
    8DOPE  C312 1011   4.113   5.990   8.357 -0.1700  0.2526 -0.0269
    8DOPE  H12X 1012   4.018   5.952   8.313 -0.5789 -0.0337  1.0918
    8DOPE  H12Y 1013   4.108   5.971   8.466 -1.8345  1.3346  0.1301
    8DOPE  C313 1014   4.213   5.894   8.291 -0.5295  0.2166  0.1928
    8DOPE  H13X 1015   4.193   5.900   8.182 -2.7935 -1.3495  0.4584
    8DOPE  H13Y 1016   4.314   5.910   8.334 -1.8816  0.8006  3.5319
    8DOPE  C314 1017   4.171   5.739   8.314 -0.4508 -0.2500 -0.2781
    8DOPE  H14X 1018   4.182   5.724   8.424  1.1024 -1.6234 -0.5761
    8DOPE  H14Y 1019   4.244   5.671   8.266 -1.1495 -1.0097 -0.2999
    8DOPE  C315 1020   4.028   5.703   8.261 -1.1170  0.3471  0.6314
    8DOPE  H15X 1021   4.018   5.741   8.157 -0.6345 -2.2109 -0.4234
    8DOPE  H15Y 1022   3.944   5.731   8.328 -1.6307 -1.5876  0.8718
    8DOPE  C316 1023   3.997   5.550   8.257  0.1396 -0.3523  0.6213
    8DOPE  H16X 1024   3.985   5.507   8.359 -2.3216  0.3824  0.6980
    8DOPE  H16Y 1025   4.082   5.495   8.209  0.0581 -0.9995  1.1952
    8DOPE  C317 1026   3.872   5.516   8.181 -0.8182 -0.4321 -0.2081
    8DOPE  H17X 1027   3.792   5.588   8.211 -0.3888 -1.6679  4.6417
    8DOPE  H17Y 1028   3.895   5.526   8.073 -1.7371  0.5205 -0.3386
    8DOPE  C318 1029   3.825   5.370   8.201  0.5497 -0.2233  0.7206
    8DOPE  H18X 1030   3.785   5.360   8.304  2.3423  1.6191  1.6541
    8DOPE  H18Y 1031   3.903   5.291   8.195 -0.2011 -0.9724  0.6190
    8DOPE  H18Z 1032   3.751   5.344   8.122  0.2694  0.2008  0.8401
    9DOPE     N 1033   2.106   2.910   9.786 -0.7472 -0.4171  0.2686
    9DOPE   HN1 1034   2.175   2.985   9.806  1.9143 -2.7225  0.3133
    9DOPE   HN2 1035   2.158   2.852   9.716  0.6934  0.2343  0.7647
    9DOPE   HN3 1036   2.020   2.941   9.736 -1.2362 -1.5328  0.3838
    9DOPE   C12 1037   2.066   2.815   9.893  1.0497 -0.3043 -0.4145
    9DOPE  H12A 1038   2.049   2.873   9.986 -0.3299 -0.7392 -0.3807
    9DOPE  H12B 1039   2.153   2.748   9.909  0.6349 -0.6643  0.3921
    9DOPE   C11 1040   1.937   2.741   9.856 -0.3834 -0.3345  0.0880
    9DOPE  H11A 1041   1.893   2.727   9.957  0.1314  0.0773  0.3776
    9DOPE  H11B 1042   1.951   2.644   9.805 -1.6958 -0.4043 -0.1691
    9DOPE     P 1043   1.719   2.779   9.722  0.2072 -0.2129  0.0045
    9DOPE   O13 1044   1.667   2.905   9.661  0.3876  0.1149  0.0537
    9DOPE   O14 1045   1.624   2.714   9.822  0.4544  0.0931  0.0590
    9DOPE   O11 1046   1.753   2.673   9.616  0.3338 -0.4758 -0.1618
    9DOPE   O12 1047   1.854   2.829   9.787  0.2174  0.0270 -0.3070
    9DOPE    C1 1048   1.848   2.692   9.512 -0.0424 -0.0898  0.1933
    9DOPE    HA 1049   1.906   2.597   9.507  0.3975  0.1585  0.5081
    9DOPE    HB 1050   1.924   2.770   9.533  1.1619 -1.4669  1.2224
    9DOPE    C2 1051   1.781   2.709   9.371 -0.1004  0.2339 -0.4733
    9DOPE    HS 1052   1.866   2.678   9.307 -1.0123 -2.3119 -0.5648
    9DOPE   O21 1053   1.740   2.846   9.360  0.8315  0.4420  0.4767
    9DOPE   C21 1054   1.827   2.935   9.322  0.0638 -0.0890 -0.1665
    9DOPE   O22 1055   1.944   2.915   9.299  0.0987 -0.3523  0.5118
    9DOPE   C22 1056   1.753   3.064   9.315 -0.4879  0.4209 -0.0654
    9DOPE   H2R 1057   1.695   3.070   9.410  0.0088  0.7640  0.2230
    9DOPE   H2S 1058   1.682   3.058   9.230 -1.4443 -1.4264  0.7794
    9DOPE    C3 1059   1.658   2.611   9.358 -0.2682 -0.2778  0.2563
    9DOPE    HX 1060   1.578   2.619   9.435 -0.1375 -4.1083  1.0232
    9DOPE    HY 1061   1.691   2.507   9.381 -1.5709 -0.3039  2.2546
    9DOPE   O31 1062   1.608   2.608   9.223  0.4465 -0.0453  0.4724
    9DOPE   C31 1063   1.518   2.694   9.196  0.6786  0.1881 -0.6498
    9DOPE   O32 1064   1.441   2.749   9.276  0.4288  0.1142  0.2787
    9DOPE   C32 1065   1.521   2.715   9.042  0.6266  0.1416  0.7015
    9DOPE   H2X 1066   1.565   2.817   9.033 -1.0650  0.9477  1.0929
    9DOPE   H2Y 1067   1.590   2.638   9.002 -0.1523 -1.1890  1.8249
    9DOPE   C23 1068   1.831   3.198   9.309 -0.0596  0.1909  0.5121
    9DOPE   H3R 1069   1.882   3.226   9.403  0.4930  3.1680 -0.5477
    9DOPE   H3S 1070   1.749   3.274   9.306 -1.5779 -1.3933 -0.9613
    9DOPE   C24 1071   1.921   3.219   9.183  0.2369  0.1857  0.1695
    9DOPE   H4R 1072   2.001   3.144   9.195 -1.5522 -1.8233  0.0863
    9DOPE   H4S 1073   1.974   3.317   9.183 -1.7223  1.3152 -0.2283
    9DOPE   C25 1074   1.845   3.206   9.047 -0.6351 -0.4270 -0.0069
    9DOPE   H5R 1075   1.750   3.264   9.055  0.4455  1.3323  0.6956
    9DOPE   H5S 1076   1.809   3.101   9.036 -0.3805 -0.4523 -0.6100
    9DOPE   C26 1077   1.934   3.239   8.928  0.4204 -0.2795 -0.0758
    9DOPE   H6R 1078   2.028   3.180   8.929  0.6674  0.0955  1.7236
    9DOPE   H6S 1079   1.962   3.346   8.926 -0.8072  0.1320  1.9315
    9DOPE   C27 1080   1.849   3.206   8.801 -0.2492 -0.4576 -0.4720
    9DOPE   H7R 1081   1.772   3.285   8.796  1.3308  1.2544  0.6765
    9DOPE   H7S 1082   1.800   3.107   8.810 -1.5790  0.0654 -1.6329
    9DOPE   C28 1083   1.939   3.224   8.677  0.0851 -0.6840  0.4287
    9DOPE   H8R 1084   2.025   3.154   8.674  0.8924  0.3117 -0.4197
    9DOPE   H8S 1085   1.975   3.329   8.667  0.9434 -1.0557 -0.6697
    9DOPE   C29 1086   1.857   3.192   8.554  0.2295  0.5744 -0.3526
    9DOPE   H9R 1087   1.825   3.087   8.549  0.3390  0.5362 -0.2575
    9DOPE  C210 1088   1.814   3.270   8.454 -0.0004 -0.3796 -0.0240
    9DOPE  H10R 1089   1.781   3.223   8.360 -1.2545 -1.6063  0.9763
    9DOPE  C211 1090   1.833   3.420   8.444  0.7367  0.7521 -0.2803
    9DOPE  H11R 1091   1.829   3.455   8.550 -0.9147 -1.2598  0.3841
    9DOPE  H11S 1092   1.755   3.483   8.397 -0.1765  0.4382  0.7871
    9DOPE  C212 1093   1.976   3.443   8.395 -0.0477 -0.3250  0.9103
    9DOPE  H12R 1094   2.048   3.366   8.430  0.0509 -0.7392 -0.1676
    9DOPE  H12S 1095   2.016   3.539   8.434  0.5587  0.5900 -1.7702
    9DOPE  C213 1096   1.991   3.439   8.235  0.0521  0.3173 -0.6738
    9DOPE  H13R 1097   1.915   3.512   8.198  1.1104  1.4549 -0.6739
    9DOPE  H13S 1098   1.969   3.338   8.193  0.3945  0.3425 -0.9171
    9DOPE  C214 1099   2.132   3.464   8.188 -0.3016  0.0985 -0.0227
    9DOPE  H14R 1100   2.195   3.387   8.239 -0.1339 -0.6345 -1.2900
    9DOPE  H14S 1101   2.177   3.564   8.206 -1.8975  0.5953  1.4166
    9DOPE  C215 1102   2.142   3.441   8.034 -0.2672  0.1831  0.4764
    9DOPE  H15R 1103   2.060   3.379   7.993 -0.9310  1.7003 -0.5918
    9DOPE  H15S 1104   2.247   3.412   8.012  1.2684  4.5199  0.9975
    9DOPE  C216 1105   2.144   3.568   7.949  0.2867 -0.3961 -0.6260
    9DOPE  H16R 1106   2.218   3.638   7.993  0.7595 -0.9003 -0.6104
    9DOPE  H16S 1107   2.046   3.620   7.956  0.3685 -0.3910  0.7728
    9DOPE  C217 1108   2.168   3.535   7.801 -1.0697  0.5036  0.0881
    9DOPE  H17R 1109   2.081   3.470   7.779 -1.3437  0.8100  0.2775
    9DOPE  H17S 1110   2.260   3.474   7.786 -1.0430  0.4925  0.2977
    9DOPE  C218 1111   2.167   3.651   7.697  0.1651 -0.1497 -0.0820
    9DOPE  H18R 1112   2.085   3.723   7.715 -0.2095 -0.7800  0.8045
    9DOPE  H18S 1113   2.165   3.622   7.589  1.3571  0.2642 -0.2281
    9DOPE  H18T 1114   2.260   3.708   7.718  0.1747 -1.0134  2.5119
    9DOPE   C33 1115   1.376   2.708   8.983 -0.3081  0.0042 -0.2530
    9DOPE   H3X 1116   1.316   2.648   9.055 -0.2394 -0.3614 -0.4965
    9DOPE   H3Y 1117   1.389   2.653   8.888  0.1408  1.0927 -0.8405
    9DOPE   C34 1118   1.322   2.846   8.944  1.1905 -0.1279  0.4485
    9DOPE   H4X 1119   1.340   2.934   9.010 -2.6293  3.2415 -2.4941
    9DOPE   H4Y 1120   1.379   2.880   8.855 -1.8264 -1.6788 -2.2824
    9DOPE   C35 1121   1.171   2.826   8.894  0.1812 -0.2000 -0.1696
    9DOPE   H5X 1122   1.116   2.773   8.975 -1.3358  1.4177 -0.0694
    9DOPE   H5Y 1123   1.164   2.766   8.800 -0.9030  2.2107 -1.7260
    9DOPE   C36 1124   1.100   2.954   8.862 -0.5835 -0.0652  0.6074
    9DOPE   H6X 1125   1.153   3.011   8.782  0.0336 -3.1944 -1.4111
    9DOPE   H6Y 1126   1.107   3.027   8.945 -1.6094  0.4625  0.2488
    9DOPE   C37 1127   0.951   2.942   8.845 -0.2293 -0.4279 -0.0197
    9DOPE   H7X 1128   0.925   2.854   8.783 -1.7056  0.9148 -1.3838
    9DOPE   H7Y 1129   0.892   2.916   8.936  3.3118  0.8071  2.8796
    9DOPE   C38 1130   0.892   3.076   8.790  0.0387 -0.3271  0.2705
    9DOPE   H8X 1131   0.941   3.103   8.694  0.6315  1.7435  1.1047
    9DOPE   H8Y 1132   0.919   3.155   8.863 -2.9094  0.1418  0.9995
    9DOPE   C39 1133   0.744   3.089   8.775  0.1892  0.6261 -0.1986
    9DOPE   H9X 1134   0.685   3.099   8.867  0.5544  0.6779  0.0341
    9DOPE  C310 1135   0.676   3.094   8.659 -0.0862  0.1974  0.1129
    9DOPE  H10X 1136   0.567   3.106   8.652 -0.1644  0.8124  1.7641
    9DOPE  C311 1137   0.741   3.061   8.527  0.4978  0.1286 -0.0482
    9DOPE  H11X 1138   0.839   3.008   8.529  0.3174 -0.2133 -0.1052
    9DOPE  H11Y 1139   0.681   2.982   8.476 -0.0785  0.6065 -0.1227
    9DOPE  C312 1140   0.744   3.173   8.424 -0.0636 -0.2083  0.3790
    9DOPE  H12X 1141   0.771   3.268   8.476  0.5879 -0.6581  0.8781
    9DOPE  H12Y 1142   0.642   3.187   8.381  0.2767 -3.2800 -1.7954
    9DOPE  C313 1143   0.837   3.146   8.300  0.1507  0.0580 -0.1174
    9DOPE  H13X 1144   0.945   3.163   8.323 -0.4540  1.1837  2.1188
    9DOPE  H13Y 1145   0.830   3.038   8.273  3.1022 -0.6848  1.6244
    9DOPE  C314 1146   0.798   3.232   8.174  0.6040  0.4252  0.8496
    9DOPE  H14X 1147   0.783   3.337   8.207  0.0286  1.1606 -1.5623
    9DOPE  H14Y 1148   0.699   3.195   8.140  0.7947 -0.6666  1.4468
    9DOPE  C315 1149   0.887   3.220   8.049 -0.2731  0.6871 -0.0260
    9DOPE  H15X 1150   0.894   3.116   8.011 -1.9270  0.5236  0.0709
    9DOPE  H15Y 1151   0.990   3.248   8.081 -0.5252  1.1238  0.4142
    9DOPE  C316 1152   0.845   3.309   7.934 -0.1493  0.0197  0.0549
    9DOPE  H16X 1153   0.824   3.412   7.970  0.9453  0.4557 -0.5159
    9DOPE  H16Y 1154   0.742   3.278   7.906 -0.2488 -1.7283  2.0866
    9DOPE  C317 1155   0.933   3.290   7.811 -0.0094  0.0840 -0.3756
    9DOPE  H17X 1156   0.915   3.190   7.766  0.0341  0.2771 -0.8281
    9DOPE  H17Y 1157   0.904   3.361   7.731  1.6252  1.4136  0.1505
    9DOPE  C318 1158   1.078   3.319   7.825  1.0380 -0.1841  0.2112
    9DOPE  H18X 1159   1.089   3.422   7.864 -1.5315 -0.4957  2.0638
    9DOPE  H18Y 1160   1.121   3.244   7.896 -0.5843 -1.2993  0.0865
    9DOPE  H18Z 1161   1.120   3.318   7.722 -1.3219  3.2832 -0.9618
   10DOPE     N 1162   1.208   6.527  10.204 -0.7036  0.3997 -0.5695
   10DOPE   HN1 1163   1.257   6.565  10.288  2.5162  0.1807 -2.2074
   10DOPE   HN2 1164   1.252   6.567  10.119  0.2680  0.4521 -0.0506
   10DOPE   HN3 1165   1.108   6.553  10.188 -0.6880  0.0325 -1.3272
   10DOPE   C12 1166   1.220   6.377  10.204  0.3040  0.0029 -1.1702
   10DOPE  H12A 1167   1.158   6.339  10.288  1.4483 -0.1549 -0.3735
   10DOPE  H12B 1168   1.322   6.344  10.233  0.0306 -1.5060 -1.8452
   10DOPE   C11 1169   1.186   6.321  10.070  0.0942 -0.5090 -0.7423
   10DOPE  H11A 1170   1.195   6.211  10.069  0.6606 -0.4981  0.6795
   10DOPE  H11B 1171   1.270   6.363  10.010 -0.9669  2.8499 -0.1162
   10DOPE     P 1172   1.043   6.378   9.864  0.4760  0.1187 -0.0510
   10DOPE   O13 1173   0.928   6.463   9.824  0.5127 -0.1080 -0.1513
   10DOPE   O14 1174   1.033   6.235   9.828 -0.1338  0.9562  0.4394
   10DOPE   O11 1175   1.177   6.436   9.807 -0.1359 -0.1050 -0.2524
   10DOPE   O12 1176   1.062   6.383  10.017 -0.2531 -0.4350 -0.5817
   10DOPE    C1 1177   1.208   6.469   9.676  0.2124 -0.7070  0.1010
   10DOPE    HA 1178   1.177   6.575   9.666  1.2096 -0.4998 -1.0127
   10DOPE    HB 1179   1.150   6.412   9.601 -0.9855  1.2061 -0.4953
   10DOPE    C2 1180   1.365   6.455   9.659 -1.3946  0.3904  0.3951
   10DOPE    HS 1181   1.396   6.353   9.691 -0.8202  0.7386  0.9665
   10DOPE   O21 1182   1.429   6.557   9.733 -0.0687 -0.1084 -0.2989
   10DOPE   C21 1183   1.547   6.534   9.799  0.5710  0.2143 -0.4292
   10DOPE   O22 1184   1.610   6.427   9.788  0.2924 -0.1520  0.1195
   10DOPE   C22 1185   1.596   6.651   9.880 -0.5255 -0.4530 -0.2153
   10DOPE   H2R 1186   1.699   6.624   9.913 -1.6895 -2.5284  2.0552
   10DOPE   H2S 1187   1.541   6.661   9.976  1.8060  1.0977  1.0594
   10DOPE    C3 1188   1.406   6.472   9.507  0.7282 -0.3468  0.3636
   10DOPE    HX 1189   1.352   6.562   9.470 -0.4614 -1.0964  0.2408
   10DOPE    HY 1190   1.358   6.387   9.454  1.1071  1.1037 -2.4944
   10DOPE   O31 1191   1.545   6.492   9.480 -0.0786  0.1995 -0.1153
   10DOPE   C31 1192   1.617   6.386   9.480  0.4176  0.3669  0.8669
   10DOPE   O32 1193   1.579   6.269   9.496  0.2104 -0.3504 -0.1671
   10DOPE   C32 1194   1.767   6.421   9.442 -0.3408 -0.4294 -0.0538
   10DOPE   H2X 1195   1.768   6.524   9.399  3.2690 -0.7844 -1.0958
   10DOPE   H2Y 1196   1.817   6.420   9.541  0.9565  0.2684 -0.6745
   10DOPE   C23 1197   1.595   6.779   9.796 -0.9847  0.2914 -0.3715
   10DOPE   H3R 1198   1.643   6.854   9.863  1.3790 -0.8557 -0.6756
   10DOPE   H3S 1199   1.499   6.809   9.750 -1.8625 -0.8170  0.7018
   10DOPE   C24 1200   1.707   6.762   9.681  0.1974 -0.2956 -0.2926
   10DOPE   H4R 1201   1.673   6.694   9.601 -0.8153 -0.3602  0.1773
   10DOPE   H4S 1202   1.790   6.713   9.736  1.2480  2.2998  0.5911
   10DOPE   C25 1203   1.763   6.899   9.621 -0.5182  0.0871 -0.3523
   10DOPE   H5R 1204   1.859   6.870   9.573 -0.9202  0.3665 -1.3677
   10DOPE   H5S 1205   1.787   6.969   9.703 -0.5528  0.7448 -0.8940
   10DOPE   C26 1206   1.679   6.959   9.516  0.1122 -0.1065  0.8932
   10DOPE   H6R 1207   1.700   6.907   9.420 -0.4480  1.7912 -0.3203
   10DOPE   H6S 1208   1.714   7.064   9.502  0.4724 -0.2588  0.6426
   10DOPE   C27 1209   1.526   6.962   9.541 -0.4015  0.3979  0.3207
   10DOPE   H7R 1210   1.488   7.007   9.635 -1.0698  1.9494 -0.6557
   10DOPE   H7S 1211   1.495   6.855   9.541  1.6026 -0.2692 -1.7519
   10DOPE   C28 1212   1.446   7.044   9.435  0.1403 -0.7220 -0.6121
   10DOPE   H8R 1213   1.344   7.003   9.451  0.1289 -0.5145 -0.1309
   10DOPE   H8S 1214   1.472   7.025   9.328  0.4610 -0.4894 -0.5754
   10DOPE   C29 1215   1.440   7.194   9.462 -0.8394  0.7117 -0.4270
   10DOPE   H9R 1216   1.440   7.220   9.569  2.0034 -0.9161  0.0813
   10DOPE  C210 1217   1.446   7.288   9.368  1.2676  0.2738 -0.8995
   10DOPE  H10R 1218   1.431   7.392   9.400  1.0875  0.3264 -1.1487
   10DOPE  C211 1219   1.437   7.260   9.220 -0.3138  0.4552 -0.1487
   10DOPE  H11R 1220   1.356   7.327   9.183 -1.2350  0.1366  1.2123
   10DOPE  H11S 1221   1.400   7.158   9.195  2.5415 -1.0012  1.1404
   10DOPE  C212 1222   1.566   7.283   9.135  0.0399 -0.8403  0.2414
   10DOPE  H12R 1223   1.602   7.388   9.129 -1.9846 -0.1857 -3.1702
   10DOPE  H12S 1224   1.528   7.259   9.033 -0.3687  1.0198 -0.0738
   10DOPE  C213 1225   1.677   7.181   9.168  0.1515 -0.4693  0.3808
   10DOPE  H13R 1226   1.624   7.093   9.212  0.6478 -0.4116  1.0947
   10DOPE  H13S 1227   1.737   7.226   9.250 -0.0438  1.8965 -0.7109
   10DOPE  C214 1228   1.764   7.148   9.048 -0.8022  0.2320 -0.2095
   10DOPE  H14R 1229   1.700   7.107   8.968 -0.4154 -2.4178  0.7496
   10DOPE  H14S 1230   1.828   7.064   9.082  1.8709  2.0564 -0.4260
   10DOPE  C215 1231   1.839   7.266   8.986 -0.5742 -0.9068 -0.3466
   10DOPE  H15R 1232   1.887   7.326   9.067  1.6390 -0.1143 -2.1425
   10DOPE  H15S 1233   1.767   7.335   8.938 -1.8177 -1.7765  0.2187
   10DOPE  C216 1234   1.951   7.216   8.895 -0.0803  0.2023 -0.2711
   10DOPE  H16R 1235   1.985   7.115   8.927 -2.3087 -0.1607  1.1014
   10DOPE  H16S 1236   2.045   7.276   8.896  0.9870 -1.4041  0.5761
   10DOPE  C217 1237   1.912   7.200   8.750 -0.4844  0.0324 -0.3944
   10DOPE  H17R 1238   1.881   7.298   8.707  4.0011  1.4952 -0.7308
   10DOPE  H17S 1239   1.821   7.136   8.743 -2.8117  3.1775 -1.1482
   10DOPE  C218 1240   2.023   7.134   8.671 -0.1888 -0.2715  0.2925
   10DOPE  H18R 1241   2.018   7.150   8.561 -1.3364 -0.3583  0.3174
   10DOPE  H18S 1242   2.024   7.025   8.692  2.8849 -0.0021  2.1283
   10DOPE  H18T 1243   2.122   7.171   8.706 -0.1410 -0.7001  0.6143
   10DOPE   C33 1244   1.818   6.325   9.336 -0.1547  0.8297  0.1837
   10DOPE   H3X 1245   1.750   6.334   9.249 -2.1941 -1.3276  1.3974
   10DOPE   H3Y 1246   1.810   6.216   9.359  2.2515  0.5349 -0.1740
   10DOPE   C34 1247   1.963   6.366   9.303  0.2632 -0.1517  0.5232
   10DOPE   H4X 1248   1.993   6.355   9.197 -3.3523  0.0642 -0.6641
   10DOPE   H4Y 1249   1.974   6.475   9.321  0.6245  0.3387 -2.2727
   10DOPE   C35 1250   2.063   6.290   9.389 -0.5648  0.6416  0.1419
   10DOPE   H5X 1251   2.049   6.181   9.374 -0.1747  0.3562  1.6447
   10DOPE   H5Y 1252   2.046   6.306   9.497 -0.4404 -0.5359  0.3477
   10DOPE   C36 1253   2.208   6.317   9.368  0.1520  0.3047  0.0842
   10DOPE   H6X 1254   2.237   6.319   9.260 -0.6397  3.3185 -0.1552
   10DOPE   H6Y 1255   2.272   6.239   9.414  0.3615  0.1672 -0.4306
   10DOPE   C37 1256   2.251   6.452   9.425 -0.5041 -0.6307 -0.4754
   10DOPE   H7X 1257   2.234   6.527   9.345  1.1032  1.2419  0.8482
   10DOPE   H7Y 1258   2.193   6.464   9.518 -0.8958  2.9086 -1.0443
   10DOPE   C38 1259   2.396   6.455   9.467  0.3879  0.5064 -0.5805
   10DOPE   H8X 1260   2.454   6.410   9.384  2.4292  0.6736  0.6772
   10DOPE   H8Y 1261   2.394   6.385   9.553 -1.7344 -0.0795 -1.0452
   10DOPE   C39 1262   2.440   6.593   9.509 -0.9898  0.5401  0.2682
   10DOPE   H9X 1263   2.382   6.638   9.590 -1.3531  0.0999  0.2557
   10DOPE  C310 1264   2.542   6.659   9.456  0.1345 -0.1233  0.4710
   10DOPE  H10X 1265   2.560   6.763   9.487 -0.5972  0.2650 -0.3610
   10DOPE  C311 1266   2.622   6.616   9.338 -0.8216 -0.2514 -0.2130
   10DOPE  H11X 1267   2.726   6.651   9.353 -0.6489  0.1498 -2.0552
   10DOPE  H11Y 1268   2.629   6.507   9.316  0.3473 -0.7712  2.3441
   10DOPE  C312 1269   2.597   6.691   9.199  0.6460 -0.3056 -0.7295
   10DOPE  H12X 1270   2.688   6.682   9.136  1.5394  0.9758  0.3133
   10DOPE  H12Y 1271   2.580   6.801   9.208 -3.3734 -0.8300  0.2874
   10DOPE  C313 1272   2.479   6.620   9.129 -0.5209 -0.9133  0.4428
   10DOPE  H13X 1273   2.401   6.587   9.202  1.3460 -3.4655  1.4283
   10DOPE  H13Y 1274   2.429   6.691   9.061 -0.1050 -0.0730  1.0006
   10DOPE  C314 1275   2.534   6.499   9.050  0.0767 -0.2024  0.5824
   10DOPE  H14X 1276   2.549   6.405   9.108 -0.4152  0.2315  1.4370
   10DOPE  H14Y 1277   2.635   6.529   9.014  0.2763  0.3368  1.5535
   10DOPE  C315 1278   2.448   6.473   8.924  0.0791 -0.4646 -0.0872
   10DOPE  H15X 1279   2.497   6.410   8.847 -0.6768  0.9623 -1.7994
   10DOPE  H15Y 1280   2.433   6.574   8.880  1.4493 -0.5880 -0.9129
   10DOPE  C316 1281   2.312   6.406   8.953 -0.2684 -0.0043  0.0381
   10DOPE  H16X 1282   2.258   6.463   9.031 -0.7806  0.0353 -0.3401
   10DOPE  H16Y 1283   2.315   6.305   9.000  0.2106 -0.4959 -1.0087
   10DOPE  C317 1284   2.212   6.421   8.834 -0.4137 -0.4292 -0.6084
   10DOPE  H17X 1285   2.189   6.529   8.832 -0.6712 -0.4172  1.2361
   10DOPE  H17Y 1286   2.245   6.379   8.736 -0.2099 -0.9077 -0.3402
   10DOPE  C318 1287   2.076   6.344   8.857  0.0889 -0.5893  0.4010
   10DOPE  H18X 1288   2.086   6.239   8.821  0.9616 -0.0847 -0.9271
   10DOPE  H18Y 1289   2.033   6.350   8.959  0.2703 -1.5279  0.5440
   10DOPE  H18Z 1290   2.006   6.383   8.780  0.0224 -1.5619 -0.0574
   11DOPE     N 1291   0.116   0.813   9.221 -0.5263  0.4225  0.1156
   11DOPE   HN1 1292   0.209   0.795   9.264 -0.0914  0.8036 -0.6442
   11DOPE   HN2 1293   0.065   0.876   9.286 -0.6675  0.9058 -0.4535
   11DOPE   HN3 1294   0.069   0.720   9.221 -0.1544  0.1545  2.4803
   11DOPE   C12 1295   0.121   0.877   9.090  0.1317  0.6883 -0.6229
   11DOPE  H12A 1296   0.060   0.809   9.026  0.0636  0.1866 -0.0432
   11DOPE  H12B 1297   0.225   0.862   9.054  0.4451  2.0827 -0.3414
   11DOPE   C11 1298   0.094   1.030   9.088  0.7366  0.4567 -0.5731
   11DOPE  H11A 1299  -0.008   1.060   9.118  1.8308  2.7845  1.1335
   11DOPE  H11B 1300   0.103   1.071   8.985  1.2894  0.7108 -0.4293
   11DOPE     P 1301   0.335   1.135   9.153 -0.6548 -0.1735  0.3273
   11DOPE   O13 1302   0.414   1.018   9.120 -0.5534 -0.5168 -0.2156
   11DOPE   O14 1303   0.376   1.205   9.274 -0.5465 -0.4423  0.8830
   11DOPE   O11 1304   0.329   1.225   9.020 -0.4056 -0.3215 -0.0323
   11DOPE   O12 1305   0.187   1.093   9.184 -0.3301 -0.4765  0.0812
   11DOPE    C1 1306   0.264   1.352   9.014 -0.8249  0.5643  0.2923
   11DOPE    HA 1307   0.312   1.426   9.082  2.9745  0.1730 -1.7016
   11DOPE    HB 1308   0.158   1.349   9.049 -0.2509  1.4316  2.2464
   11DOPE    C2 1309   0.278   1.406   8.872  0.2948  0.7142 -0.0822
   11DOPE    HS 1310   0.383   1.429   8.844  0.6220  0.1710  0.6705
   11DOPE   O21 1311   0.195   1.519   8.859  0.4739 -0.1237  0.6953
   11DOPE   C21 1312   0.247   1.632   8.893  0.2008  0.2719 -0.0489
   11DOPE   O22 1313   0.357   1.654   8.949  0.1548  0.4942  0.2188
   11DOPE   C22 1314   0.131   1.734   8.885 -0.0374  0.2923  0.7921
   11DOPE   H2R 1315   0.080   1.755   8.981  0.0788  1.4923  0.6014
   11DOPE   H2S 1316   0.053   1.697   8.814  0.2019 -0.5947  0.9754
   11DOPE    C3 1317   0.219   1.291   8.779 -0.6198  0.2181 -0.4141
   11DOPE    HX 1318   0.122   1.272   8.830 -0.4711 -2.0715 -0.8782
   11DOPE    HY 1319   0.276   1.198   8.799 -1.4529  0.1263  1.7524
   11DOPE   O31 1320   0.223   1.341   8.637  0.3075 -0.0182 -0.1549
   11DOPE   C31 1321   0.116   1.407   8.604 -0.0229 -0.0170 -0.1639
   11DOPE   O32 1322   0.012   1.405   8.667  0.2705 -0.3677 -0.4782
   11DOPE   C32 1323   0.137   1.493   8.484  0.1122 -0.0231  0.5373
   11DOPE   H2X 1324   0.062   1.574   8.482  1.9969  1.7789 -1.0513
   11DOPE   H2Y 1325   0.238   1.538   8.483 -0.8452  2.3361  2.0943
   11DOPE   C23 1326   0.188   1.870   8.832 -0.2308  0.5916  0.1695
   11DOPE   H3R 1327   0.271   1.900   8.899 -0.4076 -1.5601  1.4570
   11DOPE   H3S 1328   0.109   1.947   8.849 -0.1251  0.3426  1.9769
   11DOPE   C24 1329   0.224   1.864   8.682 -0.4334 -0.1671 -0.5016
   11DOPE   H4R 1330   0.143   1.801   8.640 -0.3285 -1.2407  0.8339
   11DOPE   H4S 1331   0.319   1.806   8.674  0.4413  0.7540  1.9678
   11DOPE   C25 1332   0.239   1.986   8.598  0.3128 -0.3628 -0.5394
   11DOPE   H5R 1333   0.345   2.010   8.576  0.4840 -1.3878 -0.8560
   11DOPE   H5S 1334   0.194   2.070   8.656  1.3529 -0.9685  1.2080
   11DOPE   C26 1335   0.174   1.986   8.460  0.0387  0.4686  0.1783
   11DOPE   H6R 1336   0.206   2.078   8.407  2.8694 -0.0805  0.7988
   11DOPE   H6S 1337   0.063   1.981   8.467 -0.1072 -0.6863 -2.1014
   11DOPE   C27 1338   0.206   1.857   8.382 -0.1906 -0.4900  0.7572
   11DOPE   H7R 1339   0.163   1.769   8.434  1.3062 -0.6122  1.8651
   11DOPE   H7S 1340   0.316   1.845   8.373 -0.6250 -4.0078 -4.9670
   11DOPE   C28 1341   0.160   1.855   8.233  0.3419 -0.0004  0.1308
   11DOPE   H8R 1342   0.050   1.847   8.247  0.0809 -0.2914 -1.8293
   11DOPE   H8S 1343   0.196   1.760   8.187  3.2345  1.2556 -0.3592
   11DOPE   C29 1344   0.183   1.980   8.153 -0.2060 -0.3795  0.9047
   11DOPE   H9R 1345   0.290   2.000   8.139 -0.7141  3.5943  1.5957
   11DOPE  C210 1346   0.091   2.063   8.101  0.3235  0.2811  0.0138
   11DOPE  H10R 1347   0.123   2.141   8.030 -0.5978 -0.8817 -1.7518
   11DOPE  C211 1348  -0.063   2.066   8.126  0.3266 -0.1232 -0.2956
   11DOPE  H11R 1349  -0.084   2.022   8.225 -0.2095  0.6987 -0.0355
   11DOPE  H11S 1350  -0.117   2.019   8.041 -0.4416  2.1272 -1.1211
   11DOPE  C212 1351  -0.118   2.216   8.145  0.1058  0.0339  0.2918
   11DOPE  H12R 1352  -0.227   2.203   8.166 -0.0197 -0.4312 -0.6022
   11DOPE  H12S 1353  -0.115   2.278   8.053  3.4629  2.8843  2.0658
   11DOPE  C213 1354  -0.057   2.296   8.262  0.2410 -0.3774  0.5340
   11DOPE  H13R 1355   0.048   2.328   8.244  0.4270 -1.2270  0.0328
   11DOPE  H13S 1356  -0.057   2.235   8.355 -0.6419 -2.0424 -0.4969
   11DOPE  C214 1357  -0.142   2.425   8.287 -0.3588  0.9306  0.5300
   11DOPE  H14R 1358  -0.098   2.466   8.380  1.7337 -1.9066  0.9282
   11DOPE  H14S 1359  -0.251   2.402   8.295  0.1433 -2.1527 -0.0984
   11DOPE  C215 1360  -0.139   2.527   8.171 -0.7293  0.0530  0.4171
   11DOPE  H15R 1361  -0.194   2.504   8.077 -2.1925 -1.7966  1.6469
   11DOPE  H15S 1362  -0.033   2.537   8.139 -0.4074 -0.7493  1.1968
   11DOPE  C216 1363  -0.172   2.669   8.221  0.1135  0.1565  0.1112
   11DOPE  H16R 1364  -0.108   2.691   8.310 -0.5975 -2.0058  1.2104
   11DOPE  H16S 1365  -0.278   2.668   8.254  0.5955  1.0937  1.8134
   11DOPE  C217 1366  -0.148   2.783   8.123 -0.5345 -0.2808 -0.1175
   11DOPE  H17R 1367  -0.201   2.750   8.032 -1.0156  0.4739 -0.1136
   11DOPE  H17S 1368  -0.043   2.791   8.086 -0.9778  2.1004 -1.0384
   11DOPE  C218 1369  -0.192   2.919   8.169 -0.6916 -0.2082  0.3552
   11DOPE  H18R 1370  -0.302   2.911   8.184 -1.0088  1.6337 -0.6262
   11DOPE  H18S 1371  -0.167   3.001   8.099  0.5669 -0.6985  0.2051
   11DOPE  H18T 1372  -0.135   2.942   8.262 -0.6376 -0.5025  0.3964
   11DOPE   C33 1373   0.105   1.413   8.351 -0.0417  0.5207 -0.1447
   11DOPE   H3X 1374   0.146   1.479   8.272 -0.0335  1.6895  0.8053
   11DOPE   H3Y 1375  -0.005   1.413   8.334 -0.3027 -2.2783  1.0108
   11DOPE   C34 1376   0.175   1.278   8.347  0.2939  0.3691 -0.1384
   11DOPE   H4X 1377   0.269   1.277   8.406 -0.4571  2.0910  1.1633
   11DOPE   H4Y 1378   0.113   1.198   8.393 -1.3140  1.8930  0.4710
   11DOPE   C35 1379   0.224   1.250   8.209  0.4974  1.1125  0.0812
   11DOPE   H5X 1380   0.306   1.316   8.174 -0.2228  1.1911 -1.5724
   11DOPE   H5Y 1381   0.143   1.273   8.136 -0.1062 -4.1706 -1.3041
   11DOPE   C36 1382   0.284   1.112   8.191  0.3634  0.2686 -0.4377
   11DOPE   H6X 1383   0.347   1.082   8.277 -0.9907  0.4332  0.6389
   11DOPE   H6Y 1384   0.352   1.123   8.104  0.9269  0.7984  0.0620
   11DOPE   C37 1385   0.177   0.997   8.165 -0.4282  0.1805  0.2139
   11DOPE   H7X 1386   0.140   0.960   8.263  0.3072  0.6653  0.6844
   11DOPE   H7Y 1387   0.087   1.041   8.117  0.0673 -0.2571 -1.1400
   11DOPE   C38 1388   0.238   0.877   8.086 -0.1573 -0.0325  0.1383
   11DOPE   H8X 1389   0.341   0.858   8.123 -0.3034  3.9135  3.1451
   11DOPE   H8Y 1390   0.237   0.897   7.976 -0.4449  1.3203  0.3770
   11DOPE   C39 1391   0.146   0.761   8.119  0.6400 -0.0496  0.2846
   11DOPE   H9X 1392   0.153   0.718   8.220 -0.5683 -1.0170 -0.0247
   11DOPE  C310 1393   0.083   0.684   8.032 -0.4864  0.4942  0.3743
   11DOPE  H10X 1394   0.027   0.599   8.072  0.8832 -1.0172 -0.7759
   11DOPE  C311 1395   0.072   0.688   7.879  0.2078 -0.2478 -0.4728
   11DOPE  H11X 1396  -0.036   0.696   7.852  0.4038  1.6315 -0.8301
   11DOPE  H11Y 1397   0.133   0.764   7.827 -3.2551  3.3198  0.2153
   11DOPE  C312 1398   0.118   0.546   7.835  0.5410 -0.8336 -0.0185
   11DOPE  H12X 1399   0.046   0.471   7.874 -2.5514  0.5711 -2.5842
   11DOPE  H12Y 1400   0.212   0.528   7.891  1.1890  1.5762 -0.2333
   11DOPE  C313 1401   0.143   0.543   7.687 -0.6224 -0.2636  0.0533
   11DOPE  H13X 1402   0.047   0.552   7.633  0.4458  0.3818 -1.8576
   11DOPE  H13Y 1403   0.199   0.636   7.660 -2.7578  0.7551 -1.1161
   11DOPE  C314 1404   0.228   0.419   7.643  0.1828  0.3538  0.1108
   11DOPE  H14X 1405   0.309   0.395   7.715 -0.3942 -0.8192  0.3730
   11DOPE  H14Y 1406   0.287   0.447   7.553 -0.1893 -1.1144 -0.6035
   11DOPE  C315 1407   0.146   0.294   7.620 -0.1457 -0.4987  0.0327
   11DOPE  H15X 1408   0.060   0.310   7.551 -0.3544 -1.6053  0.0230
   11DOPE  H15Y 1409   0.097   0.272   7.717 -2.1489  0.3487 -0.7364
   11DOPE  C316 1410   0.233   0.182   7.566  0.3925  0.0418 -0.3230
   11DOPE  H16X 1411   0.314   0.162   7.639 -0.2634  0.4873  0.5559
   11DOPE  H16Y 1412   0.284   0.222   7.476  0.9689  0.2936  0.1076
   11DOPE  C317 1413   0.160   0.056   7.514 -0.9817  0.0009 -0.1458
   11DOPE  H17X 1414   0.103   0.006   7.596 -0.4139 -0.4884 -0.0408
   11DOPE  H17Y 1415   0.098   0.078   7.425 -0.1158 -1.3074 -1.1149
   11DOPE  C318 1416   0.265  -0.053   7.478 -0.4348 -0.9756 -0.3654
   11DOPE  H18X 1417   0.332  -0.011   7.400  1.6405  1.4408  2.4501
   11DOPE  H18Y 1418   0.318  -0.062   7.576 -2.5549 -0.7831  0.8500
   11DOPE  H18Z 1419   0.215  -0.149   7.455 -2.8834  0.4825 -1.5131
   12DOPE     N 1420   3.101   7.610   9.959 -0.0893  0.2002  0.1899
   12DOPE   HN1 1421   3.079   7.614  10.061 -2.3917  0.9977 -0.2821
   12DOPE   HN2 1422   3.168   7.534   9.938 -0.1508  0.1138  0.3060
   12DOPE   HN3 1423   3.157   7.694   9.934  0.4464  1.1245  3.8367
   12DOPE   C12 1424   2.980   7.590   9.878 -0.2506 -0.1371 -0.0347
   12DOPE  H12A 1425   2.911   7.677   9.879  1.5507  1.4074  2.2214
   12DOPE  H12B 1426   2.919   7.503   9.913  2.3405 -2.2448 -0.4345
   12DOPE   C11 1427   3.032   7.556   9.738 -0.3299  0.0128  0.2655
   12DOPE  H11A 1428   2.953   7.510   9.675  0.3588 -0.1428 -0.5029
   12DOPE  H11B 1429   3.097   7.467   9.755 -1.8768 -0.9071  1.8126
   12DOPE     P 1430   3.020   7.782   9.604 -0.4097  0.4126  0.4704
   12DOPE   O13 1431   3.116   7.887   9.552  0.1613  0.3623 -0.2202
   12DOPE   O14 1432   2.911   7.830   9.695 -0.1334  0.0012 -0.6608
   12DOPE   O11 1433   2.954   7.723   9.474  1.3173 -0.7207 -1.0261
   12DOPE   O12 1434   3.108   7.664   9.677  0.0661 -0.0853 -0.3022
   12DOPE    C1 1435   3.017   7.638   9.382  0.0934  1.3960 -0.3674
   12DOPE    HA 1436   2.941   7.568   9.341  3.0395 -2.3698  0.0129
   12DOPE    HB 1437   3.098   7.573   9.422 -1.6872  0.3287  1.7281
   12DOPE    C2 1438   3.086   7.722   9.274  0.4681 -0.1124  0.3610
   12DOPE    HS 1439   3.153   7.797   9.322  1.1228 -1.4420  1.6330
   12DOPE   O21 1440   2.993   7.789   9.180  0.1672  0.1647 -0.3297
   12DOPE   C21 1441   3.035   7.902   9.116  0.3581  0.0659 -0.0959
   12DOPE   O22 1442   3.131   7.970   9.143 -0.3038 -0.7523  0.1076
   12DOPE   C22 1443   2.935   7.940   9.005  0.1987 -0.6280  0.1003
   12DOPE   H2R 1444   2.915   8.049   8.998 -0.7963 -0.7266  1.2637
   12DOPE   H2S 1445   2.836   7.890   9.012 -1.0621  1.7158 -0.0875
   12DOPE    C3 1446   3.175   7.629   9.189  0.3806 -0.1642 -0.3667
   12DOPE    HX 1447   3.227   7.693   9.114  2.2369  1.3101  2.0196
   12DOPE    HY 1448   3.105   7.564   9.133  0.4871  0.8106 -1.6743
   12DOPE   O31 1449   3.272   7.558   9.272  0.6913  0.0889  0.0066
   12DOPE   C31 1450   3.374   7.630   9.304 -0.7121  0.0771  0.2933
   12DOPE   O32 1451   3.410   7.734   9.252 -0.2438 -0.1909  0.5627
   12DOPE   C32 1452   3.461   7.561   9.412 -1.0234  0.0729 -0.1214
   12DOPE   H2X 1453   3.569   7.585   9.404 -0.7324 -0.6129  1.4879
   12DOPE   H2Y 1454   3.429   7.604   9.509 -1.9956  1.8513 -1.1613
   12DOPE   C23 1455   2.988   7.902   8.866 -0.1535  0.4724  0.3934
   12DOPE   H3R 1456   3.033   7.800   8.871 -0.1212  0.4603 -0.0885
   12DOPE   H3S 1457   3.073   7.968   8.838 -0.2374  0.4363  0.0509
   12DOPE   C24 1458   2.882   7.916   8.760 -0.2655 -0.2063  0.0860
   12DOPE   H4R 1459   2.878   8.024   8.734 -0.8629  0.2246  1.8477
   12DOPE   H4S 1460   2.781   7.887   8.795 -0.1724  0.0314  0.5660
   12DOPE   C25 1461   2.926   7.856   8.626 -0.6023  0.1349  0.9179
   12DOPE   H5R 1462   3.035   7.871   8.612 -0.0730 -3.9791 -0.4118
   12DOPE   H5S 1463   2.871   7.905   8.542 -0.6833  2.1054  2.0470
   12DOPE   C26 1464   2.903   7.705   8.607 -0.2063  0.8346 -0.1087
   12DOPE   H6R 1465   2.793   7.688   8.610  0.0132 -0.6759 -0.1056
   12DOPE   H6S 1466   2.955   7.654   8.691  1.6007  2.1923 -0.3573
   12DOPE   C27 1467   2.966   7.664   8.474  0.0622 -0.8986 -0.0466
   12DOPE   H7R 1468   3.077   7.665   8.470  0.0467 -1.7258 -1.1447
   12DOPE   H7S 1469   2.934   7.737   8.397 -0.9354  1.3779  2.3813
   12DOPE   C28 1470   2.922   7.526   8.426 -0.1135  0.1024 -0.5212
   12DOPE   H8R 1471   2.965   7.496   8.328 -0.4472  1.3442 -1.0638
   12DOPE   H8S 1472   2.812   7.518   8.411 -0.5994  1.3030  1.9231
   12DOPE   C29 1473   2.961   7.419   8.525  0.2469 -0.4975  0.6022
   12DOPE   H9R 1474   2.908   7.427   8.621  2.1309 -1.4914  1.7880
   12DOPE  C210 1475   3.048   7.317   8.516  0.5827 -0.2044 -0.0482
   12DOPE  H10R 1476   3.054   7.255   8.606  1.4372 -1.3695 -0.8800
   12DOPE  C211 1477   3.119   7.276   8.388 -0.7077  0.1302 -0.0997
   12DOPE  H11R 1478   3.108   7.346   8.302  2.8842 -0.0255 -0.8594
   12DOPE  H11S 1479   3.078   7.174   8.366 -0.6136 -0.0887  0.7353
   12DOPE  C212 1480   3.276   7.261   8.394  0.3460  0.1326 -0.0302
   12DOPE  H12R 1481   3.314   7.197   8.312 -1.5414  1.0934 -1.7290
   12DOPE  H12S 1482   3.309   7.215   8.490  2.2770  1.0045 -0.2186
   12DOPE  C213 1483   3.355   7.390   8.379  0.1123  0.1582  0.2156
   12DOPE  H13R 1484   3.325   7.442   8.285 -0.2436  1.0048  0.7840
   12DOPE  H13S 1485   3.466   7.385   8.375  0.2306  2.2232 -1.0218
   12DOPE  C214 1486   3.343   7.492   8.495 -0.4810 -0.1451  0.1295
   12DOPE  H14R 1487   3.377   7.432   8.583 -3.8632 -1.7680  0.4924
   12DOPE  H14S 1488   3.237   7.522   8.505 -0.5057 -0.5082  1.0432
   12DOPE  C215 1489   3.427   7.624   8.476 -0.2961  0.2140  0.4621
   12DOPE  H15R 1490   3.382   7.671   8.385 -0.4292 -2.8728 -1.2010
   12DOPE  H15S 1491   3.528   7.590   8.444  0.1993  1.3453  0.7849
   12DOPE  C216 1492   3.437   7.709   8.601  0.1237 -0.1379  0.7206
   12DOPE  H16R 1493   3.494   7.802   8.577 -0.3655 -0.0259 -0.0193
   12DOPE  H16S 1494   3.511   7.655   8.665 -0.2918 -2.1782 -0.4546
   12DOPE  C217 1495   3.308   7.726   8.681  0.2232 -0.4522 -0.4674
   12DOPE  H17R 1496   3.257   7.628   8.696  2.2977 -1.4192  0.7695
   12DOPE  H17S 1497   3.229   7.778   8.623  0.7261 -0.5471 -1.2674
   12DOPE  C218 1498   3.333   7.786   8.823 -0.4498  0.2217  1.2217
   12DOPE  H18R 1499   3.252   7.753   8.892 -1.1345 -1.0860 -0.1534
   12DOPE  H18S 1500   3.320   7.896   8.810 -0.7344  0.1104  0.5545
   12DOPE  H18T 1501   3.434   7.769   8.866  0.6112  0.6430 -0.9834
   12DOPE   C33 1502   3.460   7.405   9.417 -0.3285 -0.2457  0.0879
   12DOPE   H3X 1503   3.353   7.377   9.406  0.0198 -1.5655 -0.0972
   12DOPE   H3Y 1504   3.480   7.374   9.521 -1.1226 -0.1420  0.2735
   12DOPE   C34 1505   3.550   7.328   9.314  0.1393 -0.3144 -0.6477
   12DOPE   H4X 1506   3.537   7.367   9.211 -1.4482  2.6842  0.5768
   12DOPE   H4Y 1507   3.654   7.361   9.335  0.4747 -1.5233 -0.3342
   12DOPE   C35 1508   3.540   7.174   9.326  0.3051  0.2039  0.1144
   12DOPE   H5X 1509   3.438   7.134   9.310  0.2096  1.6849 -3.8133
   12DOPE   H5Y 1510   3.558   7.137   9.430 -2.7031 -0.5668  0.4610
   12DOPE   C36 1511   3.635   7.105   9.226  0.5689 -0.2993  0.0468
   12DOPE   H6X 1512   3.636   7.164   9.132 -1.5120  1.0141  0.7786
   12DOPE   H6Y 1513   3.607   7.002   9.195  1.4407 -0.9137  1.2260
   12DOPE   C37 1514   3.788   7.093   9.272  0.0064  0.0854 -0.5101
   12DOPE   H7X 1515   3.830   7.194   9.292  0.4857  0.3236 -2.5646
   12DOPE   H7Y 1516   3.796   7.022   9.356 -0.6015 -2.5358 -2.5536
   12DOPE   C38 1517   3.879   7.041   9.159  0.2612 -1.2834  0.1230
   12DOPE   H8X 1518   3.973   7.013   9.211  0.9241 -0.3756 -0.5632
   12DOPE   H8Y 1519   3.903   7.126   9.092  0.1451 -3.3025 -2.6608
   12DOPE   C39 1520   3.821   6.922   9.076  0.1394  0.1195 -0.0185
   12DOPE   H9X 1521   3.799   6.829   9.129  0.5029 -0.0943 -0.2376
   12DOPE  C310 1522   3.798   6.927   8.943  0.3337 -0.8957  0.2588
   12DOPE  H10X 1523   3.754   6.843   8.887 -2.1873  0.1952  0.4671
   12DOPE  C311 1524   3.813   7.042   8.844 -0.0466  0.0477  0.2704
   12DOPE  H11X 1525   3.832   7.140   8.893  0.7845 -0.3949  0.8638
   12DOPE  H11Y 1526   3.898   7.025   8.775 -3.0792 -1.6473 -3.4030
   12DOPE  C312 1527   3.692   7.056   8.752 -0.5021 -0.3032  0.5241
   12DOPE  H12X 1528   3.691   6.973   8.678  0.5228  0.8656 -0.8871
   12DOPE  H12Y 1529   3.702   7.149   8.691 -2.0650  0.0383  0.7619
   12DOPE  C313 1530   3.559   7.075   8.831  0.3774 -0.3673 -0.0489
   12DOPE  H13X 1531   3.540   6.989   8.899 -1.3812  1.5193  2.0376
   12DOPE  H13Y 1532   3.577   7.162   8.898  0.7726 -0.4821 -0.0030
   12DOPE  C314 1533   3.429   7.085   8.751 -0.2883 -0.4875  0.5257
   12DOPE  H14X 1534   3.401   6.995   8.693 -1.0656  1.7040 -2.7571
   12DOPE  H14Y 1535   3.436   7.172   8.682  2.8312  0.6034  2.0178
   12DOPE  C315 1536   3.304   7.127   8.842 -0.7356  0.0942  0.9020
   12DOPE  H15X 1537   3.316   7.071   8.937  1.3892 -2.4886 -0.7327
   12DOPE  H15Y 1538   3.210   7.110   8.785  0.1317 -0.5236 -0.4079
   12DOPE  C316 1539   3.290   7.277   8.878 -0.3195  0.7612 -0.8101
   12DOPE  H16X 1540   3.292   7.328   8.779  1.5914  0.5318 -0.9402
   12DOPE  H16Y 1541   3.371   7.321   8.941 -0.5569  0.6798 -0.4510
   12DOPE  C317 1542   3.161   7.293   8.956 -0.3308  0.1065 -0.1490
   12DOPE  H17X 1543   3.112   7.391   8.942  2.6550  2.0134  1.5661
   12DOPE  H17Y 1544   3.097   7.205   8.932  0.8920 -1.1392  0.9355
   12DOPE  C318 1545   3.184   7.275   9.111 -0.4632 -0.1135 -0.1882
   12DOPE  H18X 1546   3.086   7.244   9.154 -0.8614  2.8364  1.2680
   12DOPE  H18Y 1547   3.251   7.187   9.122  1.2703  1.2493  0.7076
   12DOPE  H18Z 1548   3.231   7.352   9.175 -1.5589  0.0173  0.4789
   13DOPE     N 1549   2.552   3.393   9.743  0.1211  0.1013  0.1007
   13DOPE   HN1 1550   2.573   3.494   9.758  0.7576 -0.4003  3.4689
   13DOPE   HN2 1551   2.450   3.375   9.751  0.6072 -2.0688  3.1220
   13DOPE   HN3 1552   2.597   3.333   9.815 -2.7439 -1.1584  1.0085
   13DOPE   C12 1553   2.603   3.335   9.620  0.4929 -0.4798 -0.1620
   13DOPE  H12A 1554   2.711   3.322   9.642  0.3930  0.5468  0.9963
   13DOPE  H12B 1555   2.590   3.406   9.535  2.4115 -1.5503 -1.4313
   13DOPE   C11 1556   2.537   3.201   9.585  0.0374  0.1888  0.8567
   13DOPE  H11A 1557   2.602   3.163   9.502 -2.4787 -0.4965 -0.9185
   13DOPE  H11B 1558   2.438   3.210   9.535  0.3491 -0.0635  0.1688
   13DOPE     P 1559   2.661   3.020   9.725 -0.0553  0.2168  0.1304
   13DOPE   O13 1560   2.636   2.929   9.841 -0.5781  0.3328  0.2516
   13DOPE   O14 1561   2.781   3.109   9.736  0.2331 -0.0343 -0.3803
   13DOPE   O11 1562   2.674   2.926   9.600  0.2281  0.6144  0.1885
   13DOPE   O12 1563   2.533   3.106   9.695  0.5628 -0.0793 -0.0398
   13DOPE    C1 1564   2.557   2.871   9.540 -0.1735  0.2293  0.0900
   13DOPE    HA 1565   2.483   2.950   9.514  1.3285  0.9112 -2.4181
   13DOPE    HB 1566   2.510   2.794   9.605  3.3564 -1.9459  0.2810
   13DOPE    C2 1567   2.601   2.801   9.408 -0.0315  0.0013 -0.0780
   13DOPE    HS 1568   2.510   2.751   9.369 -0.0817 -2.2960  2.6798
   13DOPE   O21 1569   2.714   2.707   9.425  0.4484  0.1828 -0.4689
   13DOPE   C21 1570   2.667   2.590   9.466 -0.7456  0.0869 -0.2222
   13DOPE   O22 1571   2.554   2.570   9.505 -0.1557  0.3214 -0.3849
   13DOPE   C22 1572   2.780   2.492   9.484 -0.1162 -0.5889  0.1240
   13DOPE   H2R 1573   2.785   2.481   9.594 -1.7938  0.4523  0.3452
   13DOPE   H2S 1574   2.874   2.539   9.448 -0.9115  0.4459 -0.6801
   13DOPE    C3 1575   2.658   2.903   9.303  0.3496  0.1285 -0.8859
   13DOPE    HX 1576   2.745   2.949   9.355 -0.3545  0.1873  0.2860
   13DOPE    HY 1577   2.596   2.993   9.284  0.6827  0.3559 -0.9028
   13DOPE   O31 1578   2.699   2.835   9.178  0.2021 -0.0278 -0.1701
   13DOPE   C31 1579   2.803   2.885   9.115  0.2093  0.1707 -0.2068
   13DOPE   O32 1580   2.846   2.998   9.126 -0.0383 -0.1870 -0.3644
   13DOPE   C32 1581   2.863   2.787   9.012 -0.3413 -0.1900 -0.7619
   13DOPE   H2X 1582   2.960   2.831   8.978  0.1054 -0.0428  0.6175
   13DOPE   H2Y 1583   2.877   2.692   9.067 -0.9544  0.7949  1.1889
   13DOPE   C23 1584   2.750   2.361   9.429  0.5530 -0.2289  0.7370
   13DOPE   H3R 1585   2.653   2.323   9.467  0.4134  1.8304  2.6723
   13DOPE   H3S 1586   2.820   2.292   9.481 -1.3587 -1.9714  1.1375
   13DOPE   C24 1587   2.781   2.349   9.275 -0.1425 -0.4506  0.0238
   13DOPE   H4R 1588   2.799   2.242   9.252 -1.5918 -0.3613 -1.7747
   13DOPE   H4S 1589   2.873   2.405   9.247 -1.3353  1.6168  0.0511
   13DOPE   C25 1590   2.669   2.399   9.178  0.2874 -0.1387 -0.1640
   13DOPE   H5R 1591   2.711   2.386   9.076  3.3416 -0.1492  0.9853
   13DOPE   H5S 1592   2.658   2.507   9.201  0.1018  0.0552 -1.1111
   13DOPE   C26 1593   2.533   2.327   9.197  0.2011  0.5257 -0.4842
   13DOPE   H6R 1594   2.485   2.379   9.283  0.8819  0.9406 -0.3505
   13DOPE   H6S 1595   2.550   2.219   9.216 -0.9158  0.1017 -1.7594
   13DOPE   C27 1596   2.450   2.330   9.071 -0.8400 -0.1503  0.2205
   13DOPE   H7R 1597   2.359   2.266   9.077 -0.5774 -0.5785 -0.2381
   13DOPE   H7S 1598   2.514   2.284   8.993 -1.4127 -2.4219  1.0021
   13DOPE   C28 1599   2.418   2.473   9.018  0.7345 -0.3804 -0.4264
   13DOPE   H8R 1600   2.363   2.465   8.922 -0.3731 -0.0131  0.1601
   13DOPE   H8S 1601   2.509   2.535   9.001  0.1048  1.2315  1.7016
   13DOPE   C29 1602   2.329   2.531   9.129 -0.8282  0.6055  0.1979
   13DOPE   H9R 1603   2.304   2.455   9.205 -1.0438  1.9956  1.5618
   13DOPE  C210 1604   2.265   2.641   9.130  0.5213  0.0943 -0.4806
   13DOPE  H10R 1605   2.211   2.672   9.220 -0.5735 -0.1216 -1.0451
   13DOPE  C211 1606   2.265   2.736   9.015  1.2928  0.4160 -0.1076
   13DOPE  H11R 1607   2.349   2.708   8.947  2.2344 -2.3640  1.9770
   13DOPE  H11S 1608   2.283   2.841   9.048 -2.1360  0.9285  0.4521
   13DOPE  C212 1609   2.136   2.731   8.937  0.4985 -0.3165 -0.0241
   13DOPE  H12R 1610   2.114   2.626   8.910  0.5546 -0.3106 -0.0916
   13DOPE  H12S 1611   2.155   2.787   8.843 -1.0776 -0.3161 -0.3728
   13DOPE  C213 1612   2.012   2.800   9.004  0.3561 -0.3709 -0.4091
   13DOPE  H13R 1613   2.042   2.891   9.061  0.7399 -0.6497 -0.1632
   13DOPE  H13S 1614   1.960   2.735   9.078  0.3361 -0.1374 -0.2170
   13DOPE  C214 1615   1.906   2.826   8.897 -0.1761  0.0237  0.2126
   13DOPE  H14R 1616   1.959   2.896   8.830 -1.1067 -0.6987 -1.3249
   13DOPE  H14S 1617   1.814   2.883   8.923 -0.8230  0.1858 -2.2611
   13DOPE  C215 1618   1.859   2.699   8.820 -0.3758  0.1184  0.1652
   13DOPE  H15R 1619   1.823   2.638   8.906  1.0104  1.8598  2.0950
   13DOPE  H15S 1620   1.938   2.636   8.775 -1.2103 -1.5269  0.9129
   13DOPE  C216 1621   1.747   2.716   8.714 -0.5229 -0.3751 -0.4993
   13DOPE  H16R 1622   1.678   2.799   8.738 -1.4094 -1.3875  0.5728
   13DOPE  H16S 1623   1.680   2.629   8.732 -0.3927  0.0172  2.3036
   13DOPE  C217 1624   1.805   2.718   8.570 -0.1020 -0.3917  0.7822
   13DOPE  H17R 1625   1.723   2.734   8.497 -1.4952  1.1039  2.5688
   13DOPE  H17S 1626   1.856   2.620   8.552 -0.6366 -0.3168 -1.3703
   13DOPE  C218 1627   1.913   2.829   8.549  0.3942 -0.3556 -0.3047
   13DOPE  H18R 1628   1.938   2.861   8.446  1.6856 -0.1103  0.0765
   13DOPE  H18S 1629   2.009   2.784   8.582 -0.2356 -1.1092  0.5704
   13DOPE  H18T 1630   1.891   2.917   8.614 -0.4912  1.1783 -2.5724
   13DOPE   C33 1631   2.767   2.742   8.902 -0.3439 -0.5783 -0.1172
   13DOPE   H3X 1632   2.770   2.829   8.832  2.3713  0.6589  1.3631
   13DOPE   H3Y 1633   2.672   2.726   8.957 -1.0898  1.3611 -0.7431
   13DOPE   C34 1634   2.812   2.620   8.828 -0.0612  0.9395  0.5278
   13DOPE   H4X 1635   2.919   2.617   8.797 -0.2334  0.0129 -0.0154
   13DOPE   H4Y 1636   2.807   2.530   8.892  2.1680 -0.6540 -1.3685
   13DOPE   C35 1637   2.714   2.597   8.707 -0.3962 -0.1580 -0.1238
   13DOPE   H5X 1638   2.707   2.683   8.637 -4.3409 -1.2807 -1.3793
   13DOPE   H5Y 1639   2.615   2.596   8.758 -0.7056  0.7238 -0.6855
   13DOPE   C36 1640   2.737   2.476   8.620 -0.6620  0.1729 -0.0351
   13DOPE   H6X 1641   2.651   2.468   8.550  0.1816 -3.0661 -0.8727
   13DOPE   H6Y 1642   2.738   2.381   8.677 -1.6682  0.6158  0.7324
   13DOPE   C37 1643   2.864   2.489   8.524 -0.0438 -0.0635 -1.0417
   13DOPE   H7X 1644   2.839   2.569   8.452  0.2202  0.4161 -0.6013
   13DOPE   H7Y 1645   2.958   2.522   8.572  0.3726  1.1452 -2.5880
   13DOPE   C38 1646   2.890   2.353   8.449  0.3780 -0.2458  0.4433
   13DOPE   H8X 1647   2.893   2.259   8.509 -1.1762 -1.0109 -0.6068
   13DOPE   H8Y 1648   2.989   2.362   8.400  0.1875  0.9480  0.2504
   13DOPE   C39 1649   2.781   2.320   8.355  0.1247  0.0957 -0.0602
   13DOPE   H9X 1650   2.693   2.281   8.408 -0.2747  1.2923  0.1921
   13DOPE  C310 1651   2.781   2.331   8.223 -0.0894  0.1294  0.1562
   13DOPE  H10X 1652   2.700   2.279   8.170  0.1763 -2.0382  1.7391
   13DOPE  C311 1653   2.894   2.372   8.133 -0.4475  1.0015 -0.1163
   13DOPE  H11X 1654   2.846   2.423   8.047  1.7914  0.5620 -1.7148
   13DOPE  H11Y 1655   2.975   2.428   8.185  2.1053 -0.7972 -1.9216
   13DOPE  C312 1656   2.966   2.252   8.067 -0.4514  0.1442  0.4586
   13DOPE  H12X 1657   3.022   2.281   7.976  0.0094  0.6001  0.8869
   13DOPE  H12Y 1658   2.892   2.176   8.033  1.0601 -1.1887  0.0830
   13DOPE  C313 1659   3.059   2.190   8.176 -0.2498  0.3808 -0.0986
   13DOPE  H13X 1660   3.133   2.268   8.203  2.5207 -1.0726 -2.8779
   13DOPE  H13Y 1661   2.997   2.148   8.258  0.8231  2.2586  1.7626
   13DOPE  C314 1662   3.159   2.076   8.132 -0.1949  0.1897 -0.0913
   13DOPE  H14X 1663   3.218   2.133   8.057 -2.1898  1.0148 -1.1202
   13DOPE  H14Y 1664   3.111   1.988   8.085 -3.3928  1.7112  0.0609
   13DOPE  C315 1665   3.258   2.035   8.248 -0.0239  0.2343 -0.0714
   13DOPE  H15X 1666   3.298   2.126   8.298 -0.8073  0.0678  0.8800
   13DOPE  H15Y 1667   3.348   1.983   8.209 -0.7511 -1.5040  0.4590
   13DOPE  C316 1668   3.196   1.960   8.369  0.3919  0.1014 -0.0739
   13DOPE  H16X 1669   3.149   1.865   8.334 -0.4365  0.7873 -0.8825
   13DOPE  H16Y 1670   3.122   2.027   8.419  0.9221  0.3842  0.3433
   13DOPE  C317 1671   3.305   1.931   8.474  1.4963  0.3241  0.1018
   13DOPE  H17X 1672   3.385   1.864   8.435 -0.2233 -1.1751 -0.9629
   13DOPE  H17Y 1673   3.354   2.024   8.509  1.8896 -0.3151  1.2942
   13DOPE  C318 1674   3.239   1.859   8.599  0.1389 -0.1476  0.6763
   13DOPE  H18X 1675   3.166   1.928   8.646  1.0127  0.2774  1.4326
   13DOPE  H18Y 1676   3.200   1.759   8.569 -3.3782  1.8249 -2.1584
   13DOPE  H18Z 1677   3.325   1.844   8.667  1.1570  0.3770 -0.4471
   14DOPE     N 1678   0.845   4.607   9.442  0.1472  0.2344 -0.7101
   14DOPE   HN1 1679   0.762   4.607   9.505  0.5063 -1.4183 -0.1800
   14DOPE   HN2 1680   0.866   4.708   9.431 -0.1414  0.3840  0.0614
   14DOPE   HN3 1681   0.817   4.568   9.350 -1.4134 -1.3477  0.3540
   14DOPE   C12 1682   0.955   4.520   9.507  0.1603  0.2778  0.4363
   14DOPE  H12A 1683   0.908   4.420   9.510 -0.2606  0.4449 -0.4007
   14DOPE  H12B 1684   0.978   4.554   9.611 -1.5851  0.0155  0.9361
   14DOPE   C11 1685   1.080   4.525   9.421 -0.2303 -0.2790  0.1494
   14DOPE  H11A 1686   1.063   4.486   9.318 -1.4179 -1.1056  0.6429
   14DOPE  H11B 1687   1.152   4.451   9.463  1.2652  2.5427  2.9830
   14DOPE     P 1688   1.265   4.695   9.486 -0.4144 -0.3753 -0.3281
   14DOPE   O13 1689   1.319   4.579   9.562 -0.5946 -0.0461  0.0477
   14DOPE   O14 1690   1.241   4.823   9.558 -0.2344  0.6850 -0.2928
   14DOPE   O11 1691   1.364   4.730   9.367 -0.1409 -0.7195  0.5366
   14DOPE   O12 1692   1.136   4.652   9.411  0.0514 -0.2268 -0.0240
   14DOPE    C1 1693   1.321   4.743   9.232 -0.2798 -0.8704  0.5267
   14DOPE    HA 1694   1.384   4.809   9.169 -0.8776 -1.1327 -0.3641
   14DOPE    HB 1695   1.217   4.784   9.232  0.9390  2.7268  3.3436
   14DOPE    C2 1696   1.323   4.606   9.160 -0.4107 -0.3117 -0.3196
   14DOPE    HS 1697   1.247   4.544   9.212 -0.3042  0.3661  0.6732
   14DOPE   O21 1698   1.466   4.557   9.175  0.1240 -0.0041 -0.3155
   14DOPE   C21 1699   1.483   4.424   9.173  0.0099 -0.0267 -0.5118
   14DOPE   O22 1700   1.392   4.341   9.165 -0.2819 -0.0235 -0.0355
   14DOPE   C22 1701   1.635   4.382   9.175 -0.5295  0.1473 -0.3834
   14DOPE   H2R 1702   1.691   4.422   9.263 -0.0514 -2.7978  0.7922
   14DOPE   H2S 1703   1.670   4.422   9.078 -1.5224  0.0481 -0.7997
   14DOPE    C3 1704   1.302   4.601   9.007 -0.0034 -1.0009  0.0127
   14DOPE    HX 1705   1.303   4.493   8.979 -1.5061 -1.2746  0.8934
   14DOPE    HY 1706   1.389   4.648   8.957  0.2960 -0.7803  0.7283
   14DOPE   O31 1707   1.180   4.655   8.952  1.1322 -0.0424  0.0332
   14DOPE   C31 1708   1.071   4.587   8.962  0.3118 -0.2498 -0.2562
   14DOPE   O32 1709   1.062   4.473   9.001  0.0498  0.5657 -0.3779
   14DOPE   C32 1710   0.950   4.665   8.907  0.5187  0.1179 -0.0652
   14DOPE   H2X 1711   0.906   4.721   8.993  2.8046 -0.8691  1.8577
   14DOPE   H2Y 1712   0.982   4.741   8.833 -1.2100  1.9269  0.9190
   14DOPE   C23 1713   1.656   4.229   9.193  0.0008  0.9348  0.2132
   14DOPE   H3R 1714   1.592   4.186   9.113 -0.1009  0.7220  0.4052
   14DOPE   H3S 1715   1.628   4.210   9.299 -1.1412  0.8169 -0.0961
   14DOPE   C24 1716   1.802   4.187   9.188 -0.0311 -0.2992  0.7380
   14DOPE   H4R 1717   1.849   4.234   9.277 -0.3939  0.6842  0.4240
   14DOPE   H4S 1718   1.852   4.229   9.097  0.2787  0.0937  1.0821
   14DOPE   C25 1719   1.837   4.046   9.197 -0.8893  0.0823  0.0801
   14DOPE   H5R 1720   1.788   3.991   9.115 -3.4131  1.2429  0.7249
   14DOPE   H5S 1721   1.800   4.019   9.298  0.8644  1.1827  1.0795
   14DOPE   C26 1722   1.994   4.014   9.194  0.4735  0.1290  0.0174
   14DOPE   H6R 1723   2.024   3.908   9.209 -2.1876 -1.5497 -4.4099
   14DOPE   H6S 1724   2.036   4.075   9.276  3.1862 -2.2577  0.5743
   14DOPE   C27 1725   2.070   4.056   9.072 -0.1345 -0.5385 -0.1130
   14DOPE   H7R 1726   2.057   4.165   9.056 -2.6024 -0.8895 -1.0184
   14DOPE   H7S 1727   2.015   4.006   8.989 -0.3564 -1.4214  0.5501
   14DOPE   C28 1728   2.220   4.015   9.079  0.5187  0.4375 -0.2330
   14DOPE   H8R 1729   2.249   4.017   8.972 -0.6438 -1.8822 -0.6820
   14DOPE   H8S 1730   2.243   3.908   9.102 -1.3865  0.0604  0.0819
   14DOPE   C29 1731   2.310   4.107   9.156 -0.2243 -0.3407 -0.0421
   14DOPE   H9R 1732   2.269   4.157   9.245 -1.5495  0.7147 -1.1994
   14DOPE  C210 1733   2.441   4.124   9.125 -0.2211  0.5880 -0.6188
   14DOPE  H10R 1734   2.503   4.186   9.192  0.9176 -0.0304 -1.0587
   14DOPE  C211 1735   2.514   4.069   9.004 -0.2377  0.4634  0.3522
   14DOPE  H11R 1736   2.454   4.018   8.927  0.1492 -0.8029  0.8676
   14DOPE  H11S 1737   2.588   4.000   9.051  0.1972  1.0938  0.6280
   14DOPE  C212 1738   2.588   4.196   8.948  0.8406 -0.2365  0.4908
   14DOPE  H12R 1739   2.651   4.246   9.024  1.9604 -1.7633  0.6150
   14DOPE  H12S 1740   2.511   4.266   8.911  2.6372  1.5749  0.0314
   14DOPE  C213 1741   2.681   4.174   8.830 -0.0663  0.3387  0.0672
   14DOPE  H13R 1742   2.624   4.133   8.744  1.0891  0.0662 -0.5869
   14DOPE  H13S 1743   2.744   4.088   8.863 -2.5750 -1.0333  1.5774
   14DOPE  C214 1744   2.763   4.303   8.787 -0.0052  0.3723 -0.6809
   14DOPE  H14R 1745   2.837   4.321   8.868  0.5702 -2.4340 -0.4811
   14DOPE  H14S 1746   2.695   4.390   8.777  0.5169  0.6953 -1.4786
   14DOPE  C215 1747   2.839   4.283   8.658  0.1193  0.7209  0.2221
   14DOPE  H15R 1748   2.876   4.178   8.663 -0.4559  0.5235  0.3538
   14DOPE  H15S 1749   2.924   4.355   8.663  0.1437  0.7535 -0.5402
   14DOPE  C216 1750   2.743   4.282   8.533 -0.0156  0.3403  0.3580
   14DOPE  H16R 1751   2.675   4.369   8.552 -0.7394  0.2595 -1.5746
   14DOPE  H16S 1752   2.678   4.192   8.538  0.8150 -0.2489  0.7758
   14DOPE  C217 1753   2.807   4.279   8.396 -0.5277  0.0879 -0.2715
   14DOPE  H17R 1754   2.730   4.262   8.317 -0.5164 -2.3317  0.1508
   14DOPE  H17S 1755   2.872   4.189   8.400 -0.6310 -0.1464 -2.5744
   14DOPE  C218 1756   2.878   4.408   8.361 -0.2537  0.2956  0.2982
   14DOPE  H18R 1757   2.906   4.419   8.254  0.4737  1.3890  0.5972
   14DOPE  H18S 1758   2.975   4.412   8.414 -1.1412 -0.0656  2.0381
   14DOPE  H18T 1759   2.809   4.491   8.386 -2.2919 -1.2615  0.1167
   14DOPE   C33 1760   0.835   4.578   8.855  0.3932  0.6106  1.0019
   14DOPE   H3X 1761   0.793   4.510   8.933 -1.9407  0.4653 -0.2873
   14DOPE   H3Y 1762   0.871   4.509   8.776 -1.4464 -0.0609  0.7008
   14DOPE   C34 1763   0.714   4.660   8.804 -0.5604 -0.3954  0.2973
   14DOPE   H4X 1764   0.636   4.592   8.765 -1.6455  0.4684  0.9174
   14DOPE   H4Y 1765   0.682   4.707   8.899 -1.7112 -0.7738  0.1024
   14DOPE   C35 1766   0.748   4.779   8.706 -0.6515 -0.1201 -0.2132
   14DOPE   H5X 1767   0.810   4.736   8.624 -1.9561  0.0823 -1.3279
   14DOPE   H5Y 1768   0.811   4.858   8.753  0.1022 -0.8668  0.0589
   14DOPE   C36 1769   0.623   4.836   8.648  1.0228  0.4016  0.7834
   14DOPE   H6X 1770   0.645   4.942   8.625  0.8366  0.0100 -1.3871
   14DOPE   H6Y 1771   0.542   4.822   8.724  1.2278 -3.3913  0.5150
   14DOPE   C37 1772   0.578   4.762   8.520 -0.2551 -0.4402 -0.6554
   14DOPE   H7X 1773   0.666   4.758   8.452  0.4597 -0.7476  0.2567
   14DOPE   H7Y 1774   0.564   4.659   8.560  0.1519  0.3559  1.6838
   14DOPE   C38 1775   0.450   4.816   8.449 -0.5621 -0.4449  0.0690
   14DOPE   H8X 1776   0.477   4.922   8.430  3.3253 -1.5909 -1.9108
   14DOPE   H8Y 1777   0.357   4.816   8.510 -1.6565  1.9362 -1.4915
   14DOPE   C39 1778   0.431   4.747   8.313 -0.6565 -0.1926  0.4610
   14DOPE   H9X 1779   0.436   4.637   8.318 -0.2577 -0.2467 -0.8807
   14DOPE  C310 1780   0.437   4.797   8.186  0.6064  0.2502 -0.3263
   14DOPE  H10X 1781   0.413   4.724   8.107  0.1296 -1.1059  1.0329
   14DOPE  C311 1782   0.452   4.935   8.133 -0.3694  0.2536  0.1538
   14DOPE  H11X 1783   0.350   4.972   8.113 -0.7348  0.9134  2.8886
   14DOPE  H11Y 1784   0.488   5.001   8.215  2.5723 -1.0926  0.0837
   14DOPE  C312 1785   0.532   4.940   8.003 -0.0953 -0.5015  0.2117
   14DOPE  H12X 1786   0.488   4.870   7.928 -0.5422  1.2611 -1.2451
   14DOPE  H12Y 1787   0.635   4.902   8.020  0.7750  1.9074  0.7476
   14DOPE  C313 1788   0.530   5.078   7.935  0.2450  0.6348 -0.3630
   14DOPE  H13X 1789   0.428   5.118   7.916 -0.5511 -0.4140  1.4562
   14DOPE  H13Y 1790   0.579   5.144   8.010 -2.4674  0.7396  1.4344
   14DOPE  C314 1791   0.618   5.081   7.804  0.1348  0.1744  0.6890
   14DOPE  H14X 1792   0.697   5.002   7.804  1.6275  1.5289 -1.9112
   14DOPE  H14Y 1793   0.668   5.178   7.784  0.3617  0.0194  0.4881
   14DOPE  C315 1794   0.528   5.051   7.685 -0.0160  0.0587  0.0366
   14DOPE  H15X 1795   0.439   5.113   7.708 -0.8758 -0.9669 -0.4791
   14DOPE  H15Y 1796   0.499   4.945   7.669 -0.5669  0.3813 -1.2013
   14DOPE  C316 1797   0.586   5.111   7.558 -0.2955  0.2083  1.0986
   14DOPE  H16X 1798   0.683   5.064   7.532 -1.5105 -1.3609 -0.9102
   14DOPE  H16Y 1799   0.614   5.217   7.572  0.1154  0.2438  0.0888
   14DOPE  C317 1800   0.522   5.102   7.417  0.1945  0.2281  0.7390
   14DOPE  H17X 1801   0.488   4.998   7.400  2.0477 -0.2578 -0.2436
   14DOPE  H17Y 1802   0.426   5.158   7.420 -1.2554 -2.1115  0.6454
   14DOPE  C318 1803   0.606   5.157   7.305 -0.3704  0.1675 -0.0632
   14DOPE  H18X 1804   0.607   5.268   7.316 -0.4394 -0.0584  3.8454
   14DOPE  H18Y 1805   0.710   5.119   7.316  0.3036  1.6565 -0.9907
   14DOPE  H18Z 1806   0.563   5.131   7.207  2.1451 -2.0270 -0.6969
   15DOPE     N 1807   0.919   1.275   9.571  0.2977  0.6295  0.0825
   15DOPE   HN1 1808   1.014   1.238   9.549 -0.2734 -0.5561 -0.4772
   15DOPE   HN2 1809   0.917   1.323   9.664  1.3392  0.5957  0.1300
   15DOPE   HN3 1810   0.844   1.204   9.579  0.6592  0.1504 -0.7520
   15DOPE   C12 1811   0.894   1.383   9.473 -0.0624  0.1451  0.0036
   15DOPE  H12A 1812   0.796   1.431   9.491 -0.2030 -0.3960  0.7405
   15DOPE  H12B 1813   0.882   1.325   9.379 -1.7589 -1.4876  1.1298
   15DOPE   C11 1814   1.020   1.468   9.453  0.5125 -0.0888 -0.0749
   15DOPE  H11A 1815   1.047   1.549   9.524  2.8422 -1.3400  0.5719
   15DOPE  H11B 1816   1.007   1.516   9.353  2.6150  0.9607  0.0886
   15DOPE     P 1817   1.284   1.428   9.441 -0.3102 -0.0096  0.1865
   15DOPE   O13 1818   1.360   1.333   9.350 -0.2884  0.1847  0.0864
   15DOPE   O14 1819   1.342   1.450   9.569 -0.1589  0.0392  0.2441
   15DOPE   O11 1820   1.280   1.572   9.378 -0.4402 -0.8089  0.4870
   15DOPE   O12 1821   1.132   1.385   9.453 -0.0889 -0.3274  0.2988
   15DOPE    C1 1822   1.286   1.595   9.236  0.6999  0.2585 -0.0953
   15DOPE    HA 1823   1.220   1.520   9.188 -1.0203  0.9143  1.1142
   15DOPE    HB 1824   1.384   1.560   9.198 -0.6056  0.1578 -3.6926
   15DOPE    C2 1825   1.259   1.749   9.199  0.1629  0.0716 -0.9323
   15DOPE    HS 1826   1.335   1.806   9.257 -1.4548  0.9575  0.4201
   15DOPE   O21 1827   1.123   1.789   9.240 -0.2402 -0.0239  0.4929
   15DOPE   C21 1828   1.116   1.910   9.281  0.2352 -0.3063 -0.2735
   15DOPE   O22 1829   1.201   1.989   9.314 -0.0338  0.7879 -0.1529
   15DOPE   C22 1830   0.966   1.950   9.276  0.5929 -0.1554 -0.2600
   15DOPE   H2R 1831   0.964   2.046   9.333  2.0546  0.0830 -0.5731
   15DOPE   H2S 1832   0.898   1.879   9.327 -1.7398  1.7262 -0.5650
   15DOPE    C3 1833   1.274   1.767   9.052  0.2889  0.4120  0.0116
   15DOPE    HX 1834   1.287   1.876   9.031  1.1937  0.4329  0.6185
   15DOPE    HY 1835   1.184   1.720   9.009  1.7676 -3.3918  0.7144
   15DOPE   O31 1836   1.389   1.691   9.011  0.1139 -0.0053  0.1088
   15DOPE   C31 1837   1.513   1.740   9.019  0.3232  0.3248  0.2926
   15DOPE   O32 1838   1.547   1.852   9.055  0.6503 -0.4123  0.1597
   15DOPE   C32 1839   1.609   1.640   8.956  0.2442 -0.4535 -0.4441
   15DOPE   H2X 1840   1.692   1.632   9.029 -0.2208  0.9712  0.2943
   15DOPE   H2Y 1841   1.570   1.538   8.935 -1.2865 -0.1601  0.7938
   15DOPE   C23 1842   0.925   1.968   9.136  0.5159 -0.1379 -0.0671
   15DOPE   H3R 1843   0.929   1.883   9.065 -2.0863 -0.2675 -0.1901
   15DOPE   H3S 1844   0.991   2.042   9.086  0.5838  0.5979  1.0614
   15DOPE   C24 1845   0.778   2.018   9.122 -0.7742 -0.1149  0.2059
   15DOPE   H4R 1846   0.776   2.119   9.168 -0.5747 -1.0848  2.4999
   15DOPE   H4S 1847   0.701   1.946   9.157 -1.4328  0.0340 -0.8937
   15DOPE   C25 1848   0.742   2.035   8.972  0.5156  0.3786 -0.2398
   15DOPE   H5R 1849   0.759   1.940   8.918 -1.0909  0.4589 -0.9464
   15DOPE   H5S 1850   0.809   2.114   8.932  1.3602 -0.2260 -0.0524
   15DOPE   C26 1851   0.592   2.065   8.947  0.2668  0.9082  0.1595
   15DOPE   H6R 1852   0.565   2.160   8.998 -0.7075  1.4176 -1.2637
   15DOPE   H6S 1853   0.523   1.989   8.989 -1.8792  2.3477 -0.6265
   15DOPE   C27 1854   0.557   2.087   8.805  0.1381 -0.1494  0.2267
   15DOPE   H7R 1855   0.446   2.098   8.798  0.2100  1.5705  1.1111
   15DOPE   H7S 1856   0.590   2.002   8.743  0.4781 -0.3256  0.6445
   15DOPE   C28 1857   0.623   2.216   8.739 -0.0266 -0.4789 -0.3456
   15DOPE   H8R 1858   0.729   2.190   8.719  0.3982  2.3968 -2.5753
   15DOPE   H8S 1859   0.630   2.296   8.816 -1.3799 -1.2124  0.5911
   15DOPE   C29 1860   0.544   2.258   8.619 -0.0469  0.6926 -0.3441
   15DOPE   H9R 1861   0.445   2.306   8.626 -0.3751 -0.1609  1.1497
   15DOPE  C210 1862   0.601   2.237   8.495 -0.5843  0.0884  0.5437
   15DOPE  H10R 1863   0.543   2.252   8.403  3.3078  1.4712 -1.9552
   15DOPE  C211 1864   0.732   2.169   8.459  0.6318  0.1824 -0.1129
   15DOPE  H11R 1865   0.790   2.143   8.550 -0.8593 -1.0800  0.5383
   15DOPE  H11S 1866   0.805   2.233   8.406  1.2176  0.4490  0.9947
   15DOPE  C212 1867   0.715   2.038   8.374 -0.2940 -0.4795  0.2294
   15DOPE  H12R 1868   0.804   1.972   8.371  0.9283  1.1403 -0.8053
   15DOPE  H12S 1869   0.703   2.061   8.266 -0.2125 -1.4397  0.0065
   15DOPE  C213 1870   0.599   1.949   8.408 -0.0211  0.1761 -0.5863
   15DOPE  H13R 1871   0.502   2.000   8.390  0.5447  1.3093 -0.4941
   15DOPE  H13S 1872   0.592   1.933   8.518  0.2588  0.6535 -0.4975
   15DOPE  C214 1873   0.599   1.817   8.336 -0.2230  0.6624  0.7006
   15DOPE  H14R 1874   0.534   1.745   8.390 -1.8565  2.2657  0.9587
   15DOPE  H14S 1875   0.702   1.777   8.320 -1.1175 -1.5480  0.1141
   15DOPE  C215 1876   0.559   1.809   8.192 -0.0839  0.0776 -0.1102
   15DOPE  H15R 1877   0.638   1.849   8.124  0.3256  0.5619  0.6403
   15DOPE  H15S 1878   0.467   1.868   8.172 -0.8982 -0.7809  0.9673
   15DOPE  C216 1879   0.532   1.659   8.159 -0.1415  0.1242 -0.0066
   15DOPE  H16R 1880   0.454   1.612   8.222  1.1195 -0.6641  1.0266
   15DOPE  H16S 1881   0.626   1.602   8.173  0.2787  0.2311 -2.0183
   15DOPE  C217 1882   0.494   1.643   8.010  0.1424  0.7736 -0.5371
   15DOPE  H17R 1883   0.471   1.535   7.995 -1.0017  1.0358 -0.6870
   15DOPE  H17S 1884   0.587   1.671   7.954  3.8176 -3.7087  2.5020
   15DOPE  C218 1885   0.358   1.710   7.965 -1.0773 -0.0954  0.3596
   15DOPE  H18R 1886   0.369   1.820   7.973  0.6627 -0.1798 -0.3102
   15DOPE  H18S 1887   0.271   1.676   8.025 -0.4072  0.4897  1.7164
   15DOPE  H18T 1888   0.328   1.674   7.865 -3.4137  0.6486  0.7451
   15DOPE   C33 1889   1.670   1.708   8.835  0.0174  0.0121 -0.1086
   15DOPE   H3X 1890   1.691   1.813   8.865 -1.5733  0.7043 -1.3205
   15DOPE   H3Y 1891   1.602   1.708   8.748 -1.5110  1.0585  1.0314
   15DOPE   C34 1892   1.798   1.628   8.796  0.4037  0.1502 -0.0266
   15DOPE   H4X 1893   1.863   1.609   8.884 -0.6903 -2.8867  0.2687
   15DOPE   H4Y 1894   1.767   1.530   8.754  1.1318 -0.6059  1.1268
   15DOPE   C35 1895   1.875   1.707   8.691  0.5808  0.4535 -0.0254
   15DOPE   H5X 1896   1.887   1.812   8.726  1.8424  0.6168 -0.8483
   15DOPE   H5Y 1897   1.802   1.713   8.607 -0.7845 -0.5430  1.0511
   15DOPE   C36 1898   2.015   1.656   8.650  0.1053  0.0757  0.4299
   15DOPE   H6X 1899   2.016   1.548   8.621 -1.6120  0.0224  0.4392
   15DOPE   H6Y 1900   2.089   1.672   8.731  1.1405  1.4058 -0.7232
   15DOPE   C37 1901   2.082   1.739   8.540 -0.2075  0.3754  0.6647
   15DOPE   H7X 1902   2.055   1.847   8.542  0.9645  0.7451 -0.9719
   15DOPE   H7Y 1903   2.193   1.735   8.545 -0.2694 -0.8970  1.6361
   15DOPE   C38 1904   2.029   1.714   8.397 -0.1443  0.0269 -0.1359
   15DOPE   H8X 1905   1.929   1.761   8.391 -0.3069 -0.1935  0.7062
   15DOPE   H8Y 1906   1.999   1.607   8.395 -0.1610  0.0451 -1.0765
   15DOPE   C39 1907   2.115   1.758   8.283 -0.7383  0.1413 -0.3609
   15DOPE   H9X 1908   2.094   1.859   8.245  1.7193  0.6407 -0.5430
   15DOPE  C310 1909   2.242   1.706   8.250  0.1370  0.0843  0.1858
   15DOPE  H10X 1910   2.287   1.741   8.156 -0.9316  2.2703  0.4520
   15DOPE  C311 1911   2.304   1.589   8.314  0.0338 -0.3039 -0.5274
   15DOPE  H11X 1912   2.412   1.608   8.331 -0.4728  2.3542  0.0608
   15DOPE  H11Y 1913   2.254   1.574   8.412 -1.0983  3.8290 -0.2990
   15DOPE  C312 1914   2.288   1.457   8.229 -0.1588 -0.1846 -0.6273
   15DOPE  H12X 1915   2.178   1.442   8.222 -0.1734 -0.5836  0.3738
   15DOPE  H12Y 1916   2.342   1.367   8.267  1.9460  1.2013 -0.1367
   15DOPE  C313 1917   2.346   1.489   8.098 -0.0385  0.5931  0.2445
   15DOPE  H13X 1918   2.292   1.566   8.038 -1.9807 -0.1878  0.9143
   15DOPE  H13Y 1919   2.451   1.523   8.111 -0.2829  1.5723 -0.1977
   15DOPE  C314 1920   2.362   1.363   8.005 -0.1763 -1.0189 -0.0674
   15DOPE  H14X 1921   2.262   1.318   7.986  1.0122 -2.8676 -2.5526
   15DOPE  H14Y 1922   2.424   1.291   8.061  0.7987 -0.8576 -0.9211
   15DOPE  C315 1923   2.424   1.395   7.870  0.1097  0.2155 -0.1634
   15DOPE  H15X 1924   2.516   1.457   7.881  0.9607 -0.3162 -3.1637
   15DOPE  H15Y 1925   2.350   1.448   7.807 -0.0231  0.4249  0.1677
   15DOPE  C316 1926   2.467   1.261   7.793 -0.6547 -0.0220  0.0358
   15DOPE  H16X 1927   2.535   1.204   7.859  0.3662  0.9405 -0.1532
   15DOPE  H16Y 1928   2.522   1.280   7.698 -1.6563 -2.2986 -1.0829
   15DOPE  C317 1929   2.343   1.182   7.756 -0.4607  0.0784 -0.5164
   15DOPE  H17X 1930   2.268   1.176   7.838  0.4716 -1.3798  0.2743
   15DOPE  H17Y 1931   2.291   1.229   7.670 -0.4886  1.5800  0.2967
   15DOPE  C318 1932   2.386   1.042   7.718  0.5400  0.0461 -0.0172
   15DOPE  H18X 1933   2.438   0.990   7.802 -1.5218  0.6180  1.7343
   15DOPE  H18Y 1934   2.295   0.980   7.700  0.2141  0.0788  1.3417
   15DOPE  H18Z 1935   2.460   1.040   7.636  1.0104  0.6209  0.3907
   16DOPE     N 1936   1.023   3.063   9.710 -0.2150  0.3035 -0.2688
   16DOPE   HN1 1937   1.077   2.981   9.677 -0.4483 -0.3041  0.8351
   16DOPE   HN2 1938   1.093   3.140   9.714 -0.7739  0.7573  1.7770
   16DOPE   HN3 1939   0.977   3.047   9.801 -0.5002  0.7496 -0.3320
   16DOPE   C12 1940   0.909   3.094   9.623  0.7459 -0.2569 -0.1057
   16DOPE  H12A 1941   0.828   3.135   9.687  0.5018 -1.3915  0.3370
   16DOPE  H12B 1942   0.865   3.002   9.580 -0.7225  1.4777 -2.5137
   16DOPE   C11 1943   0.943   3.195   9.515  0.1910  0.7294 -0.3611
   16DOPE  H11A 1944   0.852   3.209   9.453 -1.3853 -1.5790  1.2464
   16DOPE  H11B 1945   1.025   3.148   9.455  1.7811  2.5361  0.2964
   16DOPE     P 1946   0.900   3.435   9.608  0.4743 -0.7235 -0.1617
   16DOPE   O13 1947   0.977   3.540   9.678  0.4719 -0.3450  0.2718
   16DOPE   O14 1948   0.791   3.367   9.688  0.5083  0.4352  0.1713
   16DOPE   O11 1949   0.828   3.492   9.479  0.0178  0.5902  0.3874
   16DOPE   O12 1950   1.000   3.321   9.560  0.0995  0.0091  0.2055
   16DOPE    C1 1951   0.898   3.509   9.358  0.6206 -0.4929  1.0750
   16DOPE    HA 1952   0.983   3.437   9.347  0.3458 -1.0034  2.1550
   16DOPE    HB 1953   0.944   3.610   9.361  1.5156 -0.9035  1.6149
   16DOPE    C2 1954   0.803   3.499   9.232 -0.7625 -0.2782 -0.0657
   16DOPE    HS 1955   0.722   3.573   9.246 -0.8151 -0.5541  1.2121
   16DOPE   O21 1956   0.750   3.364   9.219  0.1304  0.2850 -0.6596
   16DOPE   C21 1957   0.624   3.338   9.274  0.5714 -0.1755  0.0932
   16DOPE   O22 1958   0.542   3.420   9.317 -0.2775 -0.3795 -0.2385
   16DOPE   C22 1959   0.611   3.189   9.261 -0.7508 -0.7117  0.1729
   16DOPE   H2R 1960   0.644   3.152   9.361 -0.1947 -1.3806 -0.2433
   16DOPE   H2S 1961   0.687   3.150   9.190  1.4006  0.0719  1.9062
   16DOPE    C3 1962   0.880   3.539   9.101 -1.4740 -0.1006 -0.0536
   16DOPE    HX 1963   0.820   3.524   9.009 -0.2885  1.6993 -1.1820
   16DOPE    HY 1964   0.966   3.470   9.095 -1.7214 -0.7238  2.4477
   16DOPE   O31 1965   0.912   3.683   9.116  0.3071  0.3084  0.7375
   16DOPE   C31 1966   0.811   3.758   9.080  0.0564 -0.1519  0.6433
   16DOPE   O32 1967   0.695   3.727   9.051  0.3222 -0.2613 -0.6454
   16DOPE   C32 1968   0.860   3.906   9.093 -0.2829  0.3271 -0.2271
   16DOPE   H2X 1969   0.790   3.953   9.165  1.0867  1.0257  0.6882
   16DOPE   H2Y 1970   0.963   3.895   9.132  1.1184 -1.6598 -3.9558
   16DOPE   C23 1971   0.471   3.140   9.217 -0.2917 -0.8984 -0.5729
   16DOPE   H3R 1972   0.398   3.210   9.261  1.6132  0.8490 -0.0280
   16DOPE   H3S 1973   0.448   3.043   9.267  1.9323 -0.8607  0.6465
   16DOPE   C24 1974   0.451   3.134   9.066  0.0638 -0.4045  0.3498
   16DOPE   H4R 1975   0.513   3.047   9.036 -0.1791 -0.6691  0.6150
   16DOPE   H4S 1976   0.489   3.230   9.025  1.2466 -1.5147 -1.2703
   16DOPE   C25 1977   0.309   3.113   9.017  0.0192  0.1429 -0.3407
   16DOPE   H5R 1978   0.280   3.017   9.064  2.9986 -1.7254 -1.9276
   16DOPE   H5S 1979   0.314   3.109   8.906  6.3914 -1.2691 -0.4218
   16DOPE   C26 1980   0.211   3.221   9.066 -1.1197  0.0818  0.2047
   16DOPE   H6R 1981   0.257   3.323   9.068  2.0667 -1.2508  1.1519
   16DOPE   H6S 1982   0.187   3.191   9.170 -3.9093  0.4153 -0.2777
   16DOPE   C27 1983   0.086   3.215   8.978  0.0170  0.5509 -0.1135
   16DOPE   H7R 1984   0.051   3.110   8.966 -2.9597  1.2714  1.4301
   16DOPE   H7S 1985   0.120   3.252   8.879  1.9500 -1.6535 -0.3635
   16DOPE   C28 1986  -0.030   3.297   9.037 -0.7597 -0.5668  0.3075
   16DOPE   H8R 1987  -0.064   3.262   9.136 -0.6158  0.2453  0.6486
   16DOPE   H8S 1988  -0.111   3.293   8.961 -0.2238 -1.8884 -0.2214
   16DOPE   C29 1989   0.015   3.440   9.067  0.8113  0.7226 -0.3597
   16DOPE   H9R 1990   0.065   3.457   9.163  0.4033  0.0237 -0.0142
   16DOPE  C210 1991  -0.029   3.547   8.995  0.2004  0.3761 -0.3372
   16DOPE  H10R 1992   0.030   3.637   9.020  0.0990  0.6288 -0.9865
   16DOPE  C211 1993  -0.113   3.544   8.874 -0.8292  0.3095  0.1166
   16DOPE  H11R 1994  -0.174   3.636   8.860 -0.7712  0.7146  2.2006
   16DOPE  H11S 1995  -0.179   3.455   8.874  2.3068 -2.2047  0.8069
   16DOPE  C212 1996  -0.030   3.535   8.740  0.7559 -0.3088 -0.2147
   16DOPE  H12R 1997   0.046   3.456   8.752  1.7481  0.5971 -0.4016
   16DOPE  H12S 1998   0.031   3.626   8.724  1.6107 -1.0123 -1.0430
   16DOPE  C213 1999  -0.112   3.505   8.613  0.0273  0.4468 -0.3586
   16DOPE  H13R 2000  -0.209   3.559   8.608 -1.0529 -1.5588 -2.5530
   16DOPE  H13S 2001  -0.126   3.396   8.626  2.7577  0.2278  1.8675
   16DOPE  C214 2002  -0.034   3.551   8.489 -0.4562  0.0082  0.3792
   16DOPE  H14R 2003   0.064   3.499   8.492  0.8548  1.9976 -2.4267
   16DOPE  H14S 2004  -0.015   3.659   8.505  0.5803  0.0695 -1.0334
   16DOPE  C215 2005  -0.107   3.514   8.361  0.0695 -0.1390 -0.6884
   16DOPE  H15R 2006  -0.195   3.580   8.342  0.8393  0.7345 -1.2968
   16DOPE  H15S 2007  -0.147   3.411   8.369  1.9408 -0.9964 -1.7866
   16DOPE  C216 2008  -0.023   3.534   8.234 -0.7683 -0.0849 -0.0304
   16DOPE  H16R 2009   0.065   3.469   8.254 -1.6011 -1.2748 -0.1192
   16DOPE  H16S 2010   0.023   3.634   8.225  1.9251 -1.0651  1.6424
   16DOPE  C217 2011  -0.099   3.501   8.107 -0.2141 -0.3713 -0.0989
   16DOPE  H17R 2012  -0.196   3.554   8.109  0.1528  0.3322 -0.6841
   16DOPE  H17S 2013  -0.127   3.394   8.102 -1.1172 -0.1591  0.2438
   16DOPE  C218 2014  -0.024   3.534   7.969 -0.0524  0.0396 -0.1122
   16DOPE  H18R 2015  -0.000   3.642   7.967  0.1548  0.0164  0.8255
   16DOPE  H18S 2016  -0.093   3.513   7.884  0.0571 -0.2061 -0.1420
   16DOPE  H18T 2017   0.069   3.473   7.964 -0.3040 -0.4681  1.0849
   16DOPE   C33 2018   0.854   3.974   8.957  0.0086 -0.3170 -0.0562
   16DOPE   H3X 2019   0.883   4.080   8.977  1.8517 -0.9320  0.8453
   16DOPE   H3Y 2020   0.757   3.962   8.905 -0.0877  0.5190 -0.0866
   16DOPE   C34 2021   0.968   3.923   8.864  0.1719  0.0623  1.2358
   16DOPE   H4X 2022   1.073   3.925   8.902 -0.0873 -2.0389  2.1756
   16DOPE   H4Y 2023   0.952   3.822   8.823 -0.4429  0.9096 -0.7166
   16DOPE   C35 2024   0.967   4.018   8.741  0.5622  0.0708 -0.2125
   16DOPE   H5X 2025   1.004   4.121   8.757 -2.3378  1.4346 -1.6156
   16DOPE   H5Y 2026   0.866   4.015   8.695  0.3189 -1.2526  0.3470
   16DOPE   C36 2027   1.056   3.963   8.626  0.4737  0.1946  0.9220
   16DOPE   H6X 2028   1.014   3.871   8.580 -1.3280  1.0526  0.7428
   16DOPE   H6Y 2029   1.157   3.933   8.659  0.7339  1.1708  1.0461
   16DOPE   C37 2030   1.061   4.071   8.514  0.4494  0.2460  0.6587
   16DOPE   H7X 2031   0.958   4.107   8.489 -0.3292 -1.0323  1.8575
   16DOPE   H7Y 2032   1.119   4.160   8.544  0.8196  0.5933 -0.9803
   16DOPE   C38 2033   1.110   4.005   8.385  0.4303 -0.5568  0.0870
   16DOPE   H8X 2034   1.085   4.079   8.305  1.9155  0.5651  0.6045
   16DOPE   H8Y 2035   1.059   3.909   8.362  0.5539 -0.6296  0.1179
   16DOPE   C39 2036   1.257   3.994   8.385  0.0593 -0.5457  0.1761
   16DOPE   H9X 2037   1.305   3.937   8.466  0.9211  0.2795  0.2525
   16DOPE  C310 2038   1.336   4.065   8.303 -0.5544 -0.2469  0.3927
   16DOPE  H10X 2039   1.445   4.051   8.304 -0.5675 -0.4521 -0.5229
   16DOPE  C311 2040   1.288   4.168   8.197  0.7815 -0.1335 -0.6274
   16DOPE  H11X 2041   1.211   4.111   8.142  0.2620 -1.4282  1.3619
   16DOPE  H11Y 2042   1.230   4.253   8.238 -3.2284 -1.7104 -2.4771
   16DOPE  C312 2043   1.390   4.189   8.085 -0.0386  0.2431  0.0363
   16DOPE  H12X 2044   1.420   4.088   8.050  3.0028  1.6026 -1.7166
   16DOPE  H12Y 2045   1.488   4.235   8.109  0.2625  0.3428 -1.2982
   16DOPE  C313 2046   1.324   4.257   7.957 -0.1427 -0.5924 -0.2710
   16DOPE  H13X 2047   1.230   4.205   7.930 -0.6057  0.3994 -0.6085
   16DOPE  H13Y 2048   1.290   4.357   7.991 -0.2431 -0.8542  0.4321
   16DOPE  C314 2049   1.420   4.254   7.836 -0.1471  0.3299 -0.5488
   16DOPE  H14X 2050   1.475   4.157   7.841 -0.0951  0.4248  1.3892
   16DOPE  H14Y 2051   1.500   4.329   7.847 -0.2978  0.3614  0.3779
   16DOPE  C315 2052   1.359   4.268   7.699  0.3611 -0.1813 -0.7747
   16DOPE  H15X 2053   1.345   4.378   7.695  0.8049 -0.1522 -1.8240
   16DOPE  H15Y 2054   1.264   4.213   7.680 -0.5413  1.7445 -2.3632
   16DOPE  C316 2055   1.457   4.240   7.584  0.2467 -1.1918  0.4968
   16DOPE  H16X 2056   1.555   4.284   7.610  0.0420  1.9380 -3.0862
   16DOPE  H16Y 2057   1.427   4.309   7.502  2.2630  0.4331  1.0477
   16DOPE  C317 2058   1.452   4.098   7.537 -0.0583  0.3317  0.3664
   16DOPE  H17X 2059   1.471   4.024   7.617  1.1390 -3.3392 -2.9578
   16DOPE  H17Y 2060   1.352   4.069   7.498  0.8409 -1.9184 -0.4288
   16DOPE  C318 2061   1.542   4.067   7.419 -0.4570  0.0516 -0.2850
   16DOPE  H18X 2062   1.547   3.961   7.387  0.1232  0.2834 -0.9996
   16DOPE  H18Y 2063   1.494   4.123   7.336 -2.3759 -0.7729  0.2383
   16DOPE  H18Z 2064   1.640   4.118   7.435 -0.4260  0.4320 -1.6098
   17DOPE     N 2065   2.662   7.734   9.703  0.0262  0.5860 -0.3068
   17DOPE   HN1 2066   2.593   7.793   9.754 -2.2768 -0.7896 -1.6477
   17DOPE   HN2 2067   2.685   7.646   9.752 -1.5434 -0.1439 -0.8125
   17DOPE   HN3 2068   2.748   7.792   9.692 -0.2950  1.0826 -0.2365
   17DOPE   C12 2069   2.607   7.718   9.566  0.3675 -0.5819 -0.2342
   17DOPE  H12A 2070   2.698   7.686   9.510  2.0145 -0.0943  2.0199
   17DOPE  H12B 2071   2.578   7.817   9.527 -0.2724 -0.4698  0.4993
   17DOPE   C11 2072   2.483   7.624   9.574  0.4302 -0.5318 -0.5396
   17DOPE  H11A 2073   2.507   7.517   9.592 -0.4963 -0.6085  0.3557
   17DOPE  H11B 2074   2.447   7.635   9.470  1.9160  1.6225 -0.8854
   17DOPE     P 2075   2.227   7.688   9.623 -0.2621 -0.0066  0.2289
   17DOPE   O13 2076   2.168   7.781   9.718  0.3382  0.4949  0.4361
   17DOPE   O14 2077   2.152   7.555   9.609  0.4690 -0.5290 -0.2438
   17DOPE   O11 2078   2.251   7.764   9.489  1.3265  0.0933 -0.1108
   17DOPE   O12 2079   2.379   7.665   9.666 -0.1300 -0.8720 -0.0318
   17DOPE    C1 2080   2.145   7.843   9.434 -0.1402 -0.5173  0.0130
   17DOPE    HA 2081   2.200   7.922   9.379  0.4648  0.5063  2.0054
   17DOPE    HB 2082   2.087   7.897   9.511 -0.1637 -0.7294  0.1458
   17DOPE    C2 2083   2.041   7.761   9.349 -0.7470 -0.5972 -0.1328
   17DOPE    HS 2084   2.001   7.686   9.420  2.1498 -1.4804  0.6953
   17DOPE   O21 2085   2.115   7.696   9.247 -0.2507  0.7933  0.3247
   17DOPE   C21 2086   2.063   7.583   9.208 -0.6171 -0.5810  0.2535
   17DOPE   O22 2087   1.990   7.513   9.281 -0.0902 -0.1627  0.6371
   17DOPE   C22 2088   2.104   7.541   9.064  0.1674  0.4489 -0.5557
   17DOPE   H2R 2089   2.065   7.437   9.057 -0.1285  0.5501 -0.4533
   17DOPE   H2S 2090   2.214   7.547   9.055  0.2322 -0.1217 -0.1349
   17DOPE    C3 2091   1.938   7.860   9.293 -0.0738  0.0253 -0.5575
   17DOPE    HX 2092   1.989   7.921   9.215  0.9622  0.4157  0.3793
   17DOPE    HY 2093   1.915   7.923   9.382  2.5455  1.2645 -0.6446
   17DOPE   O31 2094   1.826   7.789   9.229 -0.1277 -0.2208  0.0266
   17DOPE   C31 2095   1.727   7.735   9.296  0.4798 -0.1252  0.2015
   17DOPE   O32 2096   1.717   7.724   9.416  0.4288 -0.4045 -0.0013
   17DOPE   C32 2097   1.618   7.689   9.205  0.4467  0.2920 -0.5101
   17DOPE   H2X 2098   1.612   7.757   9.117  2.1959 -1.9513 -2.5142
   17DOPE   H2Y 2099   1.645   7.592   9.157 -1.4158 -1.1889  1.2446
   17DOPE   C23 2100   2.044   7.637   8.963 -0.0745  0.0093 -0.2089
   17DOPE   H3R 2101   2.110   7.726   8.956  0.6535 -0.3379  1.5606
   17DOPE   H3S 2102   1.946   7.683   8.990 -0.1096  1.3377 -2.4031
   17DOPE   C24 2103   2.020   7.584   8.821  0.5995  0.2491 -0.1192
   17DOPE   H4R 2104   1.968   7.660   8.758  1.0728 -0.7320 -1.7529
   17DOPE   H4S 2105   1.960   7.490   8.816  1.8234 -0.7033  1.7977
   17DOPE   C25 2106   2.155   7.548   8.754 -0.1281  0.0055 -0.3197
   17DOPE   H5R 2107   2.175   7.444   8.786  0.3356  0.4698  0.9420
   17DOPE   H5S 2108   2.235   7.615   8.792 -0.0493 -0.1300 -0.2443
   17DOPE   C26 2109   2.162   7.558   8.595 -0.2553  0.3021  0.8711
   17DOPE   H6R 2110   2.123   7.646   8.541  1.5666 -0.5579 -2.0736
   17DOPE   H6S 2111   2.108   7.475   8.545 -0.3699  0.8393  0.0863
   17DOPE   C27 2112   2.314   7.551   8.564 -0.9756  0.2493 -0.5739
   17DOPE   H7R 2113   2.360   7.463   8.615 -1.1112  0.1069 -0.6984
   17DOPE   H7S 2114   2.363   7.644   8.599  0.1319  0.0552 -1.5567
   17DOPE   C28 2115   2.336   7.534   8.415  0.7640  0.2712  0.3618
   17DOPE   H8R 2116   2.260   7.594   8.359  0.5360 -0.2273  0.1291
   17DOPE   H8S 2117   2.307   7.430   8.389  0.8318 -0.3717  2.6828
   17DOPE   C29 2118   2.481   7.567   8.384 -0.1334  0.1478 -0.3530
   17DOPE   H9R 2119   2.555   7.487   8.366  0.7183  0.5291  1.3351
   17DOPE  C210 2120   2.521   7.684   8.325 -0.1688  0.5817  0.9465
   17DOPE  H10R 2121   2.622   7.693   8.283 -0.5610 -0.4643 -0.2886
   17DOPE  C211 2122   2.436   7.811   8.312  0.1309 -0.1386 -0.6069
   17DOPE  H11R 2123   2.339   7.805   8.366 -1.5304 -0.8225 -3.4535
   17DOPE  H11S 2124   2.417   7.837   8.206 -1.1194 -1.5687 -0.7761
   17DOPE  C212 2125   2.512   7.925   8.390  0.0293  0.2843  0.8388
   17DOPE  H12R 2126   2.450   8.016   8.378 -0.3598 -0.1009 -0.1840
   17DOPE  H12S 2127   2.609   7.936   8.338  0.8822  4.1483  2.8952
   17DOPE  C213 2128   2.531   7.904   8.533 -0.4554  0.5617  0.2606
   17DOPE  H13R 2129   2.609   7.825   8.536  2.7916  3.4612 -1.3638
   17DOPE  H13S 2130   2.445   7.867   8.593  0.2037 -0.3349  0.6749
   17DOPE  C214 2131   2.588   8.027   8.604  0.3329  0.0935 -0.5375
   17DOPE  H14R 2132   2.682   8.057   8.554  0.0791 -0.5306 -1.4250
   17DOPE  H14S 2133   2.621   8.004   8.707 -0.8537 -0.5764 -0.2798
   17DOPE  C215 2134   2.499   8.150   8.610  0.4947  0.1904 -0.1260
   17DOPE  H15R 2135   2.472   8.179   8.506  1.6393  1.1878 -0.1652
   17DOPE  H15S 2136   2.544   8.238   8.661 -0.3319  1.5104 -1.5553
   17DOPE  C216 2137   2.366   8.116   8.670 -0.2163  0.6987  0.4738
   17DOPE  H16R 2138   2.380   8.094   8.778 -1.8107  1.0957  0.7729
   17DOPE  H16S 2139   2.318   8.031   8.618 -0.5381  2.7090 -2.7600
   17DOPE  C217 2140   2.258   8.223   8.673  0.8775 -0.2186 -0.3689
   17DOPE  H17R 2141   2.304   8.314   8.717 -0.3507 -0.3653  1.3135
   17DOPE  H17S 2142   2.187   8.198   8.754  1.9884  2.2028  1.5029
   17DOPE  C218 2143   2.189   8.247   8.537  0.3659 -0.0274  0.2405
   17DOPE  H18R 2144   2.109   8.178   8.503  1.2493  0.4073 -2.9992
   17DOPE  H18S 2145   2.265   8.234   8.457 -0.7503  1.2848 -1.0731
   17DOPE  H18T 2146   2.151   8.351   8.529 -0.4343 -0.3887 -0.7878
   17DOPE   C33 2147   1.474   7.695   9.268 -0.4124  0.3594 -0.4397
   17DOPE   H3X 2148   1.441   7.797   9.296 -0.2834 -0.0208  1.1928
   17DOPE   H3Y 2149   1.470   7.625   9.354  1.0273  0.5015 -0.2274
   17DOPE   C34 2150   1.370   7.643   9.172 -0.6595  0.4694 -0.0022
   17DOPE   H4X 2151   1.353   7.705   9.081 -1.2878 -1.3915 -1.2160
   17DOPE   H4Y 2152   1.398   7.546   9.124 -0.3235 -0.3705  1.7923
   17DOPE   C35 2153   1.241   7.623   9.255 -0.5222  0.0699  0.1698
   17DOPE   H5X 2154   1.227   7.710   9.322 -0.8576  0.4065 -0.3272
   17DOPE   H5Y 2155   1.254   7.541   9.329 -1.5567  1.4535  1.9514
   17DOPE   C36 2156   1.112   7.618   9.169 -0.0045 -0.0438  0.1847
   17DOPE   H6X 2157   1.107   7.696   9.091 -2.0055  0.9073  1.1772
   17DOPE   H6Y 2158   1.019   7.631   9.229 -0.4948  0.3399 -0.6483
   17DOPE   C37 2159   1.094   7.488   9.095 -0.7832 -0.0988  0.4523
   17DOPE   H7X 2160   1.191   7.455   9.051 -0.3332  3.3611 -1.5584
   17DOPE   H7Y 2161   1.066   7.416   9.175  0.4965  0.1970  1.1962
   17DOPE   C38 2162   0.989   7.495   8.992  0.3084  0.7543  0.1468
   17DOPE   H8X 2163   0.902   7.544   9.040 -0.0938  0.7829 -0.5974
   17DOPE   H8Y 2164   0.965   7.393   8.955 -1.7028  1.7564 -1.5431
   17DOPE   C39 2165   1.040   7.577   8.878  0.6717 -0.0085 -0.2674
   17DOPE   H9X 2166   1.138   7.545   8.838  0.4418 -1.5842  0.3639
   17DOPE  C310 2167   0.977   7.683   8.822  0.4238 -0.3377  0.5383
   17DOPE  H10X 2168   1.014   7.730   8.730  1.0300 -2.7061 -0.4940
   17DOPE  C311 2169   0.835   7.731   8.853 -0.8084 -0.1949 -0.2990
   17DOPE  H11X 2170   0.773   7.657   8.908 -0.1820  0.8239  1.9113
   17DOPE  H11Y 2171   0.849   7.808   8.932 -0.0682  0.9172 -1.4800
   17DOPE  C312 2172   0.755   7.788   8.735  0.3323  0.6053 -0.7515
   17DOPE  H12X 2173   0.728   7.710   8.661 -1.9399  2.2291 -1.7517
   17DOPE  H12Y 2174   0.821   7.865   8.688 -0.3970  2.3671  0.9608
   17DOPE  C313 2175   0.620   7.845   8.783  0.1596  0.8048  0.1598
   17DOPE  H13X 2176   0.566   7.764   8.837  1.1014 -0.6836 -1.0231
   17DOPE  H13Y 2177   0.635   7.934   8.848  0.7433  0.2468  0.8094
   17DOPE  C314 2178   0.530   7.880   8.666  0.0454  0.4378  0.1663
   17DOPE  H14X 2179   0.539   7.800   8.589  0.2440  0.2693  0.3628
   17DOPE  H14Y 2180   0.584   7.971   8.633  0.2030  1.1453  2.2317
   17DOPE  C315 2181   0.388   7.914   8.690 -0.2451 -0.2317 -1.0064
   17DOPE  H15X 2182   0.391   7.992   8.769  1.7028  0.7957 -2.0290
   17DOPE  H15Y 2183   0.332   7.831   8.737  0.1932  0.8094  1.5330
   17DOPE  C316 2184   0.311   7.972   8.571 -0.4801  0.4058 -0.1945
   17DOPE  H16X 2185   0.319   7.914   8.477  0.3620 -1.7708  1.1527
   17DOPE  H16Y 2186   0.353   8.070   8.540 -0.0205  0.6737  1.1947
   17DOPE  C317 2187   0.163   7.999   8.604 -0.3008 -0.2695 -0.2029
   17DOPE  H17X 2188   0.124   7.896   8.618 -1.3124 -0.0605 -1.2555
   17DOPE  H17Y 2189   0.151   8.060   8.696 -0.7845 -0.4411 -0.1502
   17DOPE  C318 2190   0.095   8.064   8.480  0.1390 -0.4205 -0.3090
   17DOPE  H18X 2191   0.151   8.036   8.388 -0.3742 -0.8510 -0.4989
   17DOPE  H18Y 2192  -0.013   8.035   8.474  0.2571 -1.0328  0.3663
   17DOPE  H18Z 2193   0.108   8.170   8.507  0.5518 -0.5051 -0.1837
   18DOPE     N 2194   8.557   4.015   9.126  0.4806 -0.0853 -0.3934
   18DOPE   HN1 2195   8.612   4.038   9.041  0.3568 -0.4258 -0.5684
   18DOPE   HN2 2196   8.587   4.076   9.204  2.4322 -1.5812  0.0875
   18DOPE   HN3 2197   8.574   3.917   9.157  0.9376  0.3404  0.7428
   18DOPE   C12 2198   8.404   4.038   9.105 -0.5624  0.8409 -0.2275
   18DOPE  H12A 2199   8.364   4.028   9.208 -0.5792 -1.7142 -0.4262
   18DOPE  H12B 2200   8.361   3.949   9.055 -1.7525  1.3730 -0.1940
   18DOPE   C11 2201   8.363   4.171   9.037  0.0256 -0.1192 -0.6617
   18DOPE  H11A 2202   8.255   4.179   9.011 -0.4108  0.5212  1.2332
   18DOPE  H11B 2203   8.413   4.163   8.938 -1.5188  1.3745 -1.6332
   18DOPE     P 2204   8.350   4.390   9.176  0.2445 -0.0852 -0.5078
   18DOPE   O13 2205   8.404   4.521   9.147  0.0192  0.1192 -0.0481
   18DOPE   O14 2206   8.346   4.353   9.323 -0.3005  0.3953  0.0411
   18DOPE   O11 2207   8.200   4.382   9.114  0.0967  0.9234 -0.3197
   18DOPE   O12 2208   8.427   4.282   9.104  0.3077  0.0954 -0.4601
   18DOPE    C1 2209   8.087   4.440   9.180 -0.3068  0.1245  0.0034
   18DOPE    HA 2210   8.100   4.428   9.289  0.9921  2.0694  0.1070
   18DOPE    HB 2211   7.999   4.376   9.156 -0.4527  1.0480 -2.1519
   18DOPE    C2 2212   8.049   4.586   9.140 -0.2221  0.5779  0.3542
   18DOPE    HS 2213   8.081   4.658   9.219  0.1952  0.4906  0.2710
   18DOPE   O21 2214   7.905   4.586   9.130 -0.2844  0.2978  0.4029
   18DOPE   C21 2215   7.836   4.575   9.241  0.8610 -1.1793  0.3484
   18DOPE   O22 2216   7.886   4.574   9.354 -0.2958  0.0877  0.2452
   18DOPE   C22 2217   7.686   4.599   9.212  0.1297 -0.1896 -0.4642
   18DOPE   H2R 2218   7.670   4.652   9.115  0.8493 -0.6854 -0.8608
   18DOPE   H2S 2219   7.635   4.649   9.297 -0.4820 -2.5978  0.6703
   18DOPE    C3 2220   8.133   4.627   9.010 -0.3148  0.1554 -0.2922
   18DOPE    HX 2221   8.106   4.550   8.934  1.5669  1.0224 -1.9231
   18DOPE    HY 2222   8.243   4.618   9.025 -0.0532  1.0805 -1.5401
   18DOPE   O31 2223   8.098   4.758   8.964  0.5154  0.0516 -0.3515
   18DOPE   C31 2224   8.132   4.862   9.023  0.0694 -0.2596 -0.3966
   18DOPE   O32 2225   8.214   4.871   9.116 -0.7777 -0.8286  0.4225
   18DOPE   C32 2226   8.063   4.980   8.958 -0.3255 -0.0755 -0.5970
   18DOPE   H2X 2227   7.975   4.994   9.024 -0.9165 -3.0254 -0.6179
   18DOPE   H2Y 2228   8.134   5.066   8.957  1.5758 -1.2835  4.2252
   18DOPE   C23 2229   7.613   4.468   9.189  0.3901 -0.2883 -0.2376
   18DOPE   H3R 2230   7.504   4.482   9.173  0.4463 -0.8372 -1.1667
   18DOPE   H3S 2231   7.625   4.409   9.282 -0.4739 -0.6668 -0.3537
   18DOPE   C24 2232   7.649   4.392   9.061 -0.0145  0.5873 -0.1444
   18DOPE   H4R 2233   7.759   4.382   9.058 -0.1400 -0.6428 -2.0035
   18DOPE   H4S 2234   7.604   4.446   8.975 -0.1389 -1.7925 -1.6570
   18DOPE   C25 2235   7.609   4.243   9.070  0.0218 -0.1796  0.7541
   18DOPE   H5R 2236   7.503   4.245   9.102 -0.6775  0.8667 -1.3655
   18DOPE   H5S 2237   7.677   4.192   9.141  2.3386 -0.6384 -1.6242
   18DOPE   C26 2238   7.600   4.172   8.934  0.1752  0.2265 -0.1663
   18DOPE   H6R 2239   7.703   4.163   8.892  0.0907 -1.0306 -0.1420
   18DOPE   H6S 2240   7.529   4.224   8.866 -1.0289 -0.9953  0.0982
   18DOPE   C27 2241   7.538   4.026   8.959 -0.5737 -0.7005  0.2672
   18DOPE   H7R 2242   7.572   3.975   9.052 -0.0095 -1.9798 -0.6087
   18DOPE   H7S 2243   7.567   3.961   8.873  1.6783  0.7548 -0.1612
   18DOPE   C28 2244   7.387   4.042   8.962 -0.3268 -0.7259 -0.6675
   18DOPE   H8R 2245   7.360   4.111   8.879  1.7256  0.8975 -0.0811
   18DOPE   H8S 2246   7.364   4.087   9.061  0.2584 -1.2761 -0.2800
   18DOPE   C29 2247   7.308   3.915   8.949 -0.5855  0.2235 -0.1175
   18DOPE   H9R 2248   7.282   3.857   9.039 -1.7299 -1.4353 -1.4667
   18DOPE  C210 2249   7.269   3.870   8.835 -0.4604 -0.1352  0.5831
   18DOPE  H10R 2250   7.227   3.768   8.826  0.0525 -0.4516  1.6301
   18DOPE  C211 2251   7.291   3.924   8.696 -0.0377 -0.1234  1.1439
   18DOPE  H11R 2252   7.314   3.843   8.624 -2.1581 -0.1515  0.4478
   18DOPE  H11S 2253   7.381   3.990   8.697  0.0097 -0.0538 -1.4490
   18DOPE  C212 2254   7.178   4.001   8.634  0.1273 -0.3210  0.2239
   18DOPE  H12R 2255   7.163   4.091   8.697 -2.2357  0.2322 -1.0138
   18DOPE  H12S 2256   7.085   3.941   8.632 -0.5575  0.7229 -0.3103
   18DOPE  C213 2257   7.230   4.041   8.490 -0.0391 -0.3256  0.0580
   18DOPE  H13R 2258   7.243   3.948   8.430  0.2307  0.3946 -1.0332
   18DOPE  H13S 2259   7.332   4.084   8.493 -0.3766  0.6047 -0.9865
   18DOPE  C214 2260   7.129   4.129   8.417 -0.1526 -0.3393  0.1048
   18DOPE  H14R 2261   7.115   4.228   8.467  1.3781 -0.5820  1.0779
   18DOPE  H14S 2262   7.032   4.076   8.411  0.4896 -1.5594  0.2497
   18DOPE  C215 2263   7.172   4.179   8.275 -0.3210 -0.6806  0.2724
   18DOPE  H15R 2264   7.206   4.099   8.206 -0.0703  0.9135 -1.5403
   18DOPE  H15S 2265   7.246   4.261   8.287 -1.0407  0.2123 -1.1233
   18DOPE  C216 2266   7.062   4.258   8.197 -0.0930  0.4860  0.3829
   18DOPE  H16R 2267   7.019   4.330   8.271  0.7612  0.4440  0.9327
   18DOPE  H16S 2268   6.982   4.185   8.170  0.8175  0.0184 -1.1525
   18DOPE  C217 2269   7.122   4.340   8.079 -0.4225  0.9518 -0.1498
   18DOPE  H17R 2270   7.041   4.352   8.004  0.6671  0.2064 -1.4907
   18DOPE  H17S 2271   7.201   4.270   8.044 -2.5147 -1.9630  0.5541
   18DOPE  C218 2272   7.187   4.475   8.113  0.6467  0.6405 -0.6777
   18DOPE  H18R 2273   7.106   4.536   8.159 -0.4565 -0.0302 -1.6564
   18DOPE  H18S 2274   7.231   4.526   8.024  0.3155  1.9698 -0.1090
   18DOPE  H18T 2275   7.272   4.475   8.184  0.8283 -0.9989 -0.8631
   18DOPE   C33 2276   8.024   4.967   8.810 -0.0636  0.1967 -0.4429
   18DOPE   H3X 2277   7.986   4.867   8.782  2.7479 -1.8857  2.4455
   18DOPE   H3Y 2278   8.118   4.975   8.753  0.5159  0.4162  0.5205
   18DOPE   C34 2279   7.921   5.075   8.761  0.3225 -0.2536 -0.0056
   18DOPE   H4X 2280   7.826   5.034   8.803  0.7823  0.2696  1.6113
   18DOPE   H4Y 2281   7.942   5.165   8.822  0.1490 -1.0017  1.1995
   18DOPE   C35 2282   7.922   5.093   8.612  1.0964 -0.5790 -0.6027
   18DOPE   H5X 2283   7.903   5.005   8.547  0.7834 -1.6527  0.9002
   18DOPE   H5Y 2284   8.028   5.124   8.596  0.9749  0.8722  1.1322
   18DOPE   C36 2285   7.832   5.219   8.572 -0.4126 -0.4622 -0.7384
   18DOPE   H6X 2286   7.847   5.306   8.640 -0.8619  1.1637 -2.6285
   18DOPE   H6Y 2287   7.727   5.187   8.585  0.0101 -1.5136  0.3138
   18DOPE   C37 2288   7.841   5.273   8.422  0.6843 -0.6610 -0.4589
   18DOPE   H7X 2289   7.949   5.283   8.397  0.7195 -2.5186 -1.2006
   18DOPE   H7Y 2290   7.801   5.202   8.347  1.4110  0.4616 -1.9563
   18DOPE   C38 2291   7.743   5.394   8.400  0.0737  0.3171 -0.0735
   18DOPE   H8X 2292   7.753   5.448   8.304 -1.0461 -0.0804 -0.4317
   18DOPE   H8Y 2293   7.780   5.460   8.482  2.4112  0.1778 -0.9228
   18DOPE   C39 2294   7.591   5.374   8.423 -0.0146 -0.1892  0.7404
   18DOPE   H9X 2295   7.557   5.293   8.490 -1.0303 -0.5466 -0.1732
   18DOPE  C310 2296   7.496   5.457   8.375  0.6580  0.1330  0.1934
   18DOPE  H10X 2297   7.390   5.437   8.398  1.3378 -0.4688  3.1171
   18DOPE  C311 2298   7.503   5.578   8.285 -0.3011 -0.1143  0.0316
   18DOPE  H11X 2299   7.576   5.549   8.205  1.6201  1.7230  1.0078
   18DOPE  H11Y 2300   7.405   5.580   8.233 -0.3882 -0.2635  0.1917
   18DOPE  C312 2301   7.540   5.698   8.361 -0.1941  0.2899 -0.1551
   18DOPE  H12X 2302   7.591   5.765   8.288  0.7265  2.1233  2.0512
   18DOPE  H12Y 2303   7.626   5.672   8.426  0.8353  1.0328 -1.1754
   18DOPE  C313 2304   7.429   5.754   8.451 -0.4668  0.3191  0.1481
   18DOPE  H13X 2305   7.328   5.749   8.404 -0.7903 -1.5940  0.9295
   18DOPE  H13Y 2306   7.423   5.700   8.548  0.2506 -1.5291 -0.7848
   18DOPE  C314 2307   7.463   5.902   8.485  0.7786  0.7920 -0.2010
   18DOPE  H14X 2308   7.466   5.955   8.387  0.2362  0.4733 -0.3930
   18DOPE  H14Y 2309   7.563   5.905   8.534  0.9093  0.1392 -0.4150
   18DOPE  C315 2310   7.355   5.965   8.569 -0.6506 -0.9068 -0.5614
   18DOPE  H15X 2311   7.370   5.926   8.672  0.4640 -1.5859 -0.9631
   18DOPE  H15Y 2312   7.251   5.947   8.533 -1.2994  1.4638 -0.0724
   18DOPE  C316 2313   7.369   6.122   8.573  0.0091  0.1614 -0.4690
   18DOPE  H16X 2314   7.458   6.152   8.632  0.6459 -0.2903 -1.1887
   18DOPE  H16Y 2315   7.283   6.161   8.632 -0.3482  0.8713 -1.4458
   18DOPE  C317 2316   7.364   6.199   8.442  0.0816 -0.1693  0.0657
   18DOPE  H17X 2317   7.447   6.166   8.377  2.7996  0.8291  2.7907
   18DOPE  H17Y 2318   7.270   6.177   8.387  0.1971  0.7733 -0.5136
   18DOPE  C318 2319   7.358   6.350   8.439  0.0015 -0.0408 -0.0768
   18DOPE  H18X 2320   7.355   6.383   8.333  0.3940 -0.9860 -0.3910
   18DOPE  H18Y 2321   7.275   6.398   8.495  0.6710  0.4110  0.5465
   18DOPE  H18Z 2322   7.444   6.404   8.486  0.7394  0.2554 -1.6990
   19DOPE     N 2323   0.042   4.563   9.353 -0.6012 -0.2936  1.0263
   19DOPE   HN1 2324   0.138   4.567   9.315 -0.5191  1.5634  1.3443
   19DOPE   HN2 2325   0.021   4.660   9.384  0.2847  0.4634 -0.6030
   19DOPE   HN3 2326   0.027   4.494   9.430  0.4212 -1.5635  0.1284
   19DOPE   C12 2327  -0.044   4.522   9.236  0.2168  0.2483 -0.6637
   19DOPE  H12A 2328   0.011   4.438   9.191 -1.0357 -0.9843  0.0255
   19DOPE  H12B 2329  -0.061   4.600   9.158 -0.8314 -1.2092 -1.9541
   19DOPE   C11 2330  -0.176   4.472   9.288 -0.0148  0.3616 -0.4579
   19DOPE  H11A 2331  -0.240   4.430   9.207 -0.5561 -0.4683  0.3776
   19DOPE  H11B 2332  -0.225   4.554   9.343  0.6985  0.5485 -0.0937
   19DOPE     P 2333  -0.228   4.240   9.395  0.6626  0.1459 -0.0185
   19DOPE   O13 2334  -0.370   4.273   9.437  1.0409  0.6497 -0.4377
   19DOPE   O14 2335  -0.159   4.153   9.496  0.0798 -0.4147 -0.6936
   19DOPE   O11 2336  -0.228   4.165   9.255  0.1325  0.1410  0.2681
   19DOPE   O12 2337  -0.151   4.372   9.382  0.1565  0.0480  0.3468
   19DOPE    C1 2338  -0.102   4.120   9.212  0.2068 -0.2713  0.4647
   19DOPE    HA 2339  -0.073   4.029   9.269 -0.1200 -0.5594  0.1704
   19DOPE    HB 2340  -0.023   4.199   9.216 -0.4462  0.3490  1.8511
   19DOPE    C2 2341  -0.107   4.071   9.068  0.2794  0.3932  0.0380
   19DOPE    HS 2342  -0.006   4.044   9.030 -0.0634  0.4223 -0.9195
   19DOPE   O21 2343  -0.162   4.166   8.978  0.0185  0.1878 -0.3202
   19DOPE   C21 2344  -0.076   4.264   8.942 -0.2989 -0.5729  0.1892
   19DOPE   O22 2345   0.037   4.273   8.989  0.1758 -0.2746  0.6817
   19DOPE   C22 2346  -0.148   4.355   8.844  0.5140 -0.3444 -0.0492
   19DOPE   H2R 2347  -0.194   4.433   8.910  0.2257  0.0221 -0.6723
   19DOPE   H2S 2348  -0.234   4.302   8.797  0.4379 -0.3159  0.0544
   19DOPE    C3 2349  -0.192   3.944   9.056 -0.6083 -0.2581  0.3205
   19DOPE    HX 2350  -0.300   3.962   9.078 -1.6848 -0.3654 -3.9829
   19DOPE    HY 2351  -0.146   3.868   9.123  1.0362 -1.2649 -1.8416
   19DOPE   O31 2352  -0.178   3.896   8.923  0.1398  0.6098  0.6096
   19DOPE   C31 2353  -0.273   3.935   8.834  0.1329  0.1995 -1.5021
   19DOPE   O32 2354  -0.376   3.989   8.865  0.5183 -0.2361  0.1213
   19DOPE   C32 2355  -0.219   3.887   8.699 -0.0300 -0.4774  0.2483
   19DOPE   H2X 2356  -0.134   3.958   8.684 -0.2752 -0.4665 -1.3172
   19DOPE   H2Y 2357  -0.185   3.782   8.699 -0.5940 -0.6880 -1.5297
   19DOPE   C23 2358  -0.054   4.413   8.734 -1.4663  0.6819 -0.0825
   19DOPE   H3R 2359  -0.021   4.324   8.676 -0.7111 -0.6934  2.3374
   19DOPE   H3S 2360   0.035   4.463   8.777  1.6635 -2.4709 -2.3432
   19DOPE   C24 2361  -0.110   4.506   8.629  0.1982 -0.5727  0.1531
   19DOPE   H4R 2362  -0.029   4.554   8.570  0.7834  0.9695  2.1068
   19DOPE   H4S 2363  -0.157   4.584   8.692 -2.0682 -2.7597  1.3460
   19DOPE   C25 2364  -0.218   4.454   8.547 -0.1816 -0.2311 -0.2703
   19DOPE   H5R 2365  -0.312   4.436   8.604  0.4976  0.2773  1.0251
   19DOPE   H5S 2366  -0.189   4.362   8.491 -1.3781 -1.8378  1.6279
   19DOPE   C26 2367  -0.254   4.573   8.453 -0.3585 -0.1289 -0.0252
   19DOPE   H6R 2368  -0.160   4.589   8.395 -0.2131 -1.3527 -0.1622
   19DOPE   H6S 2369  -0.268   4.671   8.503  3.1989  1.9361 -2.5657
   19DOPE   C27 2370  -0.373   4.533   8.368  0.4326 -0.4510  0.3818
   19DOPE   H7R 2371  -0.458   4.494   8.428  1.1309 -0.8583  1.1201
   19DOPE   H7S 2372  -0.345   4.453   8.297 -1.7538 -1.1717  0.2772
   19DOPE   C28 2373  -0.434   4.653   8.286 -0.4501 -0.0574  0.2153
   19DOPE   H8R 2374  -0.438   4.736   8.359  1.3280 -0.3327  0.6808
   19DOPE   H8S 2375  -0.539   4.630   8.258 -0.6287  0.9305  0.0243
   19DOPE   C29 2376  -0.350   4.695   8.165 -0.0145  0.5833 -0.8235
   19DOPE   H9R 2377  -0.278   4.775   8.188 -0.6723  0.9837 -0.1133
   19DOPE  C210 2378  -0.366   4.663   8.038  0.3186 -0.0014 -0.2034
   19DOPE  H10R 2379  -0.291   4.710   7.972  0.2621  0.5592  0.1231
   19DOPE  C211 2380  -0.453   4.560   7.972 -0.0568  0.1479 -0.2931
   19DOPE  H11R 2381  -0.549   4.546   8.026 -0.2490  1.0316 -0.3800
   19DOPE  H11S 2382  -0.405   4.460   7.965 -1.1152 -0.3507 -0.6701
   19DOPE  C212 2383  -0.476   4.611   7.837 -0.2480 -0.0975  0.7062
   19DOPE  H12R 2384  -0.516   4.527   7.777  0.7074  0.1308 -0.2891
   19DOPE  H12S 2385  -0.379   4.633   7.787  1.8901 -1.0757  4.1124
   19DOPE  C213 2386  -0.572   4.725   7.822 -0.0991 -0.6358 -0.6900
   19DOPE  H13R 2387  -0.535   4.809   7.884  0.7410 -1.5466  0.0657
   19DOPE  H13S 2388  -0.669   4.699   7.869  0.3493 -0.5282  0.3285
   19DOPE  C214 2389  -0.579   4.761   7.676  0.7446  0.3985 -0.0906
   19DOPE  H14R 2390  -0.485   4.788   7.625 -0.0017  1.2115 -1.0789
   19DOPE  H14S 2391  -0.630   4.860   7.674 -0.1807 -0.0215  0.9558
   19DOPE  C215 2392  -0.639   4.661   7.591  0.2262  0.6119 -0.1524
   19DOPE  H15R 2393  -0.745   4.640   7.617 -0.1647  1.9834 -0.5709
   19DOPE  H15S 2394  -0.581   4.566   7.585  0.9933  0.8836  1.9793
   19DOPE  C216 2395  -0.639   4.698   7.444  0.4557  0.6469  0.5702
   19DOPE  H16R 2396  -0.675   4.608   7.389  2.5602 -0.9628  1.6597
   19DOPE  H16S 2397  -0.533   4.727   7.426  0.2528  2.0843  1.5288
   19DOPE  C217 2398  -0.719   4.826   7.410  0.2550 -0.8440  0.3121
   19DOPE  H17R 2399  -0.675   4.915   7.460  0.9022 -0.1572 -1.3995
   19DOPE  H17S 2400  -0.819   4.806   7.455  1.1295 -1.6764  1.9821
   19DOPE  C218 2401  -0.727   4.850   7.259  0.2167 -0.4229  0.3792
   19DOPE  H18R 2402  -0.792   4.776   7.209 -0.5088 -0.5327  1.4408
   19DOPE  H18S 2403  -0.627   4.840   7.212  0.7401 -0.7626  1.5271
   19DOPE  H18T 2404  -0.768   4.951   7.237  2.1055  0.0005 -1.5378
   19DOPE   C33 2405  -0.335   3.897   8.587  0.6195 -0.1717 -0.0482
   19DOPE   H3X 2406  -0.391   3.993   8.586 -1.0956 -1.1492 -1.4742
   19DOPE   H3Y 2407  -0.411   3.826   8.624 -0.5607  0.5502 -1.0127
   19DOPE   C34 2408  -0.284   3.864   8.452  0.5170 -0.1087 -0.0237
   19DOPE   H4X 2409  -0.265   3.754   8.448 -0.2276 -0.2977  1.1549
   19DOPE   H4Y 2410  -0.364   3.887   8.379 -1.3753 -1.8910  1.3560
   19DOPE   C35 2411  -0.160   3.936   8.412 -0.4963  0.0132 -0.0660
   19DOPE   H5X 2412  -0.074   3.896   8.469 -0.7490 -0.5844 -0.1049
   19DOPE   H5Y 2413  -0.173   4.046   8.425 -1.3134  0.2747 -2.5283
   19DOPE   C36 2414  -0.135   3.911   8.263 -0.1888  0.5420 -0.2426
   19DOPE   H6X 2415  -0.210   3.977   8.213 -0.8044  0.2363  0.2763
   19DOPE   H6Y 2416  -0.173   3.810   8.237 -1.1269  0.7650  0.2227
   19DOPE   C37 2417   0.012   3.937   8.213 -0.1084 -0.1329 -0.2959
   19DOPE   H7X 2418   0.059   4.031   8.248 -1.7346  1.3029 -1.7700
   19DOPE   H7Y 2419   0.062   3.851   8.262 -3.0721 -2.9837 -1.8745
   19DOPE   C38 2420   0.022   3.942   8.061  0.2587 -0.2112 -0.0100
   19DOPE   H8X 2421  -0.018   4.036   8.018  1.4852  0.2419 -0.1932
   19DOPE   H8Y 2422  -0.043   3.858   8.029 -1.9507  0.5815  2.0487
   19DOPE   C39 2423   0.162   3.927   7.998 -0.5247  0.5710 -0.2933
   19DOPE   H9X 2424   0.250   3.962   8.055 -0.0333 -1.4202  0.2189
   19DOPE  C310 2425   0.185   3.909   7.870  0.2830 -0.0402 -0.2115
   19DOPE  H10X 2426   0.290   3.903   7.837  0.5336  2.1681  0.0090
   19DOPE  C311 2427   0.077   3.873   7.769 -0.1472 -0.0107 -0.7385
   19DOPE  H11X 2428   0.095   3.764   7.752  2.3183 -0.1716  1.9905
   19DOPE  H11Y 2429  -0.028   3.886   7.803 -0.0439  1.3445 -0.8917
   19DOPE  C312 2430   0.104   3.960   7.646 -0.1278 -0.1587 -0.5993
   19DOPE  H12X 2431   0.211   3.967   7.619  0.2572 -0.5716  0.7759
   19DOPE  H12Y 2432   0.071   4.063   7.670 -0.4903 -0.5016  0.4193
   19DOPE  C313 2433   0.041   3.916   7.515 -0.4442 -0.0404 -0.7627
   19DOPE  H13X 2434   0.087   3.818   7.489  0.8155 -0.1484  1.6331
   19DOPE  H13Y 2435  -0.065   3.891   7.536  0.0917 -2.8572 -1.0596
   19DOPE  C314 2436   0.051   4.021   7.407 -0.8851  0.0274  0.7623
   19DOPE  H14X 2437   0.155   4.020   7.369 -1.4509  2.5855 -1.1320
   19DOPE  H14Y 2438   0.047   4.126   7.445  1.8326  0.0385  1.1940
   19DOPE  C315 2439  -0.058   3.997   7.309  0.1397  0.7062  0.4813
   19DOPE  H15X 2440  -0.068   4.082   7.238 -1.7044 -0.0318 -0.2145
   19DOPE  H15Y 2441  -0.156   3.980   7.358  0.5832 -0.6752  0.9387
   19DOPE  C316 2442  -0.021   3.869   7.224 -0.5624 -0.0196  0.0471
   19DOPE  H16X 2443  -0.003   3.777   7.284  2.7816 -0.4216 -1.3132
   19DOPE  H16Y 2444   0.080   3.896   7.185 -1.4478  2.0688 -0.9191
   19DOPE  C317 2445  -0.127   3.844   7.119  0.4192 -0.4978  0.0349
   19DOPE  H17X 2446  -0.229   3.839   7.162 -0.6169  0.0171 -2.1899
   19DOPE  H17Y 2447  -0.127   3.937   7.058  0.8757  0.0738  0.8942
   19DOPE  C318 2448  -0.114   3.724   7.030  0.7445 -0.4059 -0.3823
   19DOPE  H18X 2449  -0.037   3.730   6.951  1.0706 -2.8368 -0.3197
   19DOPE  H18Y 2450  -0.090   3.639   7.097  1.6436  0.8505  0.9497
   19DOPE  H18Z 2451  -0.214   3.712   6.983  0.0946  1.3129  0.4830
   20DOPE     N 2452   5.897   7.089   9.917  0.3760 -0.1861 -0.1647
   20DOPE   HN1 2453   5.799   7.071   9.887  0.5083 -0.8803 -0.2098
   20DOPE   HN2 2454   5.890   7.076  10.020 -0.2935  1.6619  0.0565
   20DOPE   HN3 2455   5.913   7.190   9.900 -0.2643  0.2536  1.6158
   20DOPE   C12 2456   5.996   6.997   9.856  0.1220 -0.4308 -0.0271
   20DOPE  H12A 2457   5.981   6.893   9.892 -0.3396  0.1988  1.6998
   20DOPE  H12B 2458   6.097   7.033   9.883  0.5871 -1.0535 -0.8756
   20DOPE   C11 2459   5.987   6.984   9.708  1.0410 -0.4710 -0.7230
   20DOPE  H11A 2460   5.885   6.944   9.686  0.0106 -0.3913  3.2154
   20DOPE  H11B 2461   6.052   6.906   9.665  0.9454 -1.0775  0.2020
   20DOPE     P 2462   6.127   7.188   9.612  0.5557 -0.2389 -0.2320
   20DOPE   O13 2463   6.181   7.246   9.736 -0.5347  0.3348 -0.0890
   20DOPE   O14 2464   6.102   7.279   9.502  0.0343  0.4916  0.5258
   20DOPE   O11 2465   6.212   7.069   9.555  0.3858 -0.2535 -0.1650
   20DOPE   O12 2466   5.987   7.116   9.646 -0.2317  0.3653 -0.1329
   20DOPE    C1 2467   6.322   7.086   9.467 -0.1667 -0.2272  0.0821
   20DOPE    HA 2468   6.390   6.998   9.467  0.4103  0.2087 -0.3471
   20DOPE    HB 2469   6.382   7.178   9.486  1.0858 -1.1886  0.9403
   20DOPE    C2 2470   6.278   7.079   9.317  0.3114 -0.5642  0.1689
   20DOPE    HS 2471   6.231   7.179   9.304  1.3188  0.1529  1.7456
   20DOPE   O21 2472   6.195   6.959   9.304 -0.0246  1.0042 -0.4945
   20DOPE   C21 2473   6.091   6.965   9.230 -0.0073  0.1966 -0.1624
   20DOPE   O22 2474   6.032   7.065   9.197 -0.2376 -0.8752 -0.1212
   20DOPE   C22 2475   6.036   6.827   9.183  0.3472 -0.2887 -0.3935
   20DOPE   H2R 2476   5.931   6.829   9.217  0.8159 -2.3421  1.3858
   20DOPE   H2S 2477   6.080   6.744   9.242  0.2478 -0.1486 -0.1193
   20DOPE    C3 2478   6.400   7.070   9.221 -0.8338 -0.1448 -0.0807
   20DOPE    HX 2479   6.449   6.972   9.235  0.9310  1.0026  2.6211
   20DOPE    HY 2480   6.471   7.142   9.267 -2.1442  0.1665  1.5638
   20DOPE   O31 2481   6.371   7.093   9.088  0.1865 -0.2513 -0.3171
   20DOPE   C31 2482   6.311   7.211   9.050 -1.0755  0.2860 -0.1176
   20DOPE   O32 2483   6.294   7.305   9.124 -0.3637  0.0952 -0.1266
   20DOPE   C32 2484   6.273   7.202   8.908  0.3574  0.1209  0.6661
   20DOPE   H2X 2485   6.313   7.106   8.866 -0.0684 -0.0158  0.5704
   20DOPE   H2Y 2486   6.164   7.184   8.914  0.5072 -1.2736 -0.1692
   20DOPE   C23 2487   6.044   6.805   9.035  0.5615  0.2342  0.5140
   20DOPE   H3R 2488   5.994   6.888   8.981  0.1434 -0.1438  0.3132
   20DOPE   H3S 2489   5.992   6.711   9.008  1.7964 -0.4392  0.4064
   20DOPE   C24 2490   6.194   6.802   8.992  0.3528  0.3332  0.4040
   20DOPE   H4R 2491   6.234   6.718   9.053 -1.4667  0.1479  1.4215
   20DOPE   H4S 2492   6.245   6.897   9.018 -0.2554  1.2287 -1.4737
   20DOPE   C25 2493   6.214   6.775   8.844  0.3668  0.2121  0.1097
   20DOPE   H5R 2494   6.181   6.858   8.778  0.1579  1.3288  1.5678
   20DOPE   H5S 2495   6.168   6.679   8.812 -0.1979  0.5225 -0.0197
   20DOPE   C26 2496   6.366   6.751   8.811 -0.0550  0.5327 -0.2322
   20DOPE   H6R 2497   6.416   6.724   8.906 -0.6075  0.7652  0.1347
   20DOPE   H6S 2498   6.412   6.850   8.788 -1.1751  1.5980  1.8234
   20DOPE   C27 2499   6.389   6.640   8.702 -0.3944  0.5493  0.2279
   20DOPE   H7R 2500   6.329   6.657   8.610  1.1261  1.1712 -0.6869
   20DOPE   H7S 2501   6.352   6.542   8.737 -2.2649  1.8515  2.1261
   20DOPE   C28 2502   6.546   6.622   8.676 -0.1133  0.1246 -1.3053
   20DOPE   H8R 2503   6.589   6.597   8.775  0.0755 -0.2851 -1.4887
   20DOPE   H8S 2504   6.592   6.720   8.649 -0.8637  1.1125  0.8030
   20DOPE   C29 2505   6.577   6.516   8.574  0.0842  0.2492  0.6026
   20DOPE   H9R 2506   6.580   6.548   8.469  2.3865 -0.7461  0.3071
   20DOPE  C210 2507   6.591   6.389   8.612 -0.0542 -0.7925 -0.3707
   20DOPE  H10R 2508   6.604   6.313   8.535 -1.7259 -0.6821 -0.8176
   20DOPE  C211 2509   6.575   6.324   8.749  0.3241 -0.3209  0.0198
   20DOPE  H11R 2510   6.525   6.398   8.816 -2.8507 -0.2917 -2.1642
   20DOPE  H11S 2511   6.677   6.299   8.784  0.2137  0.9813  1.4276
   20DOPE  C212 2512   6.490   6.193   8.747 -0.0584 -0.2463 -0.0857
   20DOPE  H12R 2513   6.526   6.126   8.666 -1.2650  0.3263 -1.1382
   20DOPE  H12S 2514   6.390   6.224   8.710  0.1695  1.0833  0.3362
   20DOPE  C213 2515   6.500   6.116   8.876  0.3811  0.1325 -0.4979
   20DOPE  H13R 2516   6.480   6.190   8.956 -2.4569 -0.6748 -0.3547
   20DOPE  H13S 2517   6.604   6.081   8.891  1.4123  2.2811 -2.0977
   20DOPE  C214 2518   6.405   5.995   8.890  0.0382 -0.0627 -0.4309
   20DOPE  H14R 2519   6.301   6.026   8.866  0.8993  1.8645 -1.9027
   20DOPE  H14S 2520   6.422   5.983   8.999 -0.5025 -0.3678 -0.3766
   20DOPE  C215 2521   6.429   5.868   8.804 -0.8135  0.3213 -0.1362
   20DOPE  H15R 2522   6.429   5.898   8.697  2.0510  0.2817 -0.2233
   20DOPE  H15S 2523   6.344   5.796   8.809  0.0274 -0.6591  0.3231
   20DOPE  C216 2524   6.563   5.795   8.831  0.1884  0.5163 -0.5255
   20DOPE  H16R 2525   6.644   5.867   8.807  0.6573  0.4168  0.6885
   20DOPE  H16S 2526   6.574   5.702   8.772  0.2627 -1.2395  2.1013
   20DOPE  C217 2527   6.574   5.750   8.977 -0.2695  0.2820  0.1488
   20DOPE  H17R 2528   6.484   5.693   9.008  0.1740  0.5553  2.0798
   20DOPE  H17S 2529   6.585   5.836   9.048  0.3944  0.5768 -0.2988
   20DOPE  C218 2530   6.684   5.645   9.002  0.4056 -0.2196 -0.4081
   20DOPE  H18R 2531   6.680   5.593   9.100 -0.9671 -1.1654 -0.9409
   20DOPE  H18S 2532   6.789   5.682   9.011 -0.0846  1.1978 -0.2205
   20DOPE  H18T 2533   6.672   5.563   8.928 -1.3059 -1.1419  0.8374
   20DOPE   C33 2534   6.290   7.328   8.823 -0.4112  0.0889  0.8787
   20DOPE   H3X 2535   6.393   7.371   8.826  0.5049 -1.7678 -1.2257
   20DOPE   H3Y 2536   6.221   7.406   8.861 -2.3524 -0.3413 -1.5781
   20DOPE   C34 2537   6.265   7.311   8.675  0.7579 -0.2725  0.1780
   20DOPE   H4X 2538   6.326   7.223   8.645  0.7983 -0.6291  1.2429
   20DOPE   H4Y 2539   6.157   7.288   8.660  1.1239 -0.2036 -3.6288
   20DOPE   C35 2540   6.305   7.436   8.594 -0.1363 -0.0637 -0.6237
   20DOPE   H5X 2541   6.402   7.473   8.632 -0.0467 -0.7328 -0.1824
   20DOPE   H5Y 2542   6.235   7.520   8.616 -0.0634  0.2171 -1.4366
   20DOPE   C36 2543   6.314   7.403   8.440 -0.0802  0.0046 -0.4929
   20DOPE   H6X 2544   6.210   7.367   8.424 -0.6892 -0.1233  3.0420
   20DOPE   H6Y 2545   6.384   7.317   8.436  1.1249  0.8526  1.2628
   20DOPE   C37 2546   6.356   7.521   8.358 -0.1146  0.4669  0.1513
   20DOPE   H7X 2547   6.288   7.607   8.375 -0.3323 -0.1403  2.6735
   20DOPE   H7Y 2548   6.452   7.564   8.395 -0.6338  0.0891  2.0025
   20DOPE   C38 2549   6.362   7.486   8.212  0.3861  0.3569  0.3441
   20DOPE   H8X 2550   6.340   7.579   8.155 -0.6929 -0.7804 -1.1618
   20DOPE   H8Y 2551   6.280   7.414   8.190 -0.3435  1.9948 -2.8499
   20DOPE   C39 2552   6.498   7.426   8.179  0.1121 -0.1497 -0.6292
   20DOPE   H9X 2553   6.504   7.319   8.206 -1.3518 -0.4940 -1.5334
   20DOPE  C310 2554   6.601   7.488   8.118  0.8014  0.2285  0.5443
   20DOPE  H10X 2555   6.686   7.439   8.068 -0.9441 -1.4307 -0.9303
   20DOPE  C311 2556   6.594   7.635   8.084  0.2295 -0.0983  0.3956
   20DOPE  H11X 2557   6.574   7.654   7.976  0.7015 -2.7379 -0.2525
   20DOPE  H11Y 2558   6.522   7.694   8.143  2.1001  1.7058  1.0118
   20DOPE  C312 2559   6.724   7.699   8.118 -1.0050 -0.4295 -0.7168
   20DOPE  H12X 2560   6.712   7.802   8.077 -0.5458 -0.7452 -1.6621
   20DOPE  H12Y 2561   6.813   7.656   8.067  0.7506  3.0869 -0.9154
   20DOPE  C313 2562   6.739   7.721   8.274  0.0047  0.1555 -0.6871
   20DOPE  H13X 2563   6.641   7.759   8.310 -1.6079 -2.7421 -1.7648
   20DOPE  H13Y 2564   6.767   7.627   8.326 -0.7383  0.5394  0.4510
   20DOPE  C314 2565   6.859   7.813   8.310  0.2125  0.5054 -0.1051
   20DOPE  H14X 2566   6.849   7.916   8.269 -1.5210  0.8243  1.0277
   20DOPE  H14Y 2567   6.953   7.783   8.258 -0.1676 -0.9930  0.0309
   20DOPE  C315 2568   6.898   7.829   8.457  0.3171 -0.4601 -0.3690
   20DOPE  H15X 2569   6.809   7.879   8.503 -0.8191 -1.3323 -1.5616
   20DOPE  H15Y 2570   6.984   7.899   8.462  0.9000 -1.2163  0.4839
   20DOPE  C316 2571   6.906   7.710   8.541 -0.1572  0.7342 -1.0482
   20DOPE  H16X 2572   6.998   7.648   8.528 -0.9747 -1.4209  2.2752
   20DOPE  H16Y 2573   6.816   7.648   8.528 -0.6492  1.3712 -0.7331
   20DOPE  C317 2574   6.915   7.758   8.691 -0.8817  0.6174 -0.0383
   20DOPE  H17X 2575   6.991   7.835   8.714 -1.4374  0.4466  2.7767
   20DOPE  H17Y 2576   6.813   7.796   8.714 -1.0772  0.1085 -0.0379
   20DOPE  C318 2577   6.948   7.638   8.789 -0.1741  0.6186 -0.0377
   20DOPE  H18X 2578   6.884   7.549   8.771 -0.1238  0.2183  1.6648
   20DOPE  H18Y 2579   7.055   7.611   8.773 -0.9526 -3.1969  0.2206
   20DOPE  H18Z 2580   6.938   7.673   8.893 -0.4624  1.0901 -0.2213
   21DOPE     N 2581   2.668   9.008   9.785 -0.6870 -0.4450 -0.3660
   21DOPE   HN1 2582   2.610   9.076   9.838  1.2514  0.6084  0.5186
   21DOPE   HN2 2583   2.713   8.946   9.855  0.0116  0.7768  0.2971
   21DOPE   HN3 2584   2.738   9.060   9.728 -1.2188  0.4611 -0.2184
   21DOPE   C12 2585   2.571   8.939   9.689  0.4695 -0.2401 -0.9792
   21DOPE  H12A 2586   2.494   8.885   9.749 -0.0894  0.9021 -0.6510
   21DOPE  H12B 2587   2.637   8.872   9.629  3.1320  2.4121 -1.2336
   21DOPE   C11 2588   2.506   9.041   9.604  0.0801  0.1711  0.2574
   21DOPE  H11A 2589   2.439   9.098   9.672  2.1705  0.1779  2.4316
   21DOPE  H11B 2590   2.441   8.992   9.529  0.8843 -1.0312  0.3247
   21DOPE     P 2591   2.622   9.142   9.386  0.2766 -0.3982  0.5018
   21DOPE   O13 2592   2.763   9.138   9.344  0.4241  0.2773  0.7214
   21DOPE   O14 2593   2.537   9.251   9.327  0.4879 -0.0275  0.1565
   21DOPE   O11 2594   2.548   9.005   9.335  0.2666  0.4944 -0.6142
   21DOPE   O12 2595   2.597   9.131   9.537 -0.1126  0.3499 -0.5677
   21DOPE    C1 2596   2.628   8.904   9.271  0.4971  0.0380  0.1158
   21DOPE    HA 2597   2.598   8.808   9.317  0.7499  0.6627  1.6626
   21DOPE    HB 2598   2.736   8.924   9.289  0.5510 -0.0828 -0.0794
   21DOPE    C2 2599   2.611   8.917   9.113 -0.1006  0.2443  0.6535
   21DOPE    HS 2600   2.680   8.848   9.061  0.5857  0.8818  0.6919
   21DOPE   O21 2601   2.633   9.050   9.063  0.4389  0.5356  0.0699
   21DOPE   C21 2602   2.761   9.080   9.059  0.0542 -0.0942 -0.1657
   21DOPE   O22 2603   2.853   9.007   9.085  0.0749 -0.2471  0.0294
   21DOPE   C22 2604   2.768   9.230   9.028  0.2928  1.1614  0.1071
   21DOPE   H2R 2605   2.701   9.282   9.099  1.6631  1.0462  1.5202
   21DOPE   H2S 2606   2.737   9.241   8.921  0.0040 -2.5140 -0.3050
   21DOPE    C3 2607   2.463   8.884   9.076 -0.3095 -1.1141 -0.0586
   21DOPE    HX 2608   2.409   8.952   9.145 -0.1893 -0.7353 -0.3347
   21DOPE    HY 2609   2.449   8.779   9.111 -1.9809 -0.0922  2.6167
   21DOPE   O31 2610   2.444   8.908   8.936  0.6281  0.3201  0.3151
   21DOPE   C31 2611   2.346   8.993   8.906 -0.5435 -0.1940 -0.0620
   21DOPE   O32 2612   2.267   9.042   8.982 -0.1162 -0.1750 -0.0040
   21DOPE   C32 2613   2.338   9.015   8.751 -0.1441  0.8518 -0.3193
   21DOPE   H2X 2614   2.349   9.121   8.721 -1.8613  0.7153 -1.5182
   21DOPE   H2Y 2615   2.426   8.957   8.714 -0.0213 -0.6842  2.1191
   21DOPE   C23 2616   2.912   9.275   9.034 -0.2706 -0.6202 -0.2574
   21DOPE   H3R 2617   2.973   9.233   8.951  1.4755  3.8842 -1.5099
   21DOPE   H3S 2618   2.963   9.244   9.128  0.5000  1.2218 -0.0356
   21DOPE   C24 2619   2.927   9.429   9.019 -0.1965 -0.0993 -0.4013
   21DOPE   H4R 2620   2.877   9.443   8.921 -0.2409 -1.6908 -0.6361
   21DOPE   H4S 2621   3.035   9.444   8.995 -0.7439 -2.0273 -4.9623
   21DOPE   C25 2622   2.877   9.514   9.130  0.3963  0.4418  0.5284
   21DOPE   H5R 2623   2.929   9.492   9.226 -2.2085 -1.5690  1.6226
   21DOPE   H5S 2624   2.771   9.491   9.155  0.6960 -0.6121  0.9067
   21DOPE   C26 2625   2.897   9.655   9.094  0.2107  0.0871  0.1720
   21DOPE   H6R 2626   2.999   9.675   9.055  0.5846 -2.0653 -0.0560
   21DOPE   H6S 2627   2.891   9.702   9.195  2.1557 -2.2957  1.4979
   21DOPE   C27 2628   2.787   9.712   9.006  0.7536 -0.3915  0.0448
   21DOPE   H7R 2629   2.771   9.818   9.033 -0.4570 -0.2882 -0.9987
   21DOPE   H7S 2630   2.696   9.649   9.014  0.9354 -0.5076  1.3983
   21DOPE   C28 2631   2.828   9.718   8.854 -0.5621 -0.7627 -0.2445
   21DOPE   H8R 2632   2.878   9.622   8.830  2.7260  0.7450 -0.0744
   21DOPE   H8S 2633   2.911   9.790   8.871 -1.5269 -0.2137  2.6898
   21DOPE   C29 2634   2.720   9.756   8.753  0.0076  0.2216  0.5306
   21DOPE   H9R 2635   2.618   9.759   8.794 -0.1992  1.1140 -0.0024
   21DOPE  C210 2636   2.744   9.779   8.621  1.1110 -0.4483  0.6015
   21DOPE  H10R 2637   2.660   9.785   8.550  1.2650  0.0995  0.4632
   21DOPE  C211 2638   2.875   9.794   8.556  0.9382 -0.3026  0.3351
   21DOPE  H11R 2639   2.935   9.701   8.555  0.5433 -0.5551 -0.5859
   21DOPE  H11S 2640   2.928   9.877   8.609 -1.4940  1.9445 -0.5314
   21DOPE  C212 2641   2.859   9.842   8.412  0.4829  0.8647 -0.0423
   21DOPE  H12R 2642   2.785   9.924   8.403 -0.3911  0.0377 -0.6606
   21DOPE  H12S 2643   2.822   9.756   8.351 -1.2286 -0.1428  2.2903
   21DOPE  C213 2644   2.988   9.888   8.343  0.3413  0.1726 -0.0075
   21DOPE  H13R 2645   3.068   9.926   8.411  0.4553  1.1134 -0.6511
   21DOPE  H13S 2646   2.965   9.978   8.281 -0.7599  0.1572  0.3595
   21DOPE  C214 2647   3.043   9.784   8.238  0.2394  0.5600  0.4438
   21DOPE  H14R 2648   3.121   9.839   8.180  0.2609  0.4696  0.3866
   21DOPE  H14S 2649   2.973   9.755   8.157  1.0364 -2.0680  0.6021
   21DOPE  C215 2650   3.104   9.656   8.298 -0.1227  0.5462 -0.0709
   21DOPE  H15R 2651   3.149   9.595   8.216  1.3181  0.0486  1.0527
   21DOPE  H15S 2652   3.021   9.598   8.344  0.8107 -0.6100  0.2122
   21DOPE  C216 2653   3.229   9.678   8.386  0.6570 -0.0442  0.0008
   21DOPE  H16R 2654   3.226   9.766   8.454 -0.7603 -1.0596  1.3227
   21DOPE  H16S 2655   3.320   9.700   8.327  0.7826 -1.4636 -0.3678
   21DOPE  C217 2656   3.262   9.554   8.468  0.2197 -0.2495  0.1453
   21DOPE  H17R 2657   3.366   9.565   8.505 -0.4197 -0.6464  2.1266
   21DOPE  H17S 2658   3.278   9.472   8.394  1.9603  0.3195 -0.1621
   21DOPE  C218 2659   3.164   9.514   8.578 -0.2308  0.6021  0.9727
   21DOPE  H18R 2660   3.183   9.570   8.672 -0.3218 -0.0751  1.4004
   21DOPE  H18S 2661   3.178   9.408   8.606 -1.6418 -0.4325 -1.8122
   21DOPE  H18T 2662   3.056   9.516   8.552  0.2121 -0.8460 -1.2926
   21DOPE   C33 2663   2.204   8.960   8.701  0.7936 -0.3267  0.3684
   21DOPE   H3X 2664   2.119   9.004   8.758  2.4281  3.3955  0.1498
   21DOPE   H3Y 2665   2.214   8.851   8.720  1.6544 -0.3288 -0.0559
   21DOPE   C34 2666   2.192   8.985   8.549  0.0135 -0.0202 -0.5019
   21DOPE   H4X 2667   2.290   8.966   8.501  0.0298  1.7434 -1.2523
   21DOPE   H4Y 2668   2.111   8.919   8.511 -2.6276  1.8013  1.5462
   21DOPE   C35 2669   2.154   9.132   8.515  0.4922 -1.0726  0.5580
   21DOPE   H5X 2670   2.246   9.188   8.541  2.0085 -2.3785 -1.6188
   21DOPE   H5Y 2671   2.060   9.165   8.562 -0.2583 -1.7560 -0.4114
   21DOPE   C36 2672   2.125   9.154   8.365  0.0960  0.5336 -0.6582
   21DOPE   H6X 2673   2.018   9.129   8.349  0.3692  0.2470 -2.1484
   21DOPE   H6Y 2674   2.175   9.084   8.295 -0.9160 -3.0304  1.8906
   21DOPE   C37 2675   2.152   9.294   8.314  0.2905 -0.2006  0.0543
   21DOPE   H7X 2676   2.104   9.364   8.386  1.2624  2.9030 -2.1378
   21DOPE   H7Y 2677   2.259   9.323   8.312 -0.3684  2.7724  1.6572
   21DOPE   C38 2678   2.083   9.330   8.183 -0.3400 -0.1002 -0.9879
   21DOPE   H8X 2679   2.072   9.441   8.181  0.9297  0.1214  1.1300
   21DOPE   H8Y 2680   1.982   9.286   8.179 -2.3120  3.8193  0.4573
   21DOPE   C39 2681   2.172   9.278   8.070  0.4322 -0.5564  0.7607
   21DOPE   H9X 2682   2.188   9.169   8.069 -0.5765 -0.7349 -1.1962
   21DOPE  C310 2683   2.226   9.353   7.970 -0.6773  0.5053 -0.6635
   21DOPE  H10X 2684   2.272   9.297   7.887  0.7191  0.9466 -0.2200
   21DOPE  C311 2685   2.212   9.498   7.950  0.0346  0.3404  0.0058
   21DOPE  H11X 2686   2.180   9.557   8.039  1.5839  0.6358  0.3880
   21DOPE  H11Y 2687   2.311   9.543   7.928 -0.5123  1.5453 -0.0753
   21DOPE  C312 2688   2.121   9.528   7.833 -0.3651 -0.8506 -0.2579
   21DOPE  H12X 2689   2.085   9.633   7.845  2.3197  0.0997  0.1241
   21DOPE  H12Y 2690   2.027   9.469   7.825 -0.8843  0.1424 -2.3340
   21DOPE  C313 2691   2.182   9.496   7.697 -0.4168  0.1208  0.1373
   21DOPE  H13X 2692   2.279   9.550   7.700 -1.1807  1.7120 -1.2978
   21DOPE  H13Y 2693   2.207   9.390   7.679 -1.2359 -0.2531  1.1286
   21DOPE  C314 2694   2.093   9.546   7.590  0.4515  0.2208  0.4770
   21DOPE  H14X 2695   2.079   9.653   7.618  0.4499 -0.0168  1.4144
   21DOPE  H14Y 2696   1.994   9.496   7.592  0.8669 -0.6606 -0.3637
   21DOPE  C315 2697   2.176   9.527   7.459  0.5377 -0.1437 -0.0916
   21DOPE  H15X 2698   2.212   9.423   7.443 -0.8143 -0.3454 -2.2863
   21DOPE  H15Y 2699   2.272   9.580   7.477 -0.8180  2.6131 -0.3762
   21DOPE  C316 2700   2.107   9.581   7.335 -0.0783 -0.3896 -0.0333
   21DOPE  H16X 2701   2.055   9.677   7.360  0.5096  0.2837 -1.3196
   21DOPE  H16Y 2702   2.024   9.511   7.312 -1.6963  1.1396  0.9035
   21DOPE  C317 2703   2.193   9.609   7.218  0.2975  0.1104 -0.4560
   21DOPE  H17X 2704   2.290   9.653   7.249 -0.3388 -0.1608  2.1779
   21DOPE  H17Y 2705   2.222   9.509   7.179  2.6203  0.1553  0.9470
   21DOPE  C318 2706   2.133   9.700   7.110 -0.1890 -0.1059  0.4697
   21DOPE  H18X 2707   2.029   9.671   7.087 -0.9066  0.8580  2.3518
   21DOPE  H18Y 2708   2.133   9.803   7.150  1.7720  0.4519 -0.7934
   21DOPE  H18Z 2709   2.199   9.698   7.021 -1.6762 -0.6433 -0.6602
   22DOPE     N 2710   1.383   5.567   9.794  0.4818  0.4164 -0.1706
   22DOPE   HN1 2711   1.279   5.572   9.800  0.4010  0.3606 -1.3391
   22DOPE   HN2 2712   1.425   5.647   9.742  0.5869  1.3644  1.3078
   22DOPE   HN3 2713   1.397   5.479   9.740  0.6330  0.2732  0.1023
   22DOPE   C12 2714   1.438   5.559   9.933  0.6200  0.5400  0.8040
   22DOPE  H12A 2715   1.354   5.547  10.005 -0.0203  2.0268  0.3511
   22DOPE  H12B 2716   1.484   5.659   9.948  2.0755  0.1547 -0.8294
   22DOPE   C11 2717   1.540   5.443   9.947 -0.6169  0.0673  0.4939
   22DOPE  H11A 2718   1.600   5.448  10.040  0.8986 -1.1723 -0.3784
   22DOPE  H11B 2719   1.615   5.460   9.867 -0.3348  2.0614  1.1244
   22DOPE     P 2720   1.465   5.219   9.821  0.0406 -0.2228  0.2875
   22DOPE   O13 2721   1.376   5.106   9.845 -0.2842 -0.5250 -0.1974
   22DOPE   O14 2722   1.606   5.188   9.783 -0.1713 -0.4052  0.2791
   22DOPE   O11 2723   1.402   5.324   9.721  0.2596  1.0467 -0.9746
   22DOPE   O12 2724   1.478   5.312   9.950 -0.0263 -0.2620  0.9151
   22DOPE    C1 2725   1.281   5.286   9.651  0.6191 -0.1443  0.0830
   22DOPE    HA 2726   1.212   5.373   9.654  0.3872 -0.3479  1.2309
   22DOPE    HB 2727   1.222   5.209   9.705  1.2102  2.2167  4.6005
   22DOPE    C2 2728   1.311   5.238   9.506 -0.1795 -0.3361  0.8492
   22DOPE    HS 2729   1.331   5.129   9.500 -1.7741 -0.5796 -1.9237
   22DOPE   O21 2730   1.407   5.323   9.449 -0.4957 -1.0296 -0.2152
   22DOPE   C21 2731   1.530   5.279   9.442  0.0352  0.2860  0.1702
   22DOPE   O22 2732   1.574   5.170   9.475  0.0432  0.4116  0.1475
   22DOPE   C22 2733   1.617   5.382   9.375  0.5575  0.4966 -0.0711
   22DOPE   H2R 2734   1.722   5.363   9.406  0.7954  0.0079 -1.1260
   22DOPE   H2S 2735   1.594   5.479   9.424  2.0067  0.7421  0.1837
   22DOPE    C3 2736   1.185   5.252   9.411  0.4998 -0.5280 -0.1630
   22DOPE    HX 2737   1.168   5.362   9.408  0.8284 -0.4890 -0.9210
   22DOPE    HY 2738   1.097   5.211   9.465  0.4945 -0.0211  0.2205
   22DOPE   O31 2739   1.209   5.193   9.284 -0.2850 -0.5477  0.7788
   22DOPE   C31 2740   1.095   5.148   9.228 -0.3668  0.1806  0.2168
   22DOPE   O32 2741   0.982   5.170   9.270  0.3127  0.5372 -0.4459
   22DOPE   C32 2742   1.132   5.082   9.097  0.3711 -0.3808 -0.1568
   22DOPE   H2X 2743   1.222   5.020   9.118  0.7324 -0.2715 -1.3205
   22DOPE   H2Y 2744   1.056   5.010   9.058 -0.9607  0.8437  0.0694
   22DOPE   C23 2745   1.625   5.363   9.220 -0.3620  0.4583  0.4503
   22DOPE   H3R 2746   1.649   5.260   9.186  1.2492  1.2846 -1.0427
   22DOPE   H3S 2747   1.713   5.424   9.190 -0.5075  1.4436  1.9097
   22DOPE   C24 2748   1.496   5.408   9.141 -0.1891  0.5725 -0.5288
   22DOPE   H4R 2749   1.481   5.509   9.183 -1.6749 -0.6889  2.2797
   22DOPE   H4S 2750   1.414   5.337   9.164 -0.2308  1.1871  1.3709
   22DOPE   C25 2751   1.523   5.417   8.993  0.3808 -0.7283 -1.0145
   22DOPE   H5R 2752   1.514   5.311   8.964 -2.3258 -1.3322  1.4853
   22DOPE   H5S 2753   1.621   5.452   8.955  0.1497  0.5957 -0.4598
   22DOPE   C26 2754   1.419   5.501   8.921  0.1508 -0.1294 -0.0237
   22DOPE   H6R 2755   1.423   5.608   8.949  0.4895 -0.5854  1.7521
   22DOPE   H6S 2756   1.317   5.469   8.953 -0.3899  0.5215 -1.0503
   22DOPE   C27 2757   1.411   5.494   8.766 -0.2332 -0.4077 -0.7550
   22DOPE   H7R 2758   1.365   5.396   8.742 -2.4600  0.8484 -1.9522
   22DOPE   H7S 2759   1.516   5.491   8.728 -0.1840 -0.0161 -0.6611
   22DOPE   C28 2760   1.340   5.614   8.703 -0.1516  0.2977  0.4567
   22DOPE   H8R 2761   1.357   5.603   8.593  3.3707  3.3345  0.5195
   22DOPE   H8S 2762   1.399   5.702   8.735 -0.6910  1.2624 -1.0673
   22DOPE   C29 2763   1.201   5.646   8.747  0.1671 -0.2151  0.0834
   22DOPE   H9R 2764   1.188   5.691   8.847  0.2953  1.9135 -0.8003
   22DOPE  C210 2765   1.090   5.631   8.672 -0.2053  0.2885 -0.4000
   22DOPE  H10R 2766   0.995   5.659   8.720 -0.3504 -0.2197 -0.3911
   22DOPE  C211 2767   1.081   5.578   8.528  0.1641 -0.9979  0.0381
   22DOPE  H11R 2768   1.177   5.527   8.504 -0.6986 -2.0282 -1.3489
   22DOPE  H11S 2769   1.065   5.659   8.454 -0.3799 -0.0255  1.1805
   22DOPE  C212 2770   0.966   5.476   8.510  0.6866  0.1249 -0.2880
   22DOPE  H12R 2771   0.970   5.453   8.402  1.1457  3.2362 -1.0518
   22DOPE  H12S 2772   0.867   5.522   8.530  1.5940  3.1027 -1.8986
   22DOPE  C213 2773   0.986   5.345   8.590  0.0456 -0.2719  0.1342
   22DOPE  H13R 2774   0.975   5.373   8.697 -3.6922  4.1500 -1.1001
   22DOPE  H13S 2775   1.087   5.303   8.572 -0.2069  0.1939 -2.8741
   22DOPE  C214 2776   0.884   5.238   8.558  0.0862 -0.2800 -0.2990
   22DOPE  H14R 2777   0.782   5.277   8.579 -0.5159 -2.1810  0.5278
   22DOPE  H14S 2778   0.906   5.147   8.617 -0.4509  0.8202  1.6601
   22DOPE  C215 2779   0.883   5.198   8.404 -0.1420 -0.5069  0.1749
   22DOPE  H15R 2780   0.987   5.199   8.366  0.1362 -0.5684  0.9154
   22DOPE  H15S 2781   0.833   5.277   8.344  0.5928 -0.8197 -0.8709
   22DOPE  C216 2782   0.809   5.071   8.372 -0.0337 -0.0408 -0.0505
   22DOPE  H16R 2783   0.703   5.082   8.405  0.0086  1.7132 -0.4195
   22DOPE  H16S 2784   0.843   4.985   8.433 -0.3393 -0.7952 -0.9220
   22DOPE  C217 2785   0.802   5.028   8.229 -0.2890  0.1458 -0.3044
   22DOPE  H17R 2786   0.721   5.087   8.181  0.0391  0.6482 -0.2437
   22DOPE  H17S 2787   0.771   4.921   8.237  0.7267 -0.0144  2.6716
   22DOPE  C218 2788   0.928   5.039   8.154 -0.4894 -0.4618  0.8794
   22DOPE  H18R 2789   0.957   5.141   8.121 -0.7855 -0.6632 -0.0257
   22DOPE  H18S 2790   0.931   4.982   8.059 -1.0435 -1.1104  1.2434
   22DOPE  H18T 2791   1.011   5.006   8.219 -0.2641 -1.7683 -0.0376
   22DOPE   C33 2792   1.198   5.184   8.999  0.3147  0.7309 -0.0470
   22DOPE   H3X 2793   1.271   5.241   9.060 -0.4357  0.1287  1.4547
   22DOPE   H3Y 2794   1.115   5.249   8.964  0.5326  1.5875  1.0015
   22DOPE   C34 2795   1.281   5.109   8.890  0.3031  0.5134  0.8322
   22DOPE   H4X 2796   1.308   5.193   8.823  0.8242  1.2997  1.9976
   22DOPE   H4Y 2797   1.381   5.073   8.921 -0.1996  0.9259  3.1173
   22DOPE   C35 2798   1.201   5.003   8.814  0.5931  0.4134  0.8938
   22DOPE   H5X 2799   1.110   5.063   8.789  1.2791  1.3144  0.5177
   22DOPE   H5Y 2800   1.171   4.918   8.879  0.2564 -0.5412 -0.4659
   22DOPE   C36 2801   1.257   4.955   8.679 -0.0484  0.6369  0.3698
   22DOPE   H6X 2802   1.358   4.913   8.700 -0.6344 -1.4204 -0.5986
   22DOPE   H6Y 2803   1.267   5.041   8.609 -3.3574  0.9878  0.1687
   22DOPE   C37 2804   1.163   4.865   8.601 -0.4876 -0.6314 -0.2644
   22DOPE   H7X 2805   1.180   4.768   8.654 -1.2524  0.5638  2.3579
   22DOPE   H7Y 2806   1.059   4.898   8.619 -0.0136  1.6923 -1.3552
   22DOPE   C38 2807   1.204   4.847   8.460 -0.0950 -0.3853  0.1824
   22DOPE   H8X 2808   1.309   4.821   8.432 -0.3908  0.1788 -1.5621
   22DOPE   H8Y 2809   1.170   4.938   8.407 -3.4015 -1.3288  0.4781
   22DOPE   C39 2810   1.126   4.739   8.397  0.1121 -0.7329 -0.2623
   22DOPE   H9X 2811   1.020   4.761   8.380  0.0324 -1.5599 -0.8772
   22DOPE  C310 2812   1.171   4.617   8.376 -0.1977  0.2745 -0.3425
   22DOPE  H10X 2813   1.104   4.546   8.325 -0.1086  0.6369 -0.9733
   22DOPE  C311 2814   1.315   4.571   8.397 -0.2155  0.5182  0.0257
   22DOPE  H11X 2815   1.337   4.488   8.326  2.3058  0.8028  0.3626
   22DOPE  H11Y 2816   1.391   4.649   8.375  2.1915 -1.6206  0.3126
   22DOPE  C312 2817   1.342   4.514   8.541  0.1799 -0.5443 -0.3036
   22DOPE  H12X 2818   1.329   4.597   8.614 -1.0091 -0.1690 -0.9235
   22DOPE  H12Y 2819   1.449   4.486   8.551  0.7393  0.9050 -1.8060
   22DOPE  C313 2820   1.257   4.390   8.579 -0.3596  0.3657 -0.0158
   22DOPE  H13X 2821   1.150   4.415   8.591 -1.1232 -2.3631 -0.3980
   22DOPE  H13Y 2822   1.262   4.319   8.494  0.9513 -0.0488  0.3773
   22DOPE  C314 2823   1.300   4.335   8.712  0.4756 -0.0803 -0.4137
   22DOPE  H14X 2824   1.215   4.276   8.753  0.2761  0.1134 -0.5514
   22DOPE  H14Y 2825   1.315   4.417   8.785  0.7431  0.9037 -1.5469
   22DOPE  C315 2826   1.423   4.248   8.707 -0.1764 -0.0551 -1.0353
   22DOPE  H15X 2827   1.507   4.314   8.676  0.5170 -0.2090  0.4298
   22DOPE  H15Y 2828   1.415   4.167   8.631 -1.2388  0.0035 -1.0031
   22DOPE  C316 2829   1.454   4.193   8.844 -0.2550  0.1931  0.1879
   22DOPE  H16X 2830   1.429   4.267   8.922  1.1653 -0.5598  1.4140
   22DOPE  H16Y 2831   1.563   4.170   8.845 -0.3369 -0.2107  0.1853
   22DOPE  C317 2832   1.386   4.059   8.878  0.2283 -0.7969  0.7435
   22DOPE  H17X 2833   1.276   4.067   8.889  0.1793 -1.1716  0.5192
   22DOPE  H17Y 2834   1.409   4.005   8.784 -0.1542 -0.4646  0.4566
   22DOPE  C318 2835   1.454   3.988   8.997 -0.6467  0.3316 -0.4286
   22DOPE  H18X 2836   1.428   3.882   9.018 -0.5350  0.8529  2.7350
   22DOPE  H18Y 2837   1.564   3.994   8.984 -0.5438  0.2043  0.3666
   22DOPE  H18Z 2838   1.427   4.045   9.088  0.4084 -1.3078  0.9919
   23DOPE     N 2839   3.956   0.931   9.659  0.1406  0.0194  0.2546
   23DOPE   HN1 2840   3.864   0.899   9.695 -0.1577 -0.0787 -0.5761
   23DOPE   HN2 2841   4.044   0.883   9.687  0.9639  1.1812 -0.2437
   23DOPE   HN3 2842   3.962   1.029   9.693 -2.5984 -0.2658  1.8636
   23DOPE   C12 2843   3.942   0.920   9.516 -0.1133 -0.0824  0.3234
   23DOPE  H12A 2844   4.044   0.919   9.472  0.1313 -0.9682  0.8964
   23DOPE  H12B 2845   3.887   1.008   9.476 -1.4533 -1.6353 -1.4786
   23DOPE   C11 2846   3.869   0.791   9.466  0.6484 -0.3226  0.0616
   23DOPE  H11A 2847   3.934   0.702   9.478  1.8362  0.3980 -0.8257
   23DOPE  H11B 2848   3.849   0.806   9.358 -0.6484 -0.8134  0.2150
   23DOPE     P 2849   3.671   0.642   9.535  0.0136 -0.1841  0.2380
   23DOPE   O13 2850   3.537   0.673   9.582 -0.2457  0.3648 -0.3577
   23DOPE   O14 2851   3.753   0.544   9.609 -1.0428  0.0815 -0.2551
   23DOPE   O11 2852   3.653   0.616   9.382  0.2410  0.1739 -0.1726
   23DOPE   O12 2853   3.748   0.780   9.540 -0.1612  0.5422  0.3113
   23DOPE    C1 2854   3.694   0.491   9.322 -0.6496 -0.0323 -0.6132
   23DOPE    HA 2855   3.605   0.430   9.296  1.8657 -3.8198 -1.1392
   23DOPE    HB 2856   3.746   0.429   9.398  1.5923  0.4676 -1.6702
   23DOPE    C2 2857   3.790   0.516   9.201 -0.4252 -0.2114 -0.4535
   23DOPE    HS 2858   3.892   0.522   9.244  0.6170 -2.1963 -2.4588
   23DOPE   O21 2859   3.744   0.624   9.123  0.1902  0.2201  0.1506
   23DOPE   C21 2860   3.846   0.693   9.072  0.3243 -0.7298 -0.1876
   23DOPE   O22 2861   3.965   0.678   9.107  0.6242  0.6716 -0.4223
   23DOPE   C22 2862   3.783   0.797   8.970 -0.0198  0.1652  0.9539
   23DOPE   H2R 2863   3.788   0.892   9.027  2.6258  0.2409  0.7352
   23DOPE   H2S 2864   3.677   0.778   8.942  0.0202 -0.7395  1.3709
   23DOPE    C3 2865   3.795   0.385   9.117 -0.2863  0.1660 -0.5406
   23DOPE    HX 2866   3.696   0.370   9.069 -1.0900 -1.7694  1.5473
   23DOPE    HY 2867   3.817   0.298   9.183 -2.4310 -0.9110 -1.1543
   23DOPE   O31 2868   3.886   0.399   9.004 -0.5370 -0.1624 -0.0119
   23DOPE   C31 2869   4.013   0.371   9.036 -0.4702 -0.0384 -0.5225
   23DOPE   O32 2870   4.051   0.330   9.141 -0.7638 -0.2675  0.3444
   23DOPE   C32 2871   4.099   0.410   8.916  0.3461  0.2474  0.0377
   23DOPE   H2X 2872   4.059   0.334   8.846  0.8719  0.4878 -0.5330
   23DOPE   H2Y 2873   4.075   0.508   8.871 -3.0590 -1.4488 -2.2523
   23DOPE   C23 2874   3.861   0.800   8.835  0.1769 -0.0941  0.2707
   23DOPE   H3R 2875   3.966   0.791   8.870  1.4401  1.5864 -2.7619
   23DOPE   H3S 2876   3.841   0.891   8.775 -1.5066 -1.2337 -0.9984
   23DOPE   C24 2877   3.829   0.675   8.742 -0.1924 -0.5546 -0.4267
   23DOPE   H4R 2878   3.834   0.587   8.810  0.5359 -0.1061  0.1136
   23DOPE   H4S 2879   3.913   0.659   8.670  0.4087  0.6737 -0.0309
   23DOPE   C25 2880   3.705   0.688   8.652  0.5206 -0.4810 -0.7583
   23DOPE   H5R 2881   3.627   0.754   8.695  1.8707  1.8171 -1.6659
   23DOPE   H5S 2882   3.659   0.586   8.649 -0.2807 -0.1526 -0.0093
   23DOPE   C26 2883   3.725   0.743   8.511  0.0450  0.3131 -1.1653
   23DOPE   H6R 2884   3.817   0.697   8.469 -0.8067 -2.8385  0.1209
   23DOPE   H6S 2885   3.745   0.852   8.514 -0.5682  0.4216 -0.7302
   23DOPE   C27 2886   3.595   0.729   8.424  0.2156 -0.3751 -0.0304
   23DOPE   H7R 2887   3.524   0.773   8.497  0.7190  1.4595 -0.6089
   23DOPE   H7S 2888   3.567   0.623   8.407 -0.6849 -0.2694  0.7527
   23DOPE   C28 2889   3.604   0.816   8.296  0.3136 -0.3595  0.2228
   23DOPE   H8R 2890   3.704   0.807   8.250  0.5238 -2.8502  1.0195
   23DOPE   H8S 2891   3.618   0.924   8.319  1.2489  0.5456 -3.7831
   23DOPE   C29 2892   3.493   0.784   8.203 -0.2197 -0.4504 -0.7022
   23DOPE   H9R 2893   3.399   0.838   8.223 -0.9066 -1.8780  0.0729
   23DOPE  C210 2894   3.482   0.677   8.128  0.2149  0.2976 -0.2090
   23DOPE  H10R 2895   3.385   0.652   8.082 -0.2219 -2.4301  1.9426
   23DOPE  C211 2896   3.595   0.580   8.101  0.6729  0.9462 -0.9675
   23DOPE  H11R 2897   3.680   0.613   8.164  0.8398  0.3518 -0.8770
   23DOPE  H11S 2898   3.633   0.592   7.997 -0.5755  2.1999 -1.3093
   23DOPE  C212 2899   3.568   0.436   8.146 -0.0797  0.3312  0.3193
   23DOPE  H12R 2900   3.519   0.430   8.245 -3.4017  0.2580 -1.2081
   23DOPE  H12S 2901   3.660   0.374   8.138  0.5514  1.1847  0.7541
   23DOPE  C213 2902   3.466   0.361   8.054 -0.6277  0.4747  0.2928
   23DOPE  H13R 2903   3.488   0.404   7.954 -1.4382  2.5951  0.9786
   23DOPE  H13S 2904   3.359   0.383   8.074 -0.8902 -0.7695  0.3414
   23DOPE  C214 2905   3.481   0.201   8.047 -0.3482  0.2142  0.8743
   23DOPE  H14R 2906   3.574   0.174   7.993 -0.4353  2.6256 -0.6584
   23DOPE  H14S 2907   3.417   0.165   7.964 -1.8041  0.4175  1.8638
   23DOPE  C215 2908   3.438   0.119   8.167  0.7033  0.6525 -0.1846
   23DOPE  H15R 2909   3.403   0.019   8.133  0.9400  1.0906 -1.7673
   23DOPE  H15S 2910   3.359   0.171   8.225 -1.2403  0.7694 -2.7526
   23DOPE  C216 2911   3.561   0.090   8.263 -0.0341 -0.4797 -0.9234
   23DOPE  H16R 2912   3.594   0.186   8.310  1.3424 -0.7850 -1.2266
   23DOPE  H16S 2913   3.654   0.054   8.215  0.3920  0.3643 -0.7558
   23DOPE  C217 2914   3.513  -0.010   8.375 -0.2990 -0.3965 -0.0170
   23DOPE  H17R 2915   3.480  -0.106   8.327  0.0460 -0.5181 -0.0131
   23DOPE  H17S 2916   3.427   0.040   8.424 -0.4893 -1.4416  0.7558
   23DOPE  C218 2917   3.612  -0.061   8.481 -0.0841 -0.2726  0.2088
   23DOPE  H18R 2918   3.702  -0.104   8.434  1.1880 -0.6338  2.8056
   23DOPE  H18S 2919   3.569  -0.136   8.550  1.6827  0.3641  2.1025
   23DOPE  H18T 2920   3.651   0.015   8.553 -0.4272  0.9413 -0.8415
   23DOPE   C33 2921   4.255   0.389   8.917 -0.4384  0.7914 -0.4474
   23DOPE   H3X 2922   4.261   0.305   8.989 -1.1848  0.3562 -0.8864
   23DOPE   H3Y 2923   4.300   0.482   8.959  0.1574  1.2292 -1.9920
   23DOPE   C34 2924   4.312   0.358   8.784 -0.0039  0.0969  0.2396
   23DOPE   H4X 2925   4.422   0.349   8.783  0.0252 -0.0849 -2.6386
   23DOPE   H4Y 2926   4.280   0.264   8.734  2.7679 -1.1851  0.7353
   23DOPE   C35 2927   4.272   0.473   8.683  0.3554  0.0483 -0.3923
   23DOPE   H5X 2928   4.300   0.563   8.742  2.5060 -1.8660  1.7636
   23DOPE   H5Y 2929   4.161   0.478   8.680  0.3113 -0.8988 -0.6544
   23DOPE   C36 2930   4.336   0.476   8.545  0.0667  0.2164 -0.0096
   23DOPE   H6X 2931   4.274   0.408   8.483  1.2170  0.4231 -1.4558
   23DOPE   H6Y 2932   4.436   0.435   8.572 -0.5949 -0.3759  1.7245
   23DOPE   C37 2933   4.346   0.615   8.479 -0.8395 -0.1091 -0.7454
   23DOPE   H7X 2934   4.331   0.604   8.369  0.9369  0.5086 -1.0778
   23DOPE   H7Y 2935   4.271   0.678   8.530  0.4638 -0.1325  1.3006
   23DOPE   C38 2936   4.489   0.669   8.488 -0.1924 -1.2768  0.8288
   23DOPE   H8X 2937   4.490   0.767   8.438  0.0523 -0.8184  1.7066
   23DOPE   H8Y 2938   4.549   0.610   8.416 -0.7711 -0.8145 -0.0461
   23DOPE   C39 2939   4.555   0.681   8.623 -0.1777  0.5497 -0.2820
   23DOPE   H9X 2940   4.563   0.586   8.679  0.2318 -1.0734 -2.9313
   23DOPE  C310 2941   4.575   0.792   8.691  0.1288 -0.2856  0.4637
   23DOPE  H10X 2942   4.613   0.791   8.794  1.1833 -2.2213  0.0998
   23DOPE  C311 2943   4.542   0.930   8.641  0.1266  0.4771 -0.4795
   23DOPE  H11X 2944   4.607   0.998   8.700 -1.4859  0.5273  1.3130
   23DOPE  H11Y 2945   4.573   0.945   8.535  1.5729 -0.9384 -0.3040
   23DOPE  C312 2946   4.405   0.991   8.674  0.2404 -0.2553 -0.0703
   23DOPE  H12X 2947   4.334   0.944   8.602  0.3439 -1.0164  0.3111
   23DOPE  H12Y 2948   4.403   1.098   8.644  0.0896  0.3265  1.8602
   23DOPE  C313 2949   4.359   0.971   8.816  0.4173  1.1129 -0.4367
   23DOPE  H13X 2950   4.346   0.864   8.845 -2.1688  1.4034 -0.3105
   23DOPE  H13Y 2951   4.421   1.022   8.893  0.8483  2.2442 -1.5082
   23DOPE  C314 2952   4.221   1.031   8.831 -0.0752 -0.3438 -0.0206
   23DOPE  H14X 2953   4.152   0.996   8.750  1.1866 -1.2208 -0.7632
   23DOPE  H14Y 2954   4.244   1.139   8.821  1.1210 -0.5604  0.1703
   23DOPE  C315 2955   4.150   1.014   8.967 -0.5229  0.7849  0.2210
   23DOPE  H15X 2956   4.228   1.028   9.045 -0.1103  0.0939 -0.0603
   23DOPE  H15Y 2957   4.114   0.909   8.978 -0.2891  0.5047 -1.4082
   23DOPE  C316 2958   4.028   1.106   8.976 -0.6731 -0.0185  0.1565
   23DOPE  H16X 2959   3.939   1.062   8.926 -0.3131 -0.6693  0.0813
   23DOPE  H16Y 2960   4.049   1.200   8.921 -0.8483  0.0477  0.2004
   23DOPE  C317 2961   3.987   1.135   9.115  0.2486 -0.1140 -0.1269
   23DOPE  H17X 2962   3.987   1.044   9.178  0.0391  1.3440  2.0801
   23DOPE  H17Y 2963   4.063   1.194   9.171  0.3749 -1.3428  1.0460
   23DOPE  C318 2964   3.851   1.205   9.122  0.3517  0.2947 -0.3615
   23DOPE  H18X 2965   3.777   1.141   9.070  0.0263 -0.0563  0.5062
   23DOPE  H18Y 2966   3.824   1.223   9.228  1.1282  1.4420 -0.3393
   23DOPE  H18Z 2967   3.861   1.301   9.067 -0.7698  1.3179  1.1535
   24DOPE     N 2968   7.967   7.055   9.775  0.5244  0.0450 -0.3302
   24DOPE   HN1 2969   7.977   6.977   9.843 -3.3525 -0.0644  0.3944
   24DOPE   HN2 2970   8.015   7.037   9.685  0.5553 -1.8201  0.0181
   24DOPE   HN3 2971   8.009   7.140   9.818  1.3518 -1.2995  1.6917
   24DOPE   C12 2972   7.816   7.065   9.756  0.4929  0.3055  0.3032
   24DOPE  H12A 2973   7.764   7.099   9.848  1.3184  0.3482  0.7583
   24DOPE  H12B 2974   7.784   6.959   9.749 -0.5701  0.5838  0.7127
   24DOPE   C11 2975   7.778   7.146   9.634 -0.6081 -0.5363 -0.3389
   24DOPE  H11A 2976   7.671   7.125   9.610 -0.7655 -1.8030  1.2653
   24DOPE  H11B 2977   7.834   7.094   9.554 -1.5643  0.4578 -1.6872
   24DOPE     P 2978   7.709   7.390   9.627 -0.1042 -0.1451 -0.1808
   24DOPE   O13 2979   7.763   7.518   9.673  0.2075 -0.4304 -0.1495
   24DOPE   O14 2980   7.578   7.359   9.684 -0.2430  0.0248  0.1334
   24DOPE   O11 2981   7.720   7.380   9.470  0.0005  0.3944  0.0132
   24DOPE   O12 2982   7.818   7.278   9.656  0.2435 -0.2686  0.1613
   24DOPE    C1 2983   7.603   7.373   9.387  0.5685 -0.3559  0.3307
   24DOPE    HA 2984   7.626   7.424   9.291  0.0286  0.9900  0.8929
   24DOPE    HB 2985   7.520   7.428   9.438  1.0846  2.2096 -1.3750
   24DOPE    C2 2986   7.557   7.231   9.346  0.2657  0.0789  0.5368
   24DOPE    HS 2987   7.520   7.174   9.434 -1.2892 -0.3837 -0.3670
   24DOPE   O21 2988   7.673   7.160   9.292 -0.0423  0.6662  0.0422
   24DOPE   C21 2989   7.669   7.033   9.288  0.1281  0.5284 -0.6347
   24DOPE   O22 2990   7.590   6.953   9.347  0.1452  0.3591 -0.3365
   24DOPE   C22 2991   7.799   6.982   9.227 -0.4042  0.1226  0.2962
   24DOPE   H2R 2992   7.868   6.962   9.311  1.0254 -0.6514 -0.9977
   24DOPE   H2S 2993   7.843   7.063   9.165  0.8984 -0.2066  0.7670
   24DOPE    C3 2994   7.448   7.233   9.238  0.6238  0.3901 -0.2719
   24DOPE    HX 2995   7.483   7.300   9.156  0.6822 -0.1256 -0.6777
   24DOPE    HY 2996   7.361   7.289   9.280  0.4255  0.5419 -0.8664
   24DOPE   O31 2997   7.411   7.112   9.180  0.4156  0.1592  0.6042
   24DOPE   C31 2998   7.315   7.030   9.232 -0.5000 -0.2225 -0.0044
   24DOPE   O32 2999   7.255   7.057   9.332  0.1795 -0.4453  0.3797
   24DOPE   C32 3000   7.302   6.910   9.138  0.7358  0.1196 -1.4064
   24DOPE   H2X 3001   7.202   6.930   9.094 -0.1992 -0.0024  0.5537
   24DOPE   H2Y 3002   7.382   6.898   9.062  1.0932 -0.8106 -0.8941
   24DOPE   C23 3003   7.778   6.854   9.147  0.0820  0.2409  1.0971
   24DOPE   H3R 3004   7.721   6.782   9.209 -0.6192 -2.7531 -2.6434
   24DOPE   H3S 3005   7.874   6.807   9.115 -0.9117 -0.6587 -0.6674
   24DOPE   C24 3006   7.696   6.886   9.016 -0.1735 -1.0006 -0.3381
   24DOPE   H4R 3007   7.748   6.971   8.967  0.4289 -0.2914  1.4398
   24DOPE   H4S 3008   7.599   6.939   9.028  0.5584  0.1538  0.8137
   24DOPE   C25 3009   7.690   6.780   8.905 -0.1877 -0.0444 -0.0026
   24DOPE   H5R 3010   7.626   6.697   8.944  0.8527 -1.1459 -0.5974
   24DOPE   H5S 3011   7.798   6.757   8.896  0.5586  2.2479  2.0301
   24DOPE   C26 3012   7.638   6.836   8.773  0.0812 -0.5560 -0.0479
   24DOPE   H6R 3013   7.677   6.776   8.689  1.4913  1.4429 -0.8896
   24DOPE   H6S 3014   7.677   6.939   8.763 -2.1002  0.2615 -0.8513
   24DOPE   C27 3015   7.481   6.831   8.771 -0.0486 -0.4110 -0.3202
   24DOPE   H7R 3016   7.459   6.911   8.844 -1.1971  0.0155 -1.0864
   24DOPE   H7S 3017   7.448   6.729   8.798  2.1425 -1.5154 -1.5226
   24DOPE   C28 3018   7.419   6.866   8.640 -0.9155 -0.9014 -0.9667
   24DOPE   H8R 3019   7.477   6.956   8.610 -1.5626 -0.7634 -1.8221
   24DOPE   H8S 3020   7.312   6.890   8.657 -0.6554 -1.7142  2.8787
   24DOPE   C29 3021   7.427   6.746   8.550 -0.0817  0.8797 -0.7875
   24DOPE   H9R 3022   7.404   6.649   8.596 -1.3933  1.5862  0.1098
   24DOPE  C210 3023   7.446   6.737   8.417  0.2086  0.4337  0.4228
   24DOPE  H10R 3024   7.434   6.637   8.372  0.9979  0.4813  0.0934
   24DOPE  C211 3025   7.466   6.843   8.313  0.5852 -0.6781  0.0382
   24DOPE  H11R 3026   7.562   6.836   8.258  0.2982  1.1653 -0.7554
   24DOPE  H11S 3027   7.472   6.941   8.364  2.3331 -1.6118  1.7667
   24DOPE  C212 3028   7.362   6.856   8.201  0.5754  0.1455  0.1580
   24DOPE  H12R 3029   7.412   6.912   8.120  0.3075 -0.4413 -0.4207
   24DOPE  H12S 3030   7.261   6.898   8.223  0.0166 -1.7755  1.5984
   24DOPE  C213 3031   7.338   6.725   8.132  0.0461  0.1666  0.4097
   24DOPE  H13R 3032   7.292   6.651   8.200 -1.0792 -0.4905 -0.9920
   24DOPE  H13S 3033   7.436   6.678   8.110  0.7021  1.3089  0.7930
   24DOPE  C214 3034   7.263   6.737   8.004 -0.0461  0.9708  0.2168
   24DOPE  H14R 3035   7.309   6.816   7.941 -1.6322  1.9678  0.2596
   24DOPE  H14S 3036   7.158   6.769   8.025 -1.8048 -2.7106 -1.8598
   24DOPE  C215 3037   7.252   6.591   7.941  0.5069 -0.2156 -0.1099
   24DOPE  H15R 3038   7.179   6.527   7.995  0.3715 -1.0561 -1.2563
   24DOPE  H15S 3039   7.345   6.536   7.967  0.2258 -0.4865  0.3401
   24DOPE  C216 3040   7.227   6.594   7.793 -0.5712 -0.6586 -0.4789
   24DOPE  H16R 3041   7.214   6.489   7.758 -0.1135 -0.9555  0.2286
   24DOPE  H16S 3042   7.302   6.650   7.733 -0.6747 -0.9551 -0.8914
   24DOPE  C217 3043   7.095   6.665   7.752  0.3382 -0.1501 -0.4227
   24DOPE  H17R 3044   7.104   6.768   7.794  1.8077  0.2418 -1.6104
   24DOPE  H17S 3045   7.009   6.620   7.806  0.6383 -0.4884 -0.2216
   24DOPE  C218 3046   7.072   6.672   7.603  0.5653 -0.2918  0.2835
   24DOPE  H18R 3047   7.099   6.573   7.560 -1.9386  0.1715 -2.7090
   24DOPE  H18S 3048   7.136   6.739   7.542 -0.4800 -1.0704 -1.7607
   24DOPE  H18T 3049   6.964   6.681   7.580  0.9453  0.0436 -1.5528
   24DOPE   C33 3050   7.287   6.786   9.230 -0.8575  0.6936 -0.1407
   24DOPE   H3X 3051   7.213   6.802   9.311  1.4009  1.5268  1.8726
   24DOPE   H3Y 3052   7.382   6.775   9.287 -0.7188  1.7387 -0.1530
   24DOPE   C34 3053   7.266   6.658   9.140 -0.0736  0.6348  0.5068
   24DOPE   H4X 3054   7.342   6.638   9.061  0.4287  0.0694  1.1160
   24DOPE   H4Y 3055   7.267   6.563   9.198 -0.0549 -1.2330 -2.3737
   24DOPE   C35 3056   7.117   6.637   9.085 -0.2206 -0.6923  1.0246
   24DOPE   H5X 3057   7.110   6.719   9.010  2.0970 -0.0567  1.4233
   24DOPE   H5Y 3058   7.042   6.643   9.167 -1.6646  0.3106 -0.3142
   24DOPE   C36 3059   7.097   6.496   9.016  0.5672  0.2438 -0.4564
   24DOPE   H6X 3060   6.990   6.490   8.985  0.1427  1.5678  0.6732
   24DOPE   H6Y 3061   7.121   6.420   9.092  0.3471 -1.6031 -2.1460
   24DOPE   C37 3062   7.170   6.475   8.880 -0.2908  0.3379  0.3435
   24DOPE   H7X 3063   7.276   6.502   8.901 -0.4359  1.2885 -0.0740
   24DOPE   H7Y 3064   7.169   6.366   8.859 -1.2898  0.5944 -1.1260
   24DOPE   C38 3065   7.123   6.563   8.766  0.6315 -0.1218 -0.1734
   24DOPE   H8X 3066   7.191   6.540   8.681  1.1028  1.7165 -0.3369
   24DOPE   H8Y 3067   7.130   6.672   8.787  3.1275 -0.3902  0.6171
   24DOPE   C39 3068   6.982   6.530   8.714 -0.1143 -0.4569 -0.2240
   24DOPE   H9X 3069   6.916   6.476   8.783 -0.3986  0.8660  0.5760
   24DOPE  C310 3070   6.945   6.562   8.588 -0.5244 -0.0629 -0.1740
   24DOPE  H10X 3071   6.839   6.541   8.568  0.0080 -2.6830 -0.6726
   24DOPE  C311 3072   7.026   6.630   8.479  0.0108  0.4105  0.2917
   24DOPE  H11X 3073   7.134   6.640   8.502  0.1360  0.0228 -0.1256
   24DOPE  H11Y 3074   7.016   6.568   8.388  1.4532  2.7898 -1.6073
   24DOPE  C312 3075   6.974   6.772   8.450  0.2194 -0.4538  0.2378
   24DOPE  H12X 3076   7.038   6.807   8.367  0.9576 -1.7441  0.2390
   24DOPE  H12Y 3077   6.995   6.836   8.538  0.9666 -0.8026  0.3190
   24DOPE  C313 3078   6.826   6.781   8.418 -0.6080 -0.2767 -0.0793
   24DOPE  H13X 3079   6.784   6.684   8.385 -1.0784  0.2439 -1.0585
   24DOPE  H13Y 3080   6.776   6.815   8.511  0.3682  0.1259  0.3032
   24DOPE  C314 3081   6.794   6.881   8.307 -0.4188 -1.0417  0.7843
   24DOPE  H14X 3082   6.814   6.823   8.214  3.0602  1.3445 -0.1275
   24DOPE  H14Y 3083   6.862   6.969   8.309  1.3096 -2.1891 -1.6900
   24DOPE  C315 3084   6.652   6.938   8.307 -0.1769  0.4295  0.0581
   24DOPE  H15X 3085   6.650   7.016   8.228 -0.4867 -0.5410 -0.9222
   24DOPE  H15Y 3086   6.620   6.972   8.408 -2.4908  2.4285 -1.2295
   24DOPE  C316 3087   6.546   6.842   8.260 -0.5372 -0.0440 -0.5685
   24DOPE  H16X 3088   6.552   6.757   8.331  1.6978  0.4075 -0.1323
   24DOPE  H16Y 3089   6.583   6.806   8.161 -1.1440  0.3502 -0.9456
   24DOPE  C317 3090   6.400   6.892   8.251 -0.4409  0.3489 -0.0925
   24DOPE  H17X 3091   6.392   6.975   8.177 -2.6560 -1.5129 -2.1424
   24DOPE  H17Y 3092   6.336   6.812   8.206 -0.4904  0.6919 -0.6483
   24DOPE  C318 3093   6.352   6.946   8.387 -0.0468 -0.7924  0.6400
   24DOPE  H18X 3094   6.245   6.973   8.380  0.7042  2.1063 -3.0032
   24DOPE  H18Y 3095   6.373   6.869   8.464  3.0456  0.3059  1.0397
   24DOPE  H18Z 3096   6.407   7.038   8.418 -3.4033  1.4026  0.5368
   25DOPE     N 3097   0.631   6.188   9.662 -0.2894  0.3593 -0.5898
   25DOPE   HN1 3098   0.536   6.153   9.685 -0.0355 -0.1309 -0.2738
   25DOPE   HN2 3099   0.689   6.170   9.747 -1.2885  0.5428  0.1469
   25DOPE   HN3 3100   0.622   6.290   9.646  1.4313  0.5001 -0.8671
   25DOPE   C12 3101   0.693   6.120   9.542  0.7461 -0.0431 -0.7104
   25DOPE  H12A 3102   0.677   6.181   9.451 -0.1073  1.7219  0.5624
   25DOPE  H12B 3103   0.635   6.025   9.536  2.7463 -1.4017  0.2006
   25DOPE   C11 3104   0.842   6.087   9.556 -0.2096  0.1602 -0.7052
   25DOPE  H11A 3105   0.893   6.175   9.601 -1.2046  0.8904 -0.9783
   25DOPE  H11B 3106   0.888   6.061   9.458 -1.2043 -1.3341 -0.7976
   25DOPE     P 3107   0.962   5.856   9.636  0.3803 -0.1345 -0.0230
   25DOPE   O13 3108   0.935   5.755   9.739  0.1976  0.9457  0.0887
   25DOPE   O14 3109   1.102   5.911   9.640 -0.2970  0.5754  0.7123
   25DOPE   O11 3110   0.924   5.804   9.493  0.3155 -0.0684  0.1458
   25DOPE   O12 3111   0.859   5.984   9.658  0.0237  0.3623 -0.1163
   25DOPE    C1 3112   1.014   5.724   9.411  0.2937  0.0765  0.1321
   25DOPE    HA 3113   0.954   5.633   9.387  0.2443  0.2346 -0.3626
   25DOPE    HB 3114   1.100   5.684   9.469  0.4018  0.5726  0.3210
   25DOPE    C2 3115   1.066   5.785   9.277  0.2444  0.3705  0.5993
   25DOPE    HS 3116   1.098   5.703   9.209  0.9878 -0.1746  1.5810
   25DOPE   O21 3117   1.168   5.880   9.304 -0.0785  0.4853 -0.2158
   25DOPE   C21 3118   1.291   5.833   9.305 -0.5702  0.7860 -0.9816
   25DOPE   O22 3119   1.324   5.714   9.302 -0.0494 -0.1936  0.4200
   25DOPE   C22 3120   1.391   5.949   9.293  0.1906  0.5403  0.5357
   25DOPE   H2R 3121   1.417   5.972   9.398  2.4344 -0.8069  0.3469
   25DOPE   H2S 3122   1.328   6.026   9.244 -1.7061  0.1416  2.2334
   25DOPE    C3 3123   0.959   5.862   9.195 -0.9065 -0.2915  0.9810
   25DOPE    HX 3124   1.000   5.913   9.105 -0.8603  0.1444  1.2449
   25DOPE    HY 3125   0.928   5.947   9.259  0.6558  1.0425  0.0601
   25DOPE   O31 3126   0.844   5.787   9.170 -0.1008 -0.4404 -0.0699
   25DOPE   C31 3127   0.850   5.721   9.055 -0.8834  0.0553 -0.3102
   25DOPE   O32 3128   0.954   5.707   9.000  0.1744  0.1895  0.2352
   25DOPE   C32 3129   0.716   5.672   9.012  0.4938  0.6045  0.1327
   25DOPE   H2X 3130   0.674   5.638   9.108  1.2084  1.2702  0.6959
   25DOPE   H2Y 3131   0.667   5.763   8.971 -1.1614 -0.1821  0.2870
   25DOPE   C23 3132   1.524   5.916   9.220 -0.1703 -0.5514  0.3098
   25DOPE   H3R 3133   1.523   5.890   9.112  2.1445  2.1696 -0.4743
   25DOPE   H3S 3134   1.563   5.836   9.286 -0.7605 -1.4890 -0.4543
   25DOPE   C24 3135   1.624   6.039   9.225  0.1148  0.2608  0.0233
   25DOPE   H4R 3136   1.637   6.069   9.331 -1.2586  2.8682 -0.4729
   25DOPE   H4S 3137   1.574   6.121   9.169 -0.7233 -0.6372 -0.5594
   25DOPE   C25 3138   1.765   5.994   9.163 -0.5358 -0.3894  0.1880
   25DOPE   H5R 3139   1.817   6.091   9.147 -3.5201  1.6908  2.0901
   25DOPE   H5S 3140   1.752   5.948   9.063  1.4265  2.5102 -1.5558
   25DOPE   C26 3141   1.850   5.908   9.253  0.1033  0.1637 -0.2191
   25DOPE   H6R 3142   1.775   5.834   9.291 -0.8335 -0.2769 -2.7602
   25DOPE   H6S 3143   1.886   5.951   9.349 -0.6185  2.5227 -0.9485
   25DOPE   C27 3144   1.969   5.837   9.181  0.2668  0.3957 -0.6630
   25DOPE   H7R 3145   1.932   5.802   9.082  0.7789 -1.5315 -0.2327
   25DOPE   H7S 3146   2.000   5.746   9.237 -1.1959 -0.2880 -0.9321
   25DOPE   C28 3147   2.085   5.943   9.164  0.4789 -0.0116 -0.5794
   25DOPE   H8R 3148   2.109   5.979   9.266 -1.4926 -1.9248  0.6443
   25DOPE   H8S 3149   2.063   6.034   9.105 -1.5196  0.4410  0.7678
   25DOPE   C29 3150   2.206   5.879   9.112  0.3300  0.3985  0.0469
   25DOPE   H9R 3151   2.255   5.809   9.183  0.6665  0.2870 -0.2896
   25DOPE  C210 3152   2.263   5.889   8.989 -0.2641  0.0731 -0.1111
   25DOPE  H10R 3153   2.347   5.822   8.966 -0.2965 -0.2183  0.5955
   25DOPE  C211 3154   2.201   5.951   8.869  0.1898 -0.6465 -0.2746
   25DOPE  H11R 3155   2.274   5.939   8.785  1.7848  1.2566  0.7527
   25DOPE  H11S 3156   2.201   6.061   8.879 -1.2401 -0.5498 -1.0448
   25DOPE  C212 3157   2.054   5.916   8.835  0.4544  0.1777  0.3452
   25DOPE  H12R 3158   2.027   5.983   8.751 -1.5593 -1.6351 -0.5599
   25DOPE  H12S 3159   2.001   5.943   8.929 -0.1110  3.5720 -0.8279
   25DOPE  C213 3160   2.029   5.765   8.803 -0.1060  0.3314 -0.3332
   25DOPE  H13R 3161   2.040   5.706   8.897 -0.8247 -1.0636 -1.0925
   25DOPE  H13S 3162   2.103   5.724   8.732 -2.1155  1.5212 -3.3274
   25DOPE  C214 3163   1.887   5.749   8.757 -0.1307 -0.5694  0.3518
   25DOPE  H14R 3164   1.843   5.843   8.719  1.7743  0.2994  0.1577
   25DOPE  H14S 3165   1.828   5.705   8.840 -0.4541  4.3356  3.0932
   25DOPE  C215 3166   1.896   5.654   8.641  0.3133  0.2114  0.2706
   25DOPE  H15R 3167   1.983   5.685   8.579  2.0756 -0.5249  2.2593
   25DOPE  H15S 3168   1.807   5.663   8.575  1.1877  4.8467 -0.6439
   25DOPE  C216 3169   1.914   5.507   8.689 -0.0754 -0.2883 -0.1265
   25DOPE  H16R 3170   1.823   5.476   8.745 -0.7112  1.3692 -0.1849
   25DOPE  H16S 3171   2.002   5.503   8.757  1.6907 -0.9306 -2.3375
   25DOPE  C217 3172   1.938   5.416   8.569 -0.1960  0.3377 -0.0591
   25DOPE  H17R 3173   1.997   5.459   8.486 -0.7514  0.1017 -0.5797
   25DOPE  H17S 3174   1.844   5.395   8.514 -0.5883 -0.2078  0.7949
   25DOPE  C218 3175   1.987   5.281   8.606  0.7109 -0.4177 -0.3105
   25DOPE  H18R 3176   2.087   5.284   8.654 -0.0816 -0.5767  1.4270
   25DOPE  H18S 3177   1.994   5.212   8.519 -1.5415 -0.2908 -0.6456
   25DOPE  H18T 3178   1.916   5.239   8.681 -0.8652  0.1830 -1.4144
   25DOPE   C33 3179   0.716   5.555   8.908  0.0740 -0.1969 -0.9631
   25DOPE   H3X 3180   0.680   5.468   8.967 -0.6182  0.7422  0.0550
   25DOPE   H3Y 3181   0.813   5.524   8.864  0.3493  0.6561 -0.9788
   25DOPE   C34 3182   0.635   5.584   8.780 -0.1333  0.4350 -0.5064
   25DOPE   H4X 3183   0.678   5.678   8.737  0.9768  0.6054  0.8910
   25DOPE   H4Y 3184   0.650   5.497   8.713 -0.3804 -1.2579  1.5418
   25DOPE   C35 3185   0.480   5.603   8.800 -0.7820  0.0067  0.5508
   25DOPE   H5X 3186   0.461   5.680   8.878  1.1592  0.6177  0.4657
   25DOPE   H5Y 3187   0.423   5.511   8.826  0.0105 -0.3675  1.0115
   25DOPE   C36 3188   0.412   5.662   8.675 -0.9184  0.7178 -0.0327
   25DOPE   H6X 3189   0.456   5.608   8.589  1.9192  3.7308 -0.6835
   25DOPE   H6Y 3190   0.449   5.765   8.655  2.3441 -0.5640 -1.1614
   25DOPE   C37 3191   0.257   5.651   8.685 -0.9339 -0.1225  0.2281
   25DOPE   H7X 3192   0.225   5.554   8.728  1.2532 -0.5239  1.0372
   25DOPE   H7Y 3193   0.217   5.735   8.747  0.1330  2.8965 -2.8227
   25DOPE   C38 3194   0.183   5.663   8.551  0.7876  0.3627  0.1042
   25DOPE   H8X 3195   0.080   5.623   8.560  1.6405 -2.0228 -0.0949
   25DOPE   H8Y 3196   0.221   5.580   8.488 -0.6715  0.6641 -1.2113
   25DOPE   C39 3197   0.196   5.799   8.492 -0.4301  0.1482 -0.5739
   25DOPE   H9X 3198   0.297   5.841   8.480 -0.6901  0.8129 -0.4612
   25DOPE  C310 3199   0.092   5.872   8.470  0.4344 -0.1755  0.4145
   25DOPE  H10X 3200   0.102   5.978   8.441  0.0653 -0.1039  0.5486
   25DOPE  C311 3201  -0.056   5.828   8.474  0.2642 -0.1740 -0.2499
   25DOPE  H11X 3202  -0.074   5.753   8.394 -0.9337  0.1723 -0.3287
   25DOPE  H11Y 3203  -0.071   5.773   8.569 -1.0521  0.3473 -0.1327
   25DOPE  C312 3204  -0.158   5.943   8.449 -0.0098  0.1067  0.2056
   25DOPE  H12X 3205  -0.242   5.897   8.392 -0.1610  0.8413 -0.1859
   25DOPE  H12Y 3206  -0.120   6.021   8.379 -2.4322 -0.1644 -1.5814
   25DOPE  C313 3207  -0.192   6.019   8.574 -0.2406  0.3887  0.5586
   25DOPE  H13X 3208  -0.232   5.945   8.648 -1.3442 -1.3258 -1.6428
   25DOPE  H13Y 3209  -0.097   6.057   8.618  0.4186 -0.0978 -0.4145
   25DOPE  C314 3210  -0.292   6.137   8.563  0.0462 -0.4899  0.0135
   25DOPE  H14X 3211  -0.318   6.180   8.662 -2.2606 -1.5318 -0.0558
   25DOPE  H14Y 3212  -0.387   6.094   8.524 -0.3274 -0.6048  1.0159
   25DOPE  C315 3213  -0.255   6.247   8.460 -0.3119 -0.3707 -0.2853
   25DOPE  H15X 3214  -0.336   6.322   8.447  0.6456  0.6545 -0.4610
   25DOPE  H15Y 3215  -0.227   6.196   8.365  3.0191  0.8980 -0.1227
   25DOPE  C316 3216  -0.140   6.334   8.513 -0.1124  0.2591 -0.9747
   25DOPE  H16X 3217  -0.051   6.268   8.505  1.7834  2.8398 -3.3681
   25DOPE  H16Y 3218  -0.154   6.356   8.621  0.5370 -0.6276 -0.7011
   25DOPE  C317 3219  -0.120   6.465   8.436  0.2025  0.3951  1.7267
   25DOPE  H17X 3220  -0.145   6.430   8.333 -0.1849 -0.5994  2.1483
   25DOPE  H17Y 3221  -0.194   6.543   8.464 -1.1530 -0.1041 -0.2059
   25DOPE  C318 3222   0.018   6.531   8.433 -0.4070  0.1587 -0.0428
   25DOPE  H18X 3223   0.050   6.548   8.538  1.8283 -0.1170 -0.6206
   25DOPE  H18Y 3224   0.093   6.454   8.403 -0.6151 -0.9970  2.1749
   25DOPE  H18Z 3225   0.027   6.620   8.367 -0.3366  0.0644 -0.1603
   26DOPE     N 3226   8.847   7.604   9.394 -0.5903 -0.1219  0.5432
   26DOPE   HN1 3227   8.929   7.604   9.458 -0.0085  0.1515 -0.1809
   26DOPE   HN2 3228   8.809   7.700   9.403 -1.5445 -0.2551 -1.5339
   26DOPE   HN3 3229   8.781   7.528   9.420  0.5075 -0.2414  3.2504
   26DOPE   C12 3230   8.906   7.595   9.257 -0.2441  0.0380  0.5336
   26DOPE  H12A 3231   8.940   7.698   9.234 -1.1773  0.2600  0.1026
   26DOPE  H12B 3232   8.836   7.570   9.175 -0.0360 -1.2685  0.7298
   26DOPE   C11 3233   9.027   7.495   9.244  0.4389  0.1086 -0.2045
   26DOPE  H11A 3234   9.111   7.535   9.304 -0.8888 -0.9204  2.5203
   26DOPE  H11B 3235   9.051   7.483   9.136  0.4175  3.2864 -0.6657
   26DOPE     P 3236   9.042   7.292   9.410 -0.0383 -0.0882 -0.2923
   26DOPE   O13 3237   8.934   7.220   9.481 -0.2645 -0.2284 -0.0423
   26DOPE   O14 3238   9.108   7.387   9.499  0.4797  0.5133  0.0616
   26DOPE   O11 3239   9.144   7.187   9.349 -0.8455 -0.3398  0.2428
   26DOPE   O12 3240   8.971   7.369   9.294  0.0859 -0.9963  0.0051
   26DOPE    C1 3241   9.152   7.152   9.214  0.1622 -0.3296 -0.4233
   26DOPE    HA 3242   9.257   7.124   9.189 -0.9816 -2.8131 -2.9467
   26DOPE    HB 3243   9.125   7.238   9.150  0.6879  0.0896 -0.0917
   26DOPE    C2 3244   9.072   7.032   9.189  0.2115 -0.1189 -0.1707
   26DOPE    HS 3245   9.110   6.982   9.097 -0.3227  0.5203 -0.7427
   26DOPE   O21 3246   8.935   7.064   9.173  0.0923  0.2616 -1.3819
   26DOPE   C21 3247   8.906   7.110   9.056 -0.6082  1.1264  0.3258
   26DOPE   O22 3248   8.986   7.127   8.962 -0.0503 -0.3583 -0.2878
   26DOPE   C22 3249   8.765   7.159   9.054  0.4193 -0.9701  0.8294
   26DOPE   H2R 3250   8.757   7.229   9.140  3.3104  1.6321 -0.8395
   26DOPE   H2S 3251   8.692   7.080   9.083 -1.7605  1.1761  1.4740
   26DOPE    C3 3252   9.088   6.931   9.308  0.2178 -0.0443 -0.2154
   26DOPE    HX 3253   9.024   6.969   9.390 -0.2163 -1.9436  0.3696
   26DOPE    HY 3254   9.191   6.933   9.348  0.2560 -0.0246 -0.3148
   26DOPE   O31 3255   9.064   6.790   9.273  0.6340  0.4209 -0.0501
   26DOPE   C31 3256   8.934   6.762   9.290 -0.3023 -0.0575  0.5671
   26DOPE   O32 3257   8.851   6.831   9.344 -0.1651 -0.5282 -0.1019
   26DOPE   C32 3258   8.901   6.627   9.241 -0.4365  0.3882 -0.2115
   26DOPE   H2X 3259   8.982   6.591   9.174 -0.2054 -1.0449  0.7918
   26DOPE   H2Y 3260   8.880   6.568   9.333 -1.0392 -1.1954 -1.3276
   26DOPE   C23 3261   8.732   7.212   8.915 -0.7691 -0.4164 -0.2605
   26DOPE   H3R 3262   8.741   7.129   8.842 -1.0782 -1.0149  0.3719
   26DOPE   H3S 3263   8.800   7.297   8.892  0.6843 -0.5577  2.9022
   26DOPE   C24 3264   8.588   7.264   8.921 -0.0345  0.0591  0.3837
   26DOPE   H4R 3265   8.575   7.339   8.839 -1.7301 -0.6965 -0.0786
   26DOPE   H4S 3266   8.573   7.309   9.021 -0.1952  1.3047 -0.1749
   26DOPE   C25 3267   8.503   7.142   8.899  0.0884 -0.0613 -0.8545
   26DOPE   H5R 3268   8.507   7.066   8.980  1.3845  2.1449  1.2893
   26DOPE   H5S 3269   8.522   7.084   8.806 -4.0354  0.9984 -2.5867
   26DOPE   C26 3270   8.354   7.173   8.886 -0.3614  0.0164 -0.1544
   26DOPE   H6R 3271   8.341   7.239   8.798 -0.9029 -0.9140 -0.7886
   26DOPE   H6S 3272   8.336   7.234   8.977 -1.1696 -0.7844  0.2396
   26DOPE   C27 3273   8.265   7.053   8.859  0.0060 -0.1281  0.5120
   26DOPE   H7R 3274   8.257   6.999   8.956 -0.6878  2.3441  1.9197
   26DOPE   H7S 3275   8.306   6.984   8.783 -3.0378 -1.9998  0.3935
   26DOPE   C28 3276   8.127   7.104   8.820 -0.3572  0.2758  0.2707
   26DOPE   H8R 3277   8.067   7.014   8.797 -1.6842  0.8799  1.2392
   26DOPE   H8S 3278   8.128   7.168   8.729  0.7073  1.5040  1.1118
   26DOPE   C29 3279   8.053   7.162   8.936  0.2423 -0.0764  0.1817
   26DOPE   H9R 3280   8.071   7.112   9.032  0.3660  0.4706  0.4471
   26DOPE  C210 3281   7.969   7.265   8.934 -0.3524  0.3905  0.6466
   26DOPE  H10R 3282   7.932   7.314   9.025  0.0470  1.9833 -0.0137
   26DOPE  C211 3283   7.940   7.344   8.813 -0.3397 -0.3869 -0.1608
   26DOPE  H11R 3284   8.014   7.326   8.733  2.0458 -0.9232  2.0456
   26DOPE  H11S 3285   7.956   7.450   8.841 -1.0224  0.1499 -1.6907
   26DOPE  C212 3286   7.803   7.330   8.738 -0.1292  0.3262 -0.2246
   26DOPE  H12R 3287   7.796   7.233   8.686  1.6810 -1.6975  2.9770
   26DOPE  H12S 3288   7.811   7.405   8.657  1.2543 -0.8678 -1.2360
   26DOPE  C213 3289   7.678   7.342   8.828 -0.4247  0.2371 -0.5012
   26DOPE  H13R 3290   7.659   7.445   8.865 -1.6369 -0.3557  0.6286
   26DOPE  H13S 3291   7.696   7.270   8.911 -0.6297  0.1088 -0.5682
   26DOPE  C214 3292   7.557   7.284   8.754  0.2162  0.4033  0.3220
   26DOPE  H14R 3293   7.575   7.189   8.699  0.7938  1.1510 -0.8100
   26DOPE  H14S 3294   7.520   7.360   8.683  1.4274 -0.1262 -0.9175
   26DOPE  C215 3295   7.434   7.264   8.844  0.6980  0.5774  0.5262
   26DOPE  H15R 3296   7.447   7.348   8.915  0.5544  1.0871 -0.0442
   26DOPE  H15S 3297   7.455   7.168   8.897  0.9845  0.2773 -0.1189
   26DOPE  C216 3298   7.298   7.266   8.776  0.3200 -0.0453  0.0703
   26DOPE  H16R 3299   7.307   7.183   8.701 -1.9093  0.8484 -1.3046
   26DOPE  H16S 3300   7.281   7.354   8.711 -0.1851 -0.9893 -1.1392
   26DOPE  C217 3301   7.180   7.231   8.866 -0.0221 -0.3253 -0.0021
   26DOPE  H17R 3302   7.189   7.135   8.921  0.6723 -0.3206 -0.0952
   26DOPE  H17S 3303   7.092   7.235   8.798  1.1143  2.7297 -1.4742
   26DOPE  C218 3304   7.152   7.335   8.973 -0.2471 -0.0799 -0.8254
   26DOPE  H18R 3305   7.245   7.363   9.026  0.1893 -1.5862 -0.7490
   26DOPE  H18S 3306   7.069   7.304   9.041 -0.1565 -0.2481 -0.7909
   26DOPE  H18T 3307   7.109   7.423   8.921 -0.2921 -0.8469 -2.1425
   26DOPE   C33 3308   8.776   6.623   9.149 -0.7574  0.0441 -0.4207
   26DOPE   H3X 3309   8.692   6.684   9.189 -1.0377  0.3443 -1.4433
   26DOPE   H3Y 3310   8.741   6.517   9.155 -0.4713  0.0093  3.1254
   26DOPE   C34 3311   8.793   6.650   9.001  0.5256 -0.0199  0.6437
   26DOPE   H4X 3312   8.693   6.658   8.953 -1.3103 -1.2439  3.9448
   26DOPE   H4Y 3313   8.840   6.750   8.992 -1.5663  0.8622 -1.2384
   26DOPE   C35 3314   8.890   6.561   8.920 -0.6006 -0.3742  0.4458
   26DOPE   H5X 3315   8.845   6.463   8.894  0.2372 -0.5060 -0.5531
   26DOPE   H5Y 3316   8.984   6.544   8.977 -0.5433 -0.6099  0.2822
   26DOPE   C36 3317   8.936   6.629   8.788  0.2012 -0.1269 -0.3139
   26DOPE   H6X 3318   8.860   6.698   8.744 -0.8565  0.3337  2.0929
   26DOPE   H6Y 3319   8.959   6.549   8.715  0.0206  0.6254 -1.2310
   26DOPE   C37 3320   9.067   6.711   8.806  0.3413  1.1352 -0.1709
   26DOPE   H7X 3321   9.055   6.771   8.898 -3.0009 -0.1580  0.3876
   26DOPE   H7Y 3322   9.156   6.646   8.821  0.1576  0.7114 -0.8606
   26DOPE   C38 3323   9.081   6.806   8.694  0.3623 -0.4873 -0.4651
   26DOPE   H8X 3324   9.073   6.739   8.605 -0.4064 -1.6427  0.4453
   26DOPE   H8Y 3325   9.188   6.837   8.692 -0.3503  2.2105 -0.5747
   26DOPE   C39 3326   8.989   6.922   8.697 -0.6989  0.3139  0.9470
   26DOPE   H9X 3327   9.016   6.999   8.772 -0.3152 -0.0009  1.1369
   26DOPE  C310 3328   8.895   6.942   8.605 -0.9513 -0.2195  0.2296
   26DOPE  H10X 3329   8.821   7.021   8.625 -0.3615  1.0467 -2.2153
   26DOPE  C311 3330   8.859   6.850   8.492 -1.0476  0.3006 -0.3738
   26DOPE  H11X 3331   8.854   6.742   8.518 -0.3239  0.0292 -1.3106
   26DOPE  H11Y 3332   8.758   6.875   8.454 -1.1174  2.8359  1.2333
   26DOPE  C312 3333   8.963   6.853   8.373  0.0388  0.1300  0.0381
   26DOPE  H12X 3334   9.067   6.829   8.402  0.7195  1.6083 -1.0954
   26DOPE  H12Y 3335   8.962   6.958   8.337  1.1748 -0.3114 -1.3865
   26DOPE  C313 3336   8.917   6.761   8.261  0.4158  0.1242  0.3763
   26DOPE  H13X 3337   8.920   6.656   8.297  1.4797 -1.0905 -2.8956
   26DOPE  H13Y 3338   8.816   6.794   8.229  0.0958 -1.1350  0.0466
   26DOPE  C314 3339   9.017   6.763   8.146 -0.2167 -0.2522 -0.2147
   26DOPE  H14X 3340   9.112   6.729   8.192 -0.5941  0.7128  1.3373
   26DOPE  H14Y 3341   9.036   6.865   8.107 -0.3707  0.7231  2.1238
   26DOPE  C315 3342   8.976   6.668   8.040 -0.0256  0.5511  0.6179
   26DOPE  H15X 3343   9.007   6.716   7.944  0.6366 -0.5675  0.2543
   26DOPE  H15Y 3344   8.865   6.667   8.046  0.0485 -1.0114  2.2455
   26DOPE  C316 3345   9.025   6.519   8.057  0.2389  0.2778  0.0407
   26DOPE  H16X 3346   8.961   6.486   8.142  0.4426 -0.3032 -0.0271
   26DOPE  H16Y 3347   9.132   6.517   8.085 -0.0736 -1.6874  1.3303
   26DOPE  C317 3348   8.980   6.444   7.934 -0.3142 -0.3045 -0.1524
   26DOPE  H17X 3349   8.871   6.460   7.923 -0.2092  0.0173 -0.7608
   26DOPE  H17Y 3350   9.016   6.497   7.844 -1.9729  1.4480  0.1618
   26DOPE  C318 3351   9.014   6.289   7.928  0.3378  0.2324 -0.1283
   26DOPE  H18X 3352   8.968   6.236   8.015  1.0935 -0.9152 -0.4082
   26DOPE  H18Y 3353   8.973   6.245   7.834 -3.8387 -0.2557  1.6818
   26DOPE  H18Z 3354   9.124   6.274   7.925 -0.1165 -4.6240 -2.6295
   27DOPE     N 3355   6.658   0.021   9.768  0.5643  0.0344 -0.1746
   27DOPE   HN1 3356   6.574  -0.002   9.825 -0.4071  2.6569 -0.4357
   27DOPE   HN2 3357   6.714   0.097   9.810 -1.4306  1.9726 -0.8373
   27DOPE   HN3 3358   6.620   0.051   9.676 -0.0294 -1.5141 -0.4706
   27DOPE   C12 3359   6.747  -0.100   9.746  0.3810 -0.3749  0.3204
   27DOPE  H12A 3360   6.689  -0.194   9.744  0.7857 -0.7702  2.9862
   27DOPE  H12B 3361   6.818  -0.098   9.832  2.6701  1.4477 -1.4588
   27DOPE   C11 3362   6.813  -0.090   9.613 -0.0091 -0.4074 -0.0637
   27DOPE  H11A 3363   6.743  -0.111   9.529 -1.3178  0.0666  0.8811
   27DOPE  H11B 3364   6.883  -0.175   9.602 -0.1471 -0.2316 -3.8611
   27DOPE     P 3365   7.039   0.039   9.638  0.0198  0.1079  0.2750
   27DOPE   O13 3366   7.086  -0.067   9.736 -0.1131  0.0570  0.2139
   27DOPE   O14 3367   7.071   0.180   9.670 -0.0794 -0.2715 -0.1197
   27DOPE   O11 3368   7.101   0.014   9.495 -0.8336 -0.1548 -0.1014
   27DOPE   O12 3369   6.889   0.029   9.605  0.6553 -0.4991  0.0236
   27DOPE    C1 3370   7.057   0.099   9.387  0.1682 -0.0703  0.2122
   27DOPE    HA 3371   7.147   0.135   9.333 -0.3078 -0.9827 -1.2347
   27DOPE    HB 3372   6.998   0.188   9.418 -1.0035 -1.1235  1.1044
   27DOPE    C2 3373   6.984   0.007   9.290 -0.1788  0.1152  0.2552
   27DOPE    HS 3374   6.899  -0.055   9.328 -0.0171 -2.5981 -3.2160
   27DOPE   O21 3375   7.082  -0.081   9.246  0.3798  0.3700  0.2791
   27DOPE   C21 3376   7.074  -0.214   9.283 -0.2705  0.5432 -0.1790
   27DOPE   O22 3377   6.988  -0.258   9.358  0.1649 -0.2427 -0.1203
   27DOPE   C22 3378   7.195  -0.281   9.218 -0.1979 -0.7958 -0.0646
   27DOPE   H2R 3379   7.248  -0.340   9.295 -3.1124 -0.7517  2.1482
   27DOPE   H2S 3380   7.267  -0.203   9.187  0.1998 -1.0434  0.2359
   27DOPE    C3 3381   6.924   0.089   9.166  0.3018  0.0621 -0.1922
   27DOPE    HX 3382   7.000   0.168   9.146  0.9551 -0.4999  0.0294
   27DOPE    HY 3383   6.835   0.149   9.196  0.7820  0.7727 -0.1771
   27DOPE   O31 3384   6.886   0.013   9.057 -0.5305 -0.1204 -0.2401
   27DOPE   C31 3385   6.771  -0.065   9.064  0.3600 -0.6822 -0.5593
   27DOPE   O32 3386   6.696  -0.070   9.159 -0.6983 -0.3563  0.3306
   27DOPE   C32 3387   6.754  -0.149   8.940 -0.1701  0.1477 -0.1742
   27DOPE   H2X 3388   6.814  -0.089   8.868  1.4104  2.2032  2.6856
   27DOPE   H2Y 3389   6.802  -0.247   8.959 -1.8235 -0.8940 -1.0787
   27DOPE   C23 3390   7.154  -0.367   9.101  0.4417  0.5620 -1.0876
   27DOPE   H3R 3391   7.247  -0.379   9.041  1.8154 -1.0795  1.1936
   27DOPE   H3S 3392   7.079  -0.318   9.036 -1.6809 -3.5643 -2.1219
   27DOPE   C24 3393   7.106  -0.505   9.140 -0.2333  0.1526 -0.4182
   27DOPE   H4R 3394   7.000  -0.500   9.172 -0.1125  1.7314 -0.1494
   27DOPE   H4S 3395   7.168  -0.542   9.225 -1.8847 -0.5814  0.5151
   27DOPE   C25 3396   7.111  -0.599   9.021  0.0493 -0.2854 -0.1741
   27DOPE   H5R 3397   7.114  -0.529   8.935  2.4350  1.6562  1.3624
   27DOPE   H5S 3398   7.012  -0.646   9.005 -0.2526  0.8470 -1.9164
   27DOPE   C26 3399   7.229  -0.696   9.030  0.1775 -0.4190 -0.4988
   27DOPE   H6R 3400   7.217  -0.779   9.103  3.3331 -2.9739 -2.6004
   27DOPE   H6S 3401   7.320  -0.645   9.069  0.3224  0.1659 -1.5686
   27DOPE   C27 3402   7.248  -0.757   8.893 -0.5098 -0.4310 -0.8362
   27DOPE   H7R 3403   7.255  -0.673   8.821  0.2677  2.1588  2.0340
   27DOPE   H7S 3404   7.159  -0.812   8.857  1.3061 -2.2245 -2.8572
   27DOPE   C28 3405   7.377  -0.839   8.878  0.4954 -0.0008 -1.2193
   27DOPE   H8R 3406   7.369  -0.930   8.941  1.7992 -1.4481 -3.0421
   27DOPE   H8S 3407   7.455  -0.771   8.920 -0.4967  0.2051  0.3977
   27DOPE   C29 3408   7.428  -0.875   8.739 -0.0803 -0.0777  0.1468
   27DOPE   H9R 3409   7.490  -0.798   8.691  1.4560 -0.3725  1.5718
   27DOPE  C210 3410   7.378  -0.970   8.663  0.2605  0.6574  0.3620
   27DOPE  H10R 3411   7.427  -0.993   8.568  2.7007 -0.3985  1.7739
   27DOPE  C211 3412   7.280  -1.075   8.703 -0.2897  0.3215  0.9427
   27DOPE  H11R 3413   7.243  -1.076   8.808 -0.8576  0.8829  0.7491
   27DOPE  H11S 3414   7.335  -1.171   8.691 -1.8790 -0.4105 -0.8260
   27DOPE  C212 3415   7.156  -1.093   8.617  0.2597 -0.2205  0.3319
   27DOPE  H12R 3416   7.113  -1.195   8.612 -0.4159  0.0429  0.6779
   27DOPE  H12S 3417   7.190  -1.059   8.517  1.0378 -0.7363  0.4114
   27DOPE  C213 3418   7.040  -1.002   8.656 -0.3160  0.3704 -0.0673
   27DOPE  H13R 3419   6.959  -1.029   8.586  0.3046 -0.5732 -0.4266
   27DOPE  H13S 3420   7.071  -0.896   8.638 -0.6065  0.3166 -0.8964
   27DOPE  C214 3421   6.978  -1.022   8.798  0.3825  0.0470 -0.0542
   27DOPE  H14R 3422   7.057  -1.030   8.876 -1.3524 -1.0034  1.6763
   27DOPE  H14S 3423   6.935  -1.124   8.796  0.9656 -0.2364  0.9664
   27DOPE  C215 3424   6.875  -0.907   8.832 -0.2991  0.1061  0.1489
   27DOPE  H15R 3425   6.797  -0.912   8.753  0.0152 -1.9819 -0.0948
   27DOPE  H15S 3426   6.933  -0.813   8.819 -1.1977  0.5580 -0.6367
   27DOPE  C216 3427   6.822  -0.939   8.970 -0.4788 -0.0033  0.2620
   27DOPE  H16R 3428   6.909  -0.924   9.038 -0.3271  4.2550 -0.6208
   27DOPE  H16S 3429   6.781  -1.042   8.976 -0.6511  0.1100  1.2809
   27DOPE  C217 3430   6.710  -0.846   9.020 -0.4627  0.6055  0.1239
   27DOPE  H17R 3431   6.673  -0.892   9.115  1.9706 -0.0772  0.8011
   27DOPE  H17S 3432   6.634  -0.859   8.940  0.5402 -1.7161 -0.5252
   27DOPE  C218 3433   6.736  -0.700   9.036 -0.5037  0.2108 -0.1059
   27DOPE  H18R 3434   6.764  -0.637   8.949 -0.2950  1.7056  1.0137
   27DOPE  H18S 3435   6.822  -0.688   9.106 -1.5518 -0.3824  1.3352
   27DOPE  H18T 3436   6.648  -0.649   9.079 -1.6642 -0.1946 -1.8836
   27DOPE   C33 3437   6.602  -0.168   8.904 -0.2318 -0.1437  0.9241
   27DOPE   H3X 3438   6.552  -0.069   8.904  1.5135  0.7865  0.1446
   27DOPE   H3Y 3439   6.556  -0.221   8.989 -1.3834  2.1976  1.8572
   27DOPE   C34 3440   6.579  -0.225   8.762  0.1720 -0.1166  0.4517
   27DOPE   H4X 3441   6.623  -0.325   8.746  0.0277  0.3274 -3.5987
   27DOPE   H4Y 3442   6.476  -0.250   8.730  0.0720  0.8204  0.0011
   27DOPE   C35 3443   6.649  -0.138   8.644  0.2281 -0.3770 -0.3002
   27DOPE   H5X 3444   6.757  -0.145   8.670 -0.4048 -2.6548  2.1786
   27DOPE   H5Y 3445   6.611  -0.036   8.665 -2.2184 -0.9337 -1.7100
   27DOPE   C36 3446   6.618  -0.190   8.512 -0.0062 -0.1272  0.0140
   27DOPE   H6X 3447   6.514  -0.165   8.482  0.0034  0.8218  0.7337
   27DOPE   H6Y 3448   6.609  -0.301   8.512 -2.1277 -0.0060 -0.9390
   27DOPE   C37 3449   6.710  -0.129   8.401  0.1975  0.3765  0.3423
   27DOPE   H7X 3450   6.729  -0.021   8.419  0.6072  0.6952 -1.7192
   27DOPE   H7Y 3451   6.811  -0.172   8.419  0.1794  1.1587  2.5447
   27DOPE   C38 3452   6.649  -0.157   8.264  1.0664 -0.2042 -0.5757
   27DOPE   H8X 3453   6.555  -0.098   8.250 -1.2558 -3.0496  1.6997
   27DOPE   H8Y 3454   6.613  -0.262   8.270  0.1427  0.1301 -0.0153
   27DOPE   C39 3455   6.754  -0.143   8.160  0.1179 -0.2483 -0.1387
   27DOPE   H9X 3456   6.856  -0.134   8.201 -0.5260  2.3760  1.0945
   27DOPE  C310 3457   6.739  -0.150   8.025  0.2073 -0.3051  0.3022
   27DOPE  H10X 3458   6.820  -0.120   7.957 -1.0425  0.4651 -0.9130
   27DOPE  C311 3459   6.613  -0.180   7.944 -0.3242 -0.6847  0.2258
   27DOPE  H11X 3460   6.640  -0.236   7.852  1.8207  2.8489 -1.5105
   27DOPE  H11Y 3461   6.537  -0.239   8.000 -0.6799  0.0458  0.5162
   27DOPE  C312 3462   6.541  -0.058   7.889  0.1972 -0.0261  0.7491
   27DOPE  H12X 3463   6.460  -0.087   7.819 -1.7410  0.7093  2.5793
   27DOPE  H12Y 3464   6.624  -0.003   7.839 -0.2588 -0.0583 -0.0628
   27DOPE  C313 3465   6.475   0.034   8.000 -0.2621  0.5579  0.3426
   27DOPE  H13X 3466   6.434  -0.040   8.072  0.1808 -0.8372 -0.8010
   27DOPE  H13Y 3467   6.552   0.102   8.042 -0.6542  0.4647  1.2273
   27DOPE  C314 3468   6.360   0.127   7.948  0.4384 -0.1384  0.5152
   27DOPE  H14X 3469   6.271   0.064   7.929  1.3026 -1.0266 -0.7580
   27DOPE  H14Y 3470   6.393   0.167   7.849  1.2166  1.0129  1.2106
   27DOPE  C315 3471   6.328   0.245   8.047  0.1142 -0.1052 -0.4151
   27DOPE  H15X 3472   6.425   0.285   8.084 -0.3709  0.7794 -0.0678
   27DOPE  H15Y 3473   6.278   0.207   8.138 -0.1019  0.0296 -0.4766
   27DOPE  C316 3474   6.237   0.350   7.989  0.5494  0.8570  0.1636
   27DOPE  H16X 3475   6.164   0.271   7.963  0.6902  0.9155 -0.4214
   27DOPE  H16Y 3476   6.281   0.400   7.900 -1.4777 -0.3906 -1.6465
   27DOPE  C317 3477   6.182   0.450   8.097 -0.0645 -0.2929  0.0375
   27DOPE  H17X 3478   6.085   0.497   8.071 -0.4270 -0.0421  1.6862
   27DOPE  H17Y 3479   6.149   0.389   8.184  0.7460 -1.1499 -0.2517
   27DOPE  C318 3480   6.265   0.576   8.133  0.0279  0.4505  0.2723
   27DOPE  H18X 3481   6.361   0.549   8.183  0.4425  1.8732  0.2911
   27DOPE  H18Y 3482   6.304   0.619   8.038  2.0379  1.5496  1.5170
   27DOPE  H18Z 3483   6.219   0.652   8.199 -0.4517  0.4331 -0.0440
   28DOPE     N 3484   8.322   7.829   9.358 -0.0835  0.0073  0.4630
   28DOPE   HN1 3485   8.310   7.916   9.414 -0.4527  1.2063 -1.3847
   28DOPE   HN2 3486   8.388   7.760   9.399 -0.9027 -3.4417 -3.3561
   28DOPE   HN3 3487   8.345   7.873   9.267 -1.8630  0.2743  0.1026
   28DOPE   C12 3488   8.186   7.760   9.359 -0.3301  0.1522 -0.9497
   28DOPE  H12A 3489   8.167   7.737   9.466 -1.6362  0.1866 -1.1503
   28DOPE  H12B 3490   8.206   7.666   9.304 -0.3956 -0.6239  0.3142
   28DOPE   C11 3491   8.070   7.842   9.301  0.0636  0.6568  0.6034
   28DOPE  H11A 3492   7.975   7.790   9.325  0.1897 -0.6074 -1.4447
   28DOPE  H11B 3493   8.070   7.836   9.190 -0.9106 -0.7307  0.6576
   28DOPE     P 3494   8.084   8.107   9.294  0.2427  0.1659  0.2995
   28DOPE   O13 3495   8.218   8.140   9.343 -0.4069 -0.4520  0.5613
   28DOPE   O14 3496   7.968   8.191   9.333 -0.4685 -0.2927 -0.3137
   28DOPE   O11 3497   8.065   8.074   9.140  0.4904  0.3719  0.1616
   28DOPE   O12 3498   8.054   7.968   9.362  0.3994 -0.3453 -0.4257
   28DOPE    C1 3499   7.941   8.060   9.079  0.0903  1.1801 -0.0217
   28DOPE    HA 3500   7.897   8.158   9.051  2.4136  2.4407  0.5570
   28DOPE    HB 3501   7.870   8.019   9.154 -0.4099  0.0732 -1.0565
   28DOPE    C2 3502   7.937   7.969   8.951  1.0265  0.6667 -0.4385
   28DOPE    HS 3503   7.962   7.863   8.975  2.2716  1.0812  0.2138
   28DOPE   O21 3504   8.020   8.013   8.844  0.5185 -0.4872 -0.3356
   28DOPE   C21 3505   8.149   7.986   8.857  0.4448  0.1788 -0.0164
   28DOPE   O22 3506   8.202   7.905   8.929 -1.0360  0.0586 -0.4584
   28DOPE   C22 3507   8.217   8.073   8.758 -0.7166 -0.3025 -0.0531
   28DOPE   H2R 3508   8.168   8.173   8.756  0.9918  0.5854  0.4905
   28DOPE   H2S 3509   8.210   8.019   8.662 -0.3727 -0.1862 -0.1434
   28DOPE    C3 3510   7.783   7.976   8.902 -0.4582 -1.0235 -0.5442
   28DOPE    HX 3511   7.774   8.082   8.870  1.4776 -0.3464  0.9424
   28DOPE    HY 3512   7.709   7.979   8.985 -0.8037  1.8188 -0.8765
   28DOPE   O31 3513   7.743   7.910   8.788 -0.2533 -0.0168 -0.1004
   28DOPE   C31 3514   7.758   7.781   8.775  0.1350 -0.0667  0.1517
   28DOPE   O32 3515   7.779   7.708   8.866  0.3597 -0.0969  0.4032
   28DOPE   C32 3516   7.761   7.748   8.621  0.3628 -0.6900 -0.5248
   28DOPE   H2X 3517   7.732   7.646   8.589 -0.6436 -0.2181 -1.1547
   28DOPE   H2Y 3518   7.685   7.813   8.573  0.6303 -1.5373 -2.1446
   28DOPE   C23 3519   8.365   8.097   8.798  0.2052 -0.1038 -0.0187
   28DOPE   H3R 3520   8.411   8.000   8.826 -0.0085 -0.5623 -1.1859
   28DOPE   H3S 3521   8.369   8.144   8.899 -1.3992  0.3035 -0.1285
   28DOPE   C24 3522   8.455   8.166   8.701 -0.2041  0.2171  0.1676
   28DOPE   H4R 3523   8.444   8.125   8.599  0.3066 -0.5835  0.4286
   28DOPE   H4S 3524   8.560   8.145   8.730  0.4616 -2.6290 -3.5648
   28DOPE   C25 3525   8.429   8.319   8.682  0.1355  0.7747 -0.7089
   28DOPE   H5R 3526   8.442   8.368   8.781 -2.2467  0.6320 -0.2616
   28DOPE   H5S 3527   8.323   8.333   8.652 -0.2759  0.8654  0.6863
   28DOPE   C26 3528   8.522   8.385   8.584 -0.2655 -0.7729  0.2049
   28DOPE   H6R 3529   8.540   8.324   8.493  0.2271  0.1968 -0.3644
   28DOPE   H6S 3530   8.617   8.388   8.642 -0.7689  1.4003  1.0015
   28DOPE   C27 3531   8.479   8.525   8.527  0.1559  0.2362 -0.1802
   28DOPE   H7R 3532   8.450   8.596   8.607  0.0371  1.1829 -1.0456
   28DOPE   H7S 3533   8.385   8.507   8.472 -1.0390  1.0732  1.4855
   28DOPE   C28 3534   8.579   8.586   8.435 -0.0625 -0.1630  0.2880
   28DOPE   H8R 3535   8.677   8.610   8.482 -0.8156 -1.2091  2.5363
   28DOPE   H8S 3536   8.537   8.683   8.401  2.4229  0.2289 -2.0298
   28DOPE   C29 3537   8.594   8.490   8.317  0.3061 -0.1977  0.2363
   28DOPE   H9R 3538   8.516   8.487   8.240  0.4189  0.3075  0.1003
   28DOPE  C210 3539   8.699   8.415   8.286  0.3712  0.1242  0.6386
   28DOPE  H10R 3540   8.701   8.359   8.191 -2.7468 -0.7300  0.9538
   28DOPE  C211 3541   8.830   8.403   8.363  0.7771 -0.2199  0.1071
   28DOPE  H11R 3542   8.816   8.315   8.430 -1.7629  0.6171  0.7876
   28DOPE  H11S 3543   8.842   8.491   8.430 -1.6531  0.8024 -0.6775
   28DOPE  C212 3544   8.956   8.408   8.277 -0.2999 -0.7198  0.4748
   28DOPE  H12R 3545   8.968   8.510   8.235 -1.5991 -1.0796 -0.8776
   28DOPE  H12S 3546   8.933   8.334   8.197  2.0549  1.1806 -2.1219
   28DOPE  C213 3547   9.083   8.369   8.354 -0.5752  0.4669 -0.3681
   28DOPE  H13R 3548   9.068   8.261   8.376 -1.5010  0.6544 -0.0233
   28DOPE  H13S 3549   9.088   8.433   8.444  0.3352  0.2916 -0.2827
   28DOPE  C214 3550   9.221   8.380   8.288  0.4807 -0.2373  1.1698
   28DOPE  H14R 3551   9.217   8.315   8.198 -0.7127  2.1877 -0.6327
   28DOPE  H14S 3552   9.304   8.347   8.354  0.8928 -0.3597  0.6024
   28DOPE  C215 3553   9.253   8.523   8.240  0.1233  0.2226 -0.3821
   28DOPE  H15R 3554   9.259   8.588   8.330 -0.8045 -0.1798 -0.0226
   28DOPE  H15S 3555   9.172   8.561   8.174  0.0527 -2.6489 -2.1151
   28DOPE  C216 3556   9.378   8.523   8.146  0.1778 -0.1227  0.2258
   28DOPE  H16R 3557   9.340   8.484   8.049  0.7887  0.7607 -0.3825
   28DOPE  H16S 3558   9.460   8.456   8.179  1.2770  1.2655  0.4427
   28DOPE  C217 3559   9.438   8.663   8.131 -0.1500  0.2751  0.3911
   28DOPE  H17R 3560   9.451   8.716   8.227  0.6704  0.3315  0.2561
   28DOPE  H17S 3561   9.374   8.723   8.063  0.2385 -0.2450 -0.4563
   28DOPE  C218 3562   9.578   8.650   8.068 -0.0505 -0.0175 -0.3869
   28DOPE  H18R 3563   9.648   8.598   8.136  2.6124  1.2366 -1.9896
   28DOPE  H18S 3564   9.613   8.755   8.056  0.6392  0.1188  2.3348
   28DOPE  H18T 3565   9.574   8.587   7.976 -1.7956 -0.7884  0.1743
   28DOPE   C33 3566   7.906   7.775   8.560 -0.0439 -0.7167 -0.4020
   28DOPE   H3X 3567   7.939   7.878   8.584 -0.6034 -0.6075 -0.0796
   28DOPE   H3Y 3568   7.893   7.765   8.450  3.1684 -1.0384 -0.8497
   28DOPE   C34 3569   8.008   7.671   8.606  0.5491  0.0410 -0.0843
   28DOPE   H4X 3570   8.011   7.665   8.717 -1.0599 -0.1290 -0.0169
   28DOPE   H4Y 3571   7.973   7.569   8.579 -1.8375  0.2491  1.8906
   28DOPE   C35 3572   8.148   7.699   8.537 -0.9544  1.2533 -0.7855
   28DOPE   H5X 3573   8.172   7.804   8.563 -3.3555  1.2087  2.1385
   28DOPE   H5Y 3574   8.143   7.703   8.426 -0.2704  1.9638 -0.7983
   28DOPE   C36 3575   8.273   7.612   8.581  0.5218 -1.4199 -0.7048
   28DOPE   H6X 3576   8.348   7.638   8.503 -0.4342  2.2363 -0.5658
   28DOPE   H6Y 3577   8.236   7.508   8.568 -1.3228 -0.8740 -0.1403
   28DOPE   C37 3578   8.330   7.645   8.717  0.6159 -0.1341 -0.2348
   28DOPE   H7X 3579   8.343   7.755   8.730  0.3169 -0.0938 -0.2774
   28DOPE   H7Y 3580   8.265   7.609   8.799  2.2859 -0.4685  1.0011
   28DOPE   C38 3581   8.467   7.580   8.740  0.4431  1.4013 -0.0055
   28DOPE   H8X 3582   8.509   7.560   8.639 -0.3784 -0.2020 -0.0651
   28DOPE   H8Y 3583   8.435   7.484   8.786  1.6176  0.4143 -1.1621
   28DOPE   C39 3584   8.551   7.666   8.829 -0.8759 -0.5363  0.1967
   28DOPE   H9X 3585   8.521   7.660   8.935 -0.3479 -0.6747  0.3380
   28DOPE  C310 3586   8.657   7.741   8.795  0.5591 -0.2473 -1.2247
   28DOPE  H10X 3587   8.717   7.794   8.870 -1.4447  1.0927 -0.4590
   28DOPE  C311 3588   8.710   7.757   8.654  0.2260 -0.2344 -1.4185
   28DOPE  H11X 3589   8.803   7.696   8.656  2.8332  3.2149  3.2462
   28DOPE  H11Y 3590   8.645   7.732   8.568 -1.8750  0.4458 -0.1180
   28DOPE  C312 3591   8.751   7.905   8.628  0.1783  0.3587  0.1446
   28DOPE  H12X 3592   8.664   7.971   8.646 -1.7433 -1.1909 -2.5975
   28DOPE  H12Y 3593   8.774   7.914   8.519  1.7600  1.7542  0.5439
   28DOPE  C313 3594   8.883   7.952   8.697 -0.4443  0.7016 -0.1401
   28DOPE  H13X 3595   8.859   7.959   8.805 -1.5649 -0.6838 -0.2671
   28DOPE  H13Y 3596   8.962   7.877   8.674 -2.0565 -0.8351 -0.9009
   28DOPE  C314 3597   8.934   8.083   8.641  0.0425  0.1141 -0.3876
   28DOPE  H14X 3598   8.851   8.148   8.605 -1.3092 -0.8543  0.8828
   28DOPE  H14Y 3599   9.005   8.070   8.556  1.9499  0.5890  1.0655
   28DOPE  C315 3600   9.010   8.166   8.748  0.5302 -0.5602  0.1680
   28DOPE  H15X 3601   9.094   8.103   8.783  1.8104 -0.2959 -2.2263
   28DOPE  H15Y 3602   8.935   8.163   8.830  0.9506 -0.3390  0.5700
   28DOPE  C316 3603   9.056   8.308   8.708  0.6841  0.3072  0.5541
   28DOPE  H16X 3604   9.115   8.305   8.613  1.0024 -2.3590  0.7630
   28DOPE  H16Y 3605   9.121   8.353   8.786 -0.1478  0.7734  0.9833
   28DOPE  C317 3606   8.944   8.410   8.688 -0.0889 -0.3657 -0.1544
   28DOPE  H17X 3607   8.989   8.499   8.640 -0.8699  0.6181  0.8668
   28DOPE  H17Y 3608   8.856   8.363   8.639 -0.2233 -0.2941  0.0154
   28DOPE  C318 3609   8.894   8.454   8.820  0.5611 -0.1628 -1.0995
   28DOPE  H18X 3610   8.847   8.374   8.882  0.0686 -0.1126 -1.4034
   28DOPE  H18Y 3611   8.979   8.506   8.869  0.2192 -1.6297  1.2171
   28DOPE  H18Z 3612   8.811   8.524   8.795  0.1900  0.4804  1.5591
   29DOPE     N 3613   8.370   1.247   9.076 -0.4920 -0.0496  0.4010
   29DOPE   HN1 3614   8.422   1.336   9.083  0.6587 -0.7044  0.3617
   29DOPE   HN2 3615   8.267   1.265   9.081 -0.6065 -0.6096  0.1661
   29DOPE   HN3 3616   8.398   1.195   9.162 -0.3256  1.0129  1.0047
   29DOPE   C12 3617   8.411   1.199   8.943 -0.4192 -0.2844  0.3448
   29DOPE  H12A 3618   8.379   1.279   8.872 -1.0224 -1.6005 -0.9086
   29DOPE  H12B 3619   8.343   1.113   8.926 -1.1662  0.4102 -0.3042
   29DOPE   C11 3620   8.556   1.157   8.928 -0.5228  0.5173 -0.8941
   29DOPE  H11A 3621   8.624   1.224   8.984 -0.2314 -2.5966  2.8918
   29DOPE  H11B 3622   8.588   1.162   8.821  0.0354 -0.6668 -0.7965
   29DOPE     P 3623   8.529   0.900   8.922 -0.0426 -0.2362  0.3210
   29DOPE   O13 3624   8.407   0.862   8.997  0.5301 -0.0244  0.6357
   29DOPE   O14 3625   8.644   0.812   8.927  0.1339  0.5243 -0.0398
   29DOPE   O11 3626   8.487   0.927   8.774 -0.3375 -0.5092 -0.0657
   29DOPE   O12 3627   8.578   1.034   8.989 -0.2809 -0.1576 -0.2342
   29DOPE    C1 3628   8.580   0.920   8.664 -0.1173 -0.5279  0.7437
   29DOPE    HA 3629   8.594   0.815   8.629 -2.5256 -0.8169  0.4610
   29DOPE    HB 3630   8.679   0.960   8.694 -0.0548  0.5585 -0.8139
   29DOPE    C2 3631   8.540   1.007   8.548  0.4506 -0.0822  0.0353
   29DOPE    HS 3632   8.505   1.099   8.599  1.6845  0.8797 -0.8015
   29DOPE   O21 3633   8.432   0.956   8.470 -0.2693 -0.0860 -0.5221
   29DOPE   C21 3634   8.308   0.961   8.521  0.5405 -0.0139 -0.9462
   29DOPE   O22 3635   8.279   1.031   8.615  0.1194 -0.2858  0.2629
   29DOPE   C22 3636   8.218   0.867   8.450 -0.0099 -0.5049 -0.5391
   29DOPE   H2R 3637   8.275   0.776   8.421  0.9851 -0.5614  1.4023
   29DOPE   H2S 3638   8.185   0.909   8.353  1.3522 -1.4782 -1.4435
   29DOPE    C3 3639   8.659   1.039   8.462  0.3154 -0.3864 -0.9283
   29DOPE    HX 3640   8.718   0.949   8.437  0.6742 -1.2015  2.3348
   29DOPE    HY 3641   8.725   1.099   8.529 -1.3449 -0.1261  0.5669
   29DOPE   O31 3642   8.626   1.112   8.344  0.0848  0.0587  0.5124
   29DOPE   C31 3643   8.609   1.243   8.347  0.3510 -0.4364 -0.2132
   29DOPE   O32 3644   8.630   1.319   8.441  0.2122  0.3939  0.0789
   29DOPE   C32 3645   8.564   1.280   8.206  1.1130 -0.1875 -0.2763
   29DOPE   H2X 3646   8.603   1.205   8.135 -1.3120  0.4048 -2.3935
   29DOPE   H2Y 3647   8.453   1.275   8.202  0.8204  3.4446 -0.6605
   29DOPE   C23 3648   8.089   0.843   8.534 -0.4860  0.3622 -0.6264
   29DOPE   H3R 3649   8.011   0.921   8.535 -0.4879  0.3800  1.0890
   29DOPE   H3S 3650   8.107   0.828   8.643 -0.0880  1.0442 -0.5945
   29DOPE   C24 3651   8.005   0.723   8.472  0.4302  0.2031 -1.0236
   29DOPE   H4R 3652   8.067   0.633   8.492 -1.5536 -1.0272 -0.0331
   29DOPE   H4S 3653   7.997   0.745   8.363  1.0854  0.2254 -1.0710
   29DOPE   C25 3654   7.878   0.698   8.555 -0.4104  0.2488  0.5189
   29DOPE   H5R 3655   7.815   0.789   8.545  2.1332  2.2426  1.5001
   29DOPE   H5S 3656   7.917   0.687   8.658 -0.5784  2.6888  0.9084
   29DOPE   C26 3657   7.798   0.569   8.518 -0.0314  0.2236 -0.0355
   29DOPE   H6R 3658   7.759   0.587   8.416 -0.7746  0.4979  0.2905
   29DOPE   H6S 3659   7.713   0.572   8.589 -0.1188  0.7597 -0.1609
   29DOPE   C27 3660   7.886   0.440   8.531  0.0023 -0.4882  0.3003
   29DOPE   H7R 3661   7.928   0.428   8.634 -1.3319 -0.5201  0.8565
   29DOPE   H7S 3662   7.959   0.468   8.452 -0.9332  0.4704 -0.2519
   29DOPE   C28 3663   7.822   0.302   8.492  0.2416 -0.2057 -1.1512
   29DOPE   H8R 3664   7.907   0.231   8.479 -1.1667 -2.5222  1.2869
   29DOPE   H8S 3665   7.770   0.316   8.394 -0.1030  0.5368 -0.8658
   29DOPE   C29 3666   7.732   0.252   8.600 -0.2525  0.3040  0.5781
   29DOPE   H9R 3667   7.701   0.332   8.668 -0.7765  0.4696  0.1503
   29DOPE  C210 3668   7.675   0.129   8.603  0.2607  0.1940 -0.0665
   29DOPE  H10R 3669   7.592   0.108   8.673  0.0179 -1.7521 -0.8769
   29DOPE  C211 3670   7.705   0.015   8.510  0.0609 -0.0520  0.3058
   29DOPE  H11R 3671   7.736  -0.077   8.565  0.7679 -0.0397 -0.0637
   29DOPE  H11S 3672   7.803   0.034   8.461 -0.7895  1.5146 -0.8776
   29DOPE  C212 3673   7.597   0.002   8.410  0.4153  0.0553 -0.0236
   29DOPE  H12R 3674   7.569   0.097   8.360  0.0812  0.4069  0.8200
   29DOPE  H12S 3675   7.507  -0.022   8.470  0.3293  1.4569  0.4325
   29DOPE  C213 3676   7.633  -0.090   8.290 -0.5638  0.7317  0.0768
   29DOPE  H13R 3677   7.542  -0.119   8.234 -0.1463 -1.7729  0.5983
   29DOPE  H13S 3678   7.668  -0.183   8.340 -1.5607  0.2972 -0.0052
   29DOPE  C214 3679   7.747  -0.040   8.197 -1.1986 -0.5840  1.5465
   29DOPE  H14R 3680   7.773  -0.128   8.134  0.3027  1.4238 -0.8097
   29DOPE  H14S 3681   7.842  -0.014   8.248 -0.4897 -1.6278  0.8189
   29DOPE  C215 3682   7.712   0.078   8.108  0.2032  0.4142 -0.5491
   29DOPE  H15R 3683   7.708   0.166   8.177 -0.9809  0.8374 -1.1322
   29DOPE  H15S 3684   7.614   0.054   8.060  0.6658 -2.4639 -0.2298
   29DOPE  C216 3685   7.810   0.111   7.995  0.0502 -0.3398 -0.0146
   29DOPE  H16R 3686   7.833   0.016   7.943 -0.3502 -1.4576  1.7521
   29DOPE  H16S 3687   7.901   0.156   8.039  0.2113 -0.5206 -0.1592
   29DOPE  C217 3688   7.754   0.215   7.903 -0.7343 -0.5286 -0.0070
   29DOPE  H17R 3689   7.661   0.188   7.849 -0.9180  2.5687 -1.4648
   29DOPE  H17S 3690   7.814   0.207   7.810 -4.0810  1.0370 -2.4895
   29DOPE  C218 3691   7.735   0.353   7.954 -0.3426 -0.4385  0.2567
   29DOPE  H18R 3692   7.652   0.366   8.026 -0.7536 -0.7479 -0.1600
   29DOPE  H18S 3693   7.690   0.400   7.864  0.4360  1.0287  0.5878
   29DOPE  H18T 3694   7.834   0.400   7.974  0.2012 -2.1482  1.8319
   29DOPE   C33 3695   8.606   1.418   8.160 -0.6886 -1.0472  0.4793
   29DOPE   H3X 3696   8.703   1.417   8.106 -0.6658  0.8786  0.4097
   29DOPE   H3Y 3697   8.611   1.476   8.255 -1.2071 -0.2055  0.0033
   29DOPE   C34 3698   8.512   1.485   8.059 -0.0193  0.4921  0.2865
   29DOPE   H4X 3699   8.464   1.410   7.993  0.8515 -0.7382  1.0153
   29DOPE   H4Y 3700   8.420   1.525   8.107 -0.6807  0.2054 -0.7135
   29DOPE   C35 3701   8.572   1.609   7.986 -0.3042  0.7117 -0.9216
   29DOPE   H5X 3702   8.496   1.654   7.918  0.5534  0.4671 -2.0675
   29DOPE   H5Y 3703   8.653   1.567   7.923  1.6761  1.3495  1.0610
   29DOPE   C36 3704   8.642   1.707   8.086  0.3122 -0.2730  0.4671
   29DOPE   H6X 3705   8.694   1.778   8.018  2.3650 -1.8149  0.3589
   29DOPE   H6Y 3706   8.721   1.656   8.144  0.8911  0.0357 -0.0442
   29DOPE   C37 3707   8.549   1.784   8.181  0.3823  1.0256  0.3171
   29DOPE   H7X 3708   8.497   1.848   8.106  0.1560  2.2623  1.5009
   29DOPE   H7Y 3709   8.477   1.713   8.227  1.8752  0.7126  2.3037
   29DOPE   C38 3710   8.617   1.862   8.297 -0.6783  0.0842  0.2309
   29DOPE   H8X 3711   8.694   1.805   8.355  2.9843  3.3766 -0.9076
   29DOPE   H8Y 3712   8.542   1.894   8.372 -1.3029  0.2200 -0.4489
   29DOPE   C39 3713   8.692   1.973   8.229 -0.3398 -0.4997  1.1555
   29DOPE   H9X 3714   8.750   1.956   8.137 -1.8404  1.4603 -0.2662
   29DOPE  C310 3715   8.692   2.102   8.262  0.3401  0.0491 -0.4354
   29DOPE  H10X 3716   8.759   2.170   8.207  1.2081 -0.3784  0.0721
   29DOPE  C311 3717   8.627   2.162   8.384  0.1220 -0.4188 -0.0165
   29DOPE  H11X 3718   8.621   2.271   8.366  0.5065 -0.2735  0.7214
   29DOPE  H11Y 3719   8.524   2.121   8.395  0.0397 -0.3665 -0.5647
   29DOPE  C312 3720   8.700   2.148   8.521  0.1991  0.1894  0.1650
   29DOPE  H12X 3721   8.721   2.040   8.540  0.2591  0.2191  0.2637
   29DOPE  H12Y 3722   8.639   2.192   8.602 -1.3068  0.5636 -1.1075
   29DOPE  C313 3723   8.845   2.217   8.521 -1.0897  0.4956 -0.4700
   29DOPE  H13X 3724   8.915   2.172   8.448  1.0581  0.6490  1.4058
   29DOPE  H13Y 3725   8.822   2.324   8.499 -1.2176  0.2833 -1.4140
   29DOPE  C314 3726   8.908   2.215   8.661 -0.1545 -1.1183  0.4442
   29DOPE  H14X 3727   8.940   2.114   8.694 -0.8755 -1.2422  0.7663
   29DOPE  H14Y 3728   8.846   2.255   8.743 -0.9065  0.5336 -0.8618
   29DOPE  C315 3729   9.038   2.301   8.655 -0.3347 -0.4222  0.2284
   29DOPE  H15X 3730   9.006   2.405   8.637 -1.5203 -0.5855  1.2625
   29DOPE  H15Y 3731   9.092   2.274   8.562  1.4454  1.5226  0.6376
   29DOPE  C316 3732   9.135   2.281   8.781  0.0485 -0.0917 -0.2389
   29DOPE  H16X 3733   9.193   2.186   8.789 -0.8821 -0.8434 -1.8232
   29DOPE  H16Y 3734   9.078   2.283   8.876 -0.8432  0.4962 -0.7710
   29DOPE  C317 3735   9.226   2.395   8.796 -0.3455  0.5584  0.1318
   29DOPE  H17X 3736   9.177   2.495   8.790 -0.0950  0.6611 -0.1819
   29DOPE  H17Y 3737   9.272   2.385   8.897 -0.1897 -0.9740 -0.0711
   29DOPE  C318 3738   9.329   2.392   8.690 -0.4299 -0.9781 -0.1302
   29DOPE  H18X 3739   9.387   2.298   8.693  4.6227  1.7552 -0.6351
   29DOPE  H18Y 3740   9.294   2.398   8.585 -1.4132  0.8313  0.2491
   29DOPE  H18Z 3741   9.408   2.467   8.714 -0.2571 -0.6349 -1.6831
   30DOPE     N 3742   9.106   6.019   9.712  0.1721  0.0943 -0.5775
   30DOPE   HN1 3743   9.200   5.980   9.693  1.0076  0.1222  2.7523
   30DOPE   HN2 3744   9.107   6.123   9.718 -1.3695  0.0773  1.4818
   30DOPE   HN3 3745   9.088   5.992   9.811  1.9188 -0.5733 -0.4151
   30DOPE   C12 3746   8.993   5.970   9.625 -0.5905 -0.3631 -0.2561
   30DOPE  H12A 3747   9.046   5.961   9.528  3.0059 -0.2825  1.5384
   30DOPE  H12B 3748   8.920   6.053   9.621 -0.3048 -0.1245 -0.5786
   30DOPE   C11 3749   8.945   5.831   9.674 -0.2097 -0.3445  0.0651
   30DOPE  H11A 3750   9.031   5.761   9.683 -0.3588 -1.2135 -3.5920
   30DOPE  H11B 3751   8.880   5.783   9.599  0.8645 -0.0607 -1.0964
   30DOPE     P 3752   8.732   5.911   9.808  0.0875  0.0049 -0.1990
   30DOPE   O13 3753   8.741   6.036   9.888  0.2313 -0.1882  0.1492
   30DOPE   O14 3754   8.626   5.816   9.844 -0.0823 -0.1743  0.2103
   30DOPE   O11 3755   8.698   5.953   9.658  0.3307  0.0643 -0.1661
   30DOPE   O12 3756   8.876   5.842   9.800 -1.1120  0.0570  0.0069
   30DOPE    C1 3757   8.605   6.063   9.634 -0.0285 -0.3900 -0.3801
   30DOPE    HA 3758   8.661   6.155   9.663  1.3034 -1.6064  1.0919
   30DOPE    HB 3759   8.519   6.063   9.704  0.6932  2.5024  0.6691
   30DOPE    C2 3760   8.569   6.063   9.487 -0.6508 -1.0000  0.3131
   30DOPE    HS 3761   8.468   6.109   9.482 -0.5565 -0.7497  0.7006
   30DOPE   O21 3762   8.578   5.940   9.424  0.1763  0.0962 -0.1432
   30DOPE   C21 3763   8.501   5.843   9.471 -0.2542 -0.9486  0.0469
   30DOPE   O22 3764   8.418   5.863   9.560  0.0583  0.3458 -0.3419
   30DOPE   C22 3765   8.535   5.719   9.409 -0.7192  0.5777  0.5589
   30DOPE   H2R 3766   8.563   5.649   9.491  2.4236  2.6750  1.4735
   30DOPE   H2S 3767   8.634   5.720   9.358 -0.8427 -0.8877  0.2575
   30DOPE    C3 3768   8.663   6.158   9.406 -0.1224 -0.0744  0.3410
   30DOPE    HX 3769   8.762   6.113   9.429 -0.0492  0.4206  1.0363
   30DOPE    HY 3770   8.665   6.261   9.447 -0.2530  0.2010 -0.3252
   30DOPE   O31 3771   8.644   6.157   9.266 -0.0596  0.6422 -0.1520
   30DOPE   C31 3772   8.546   6.234   9.231 -0.6308 -0.2779  0.5132
   30DOPE   O32 3773   8.464   6.292   9.301 -0.0140 -0.1947  0.1788
   30DOPE   C32 3774   8.546   6.222   9.068  0.2922 -0.3128  0.4923
   30DOPE   H2X 3775   8.638   6.277   9.040  0.1296  0.4515  1.4026
   30DOPE   H2Y 3776   8.565   6.116   9.044  0.2544 -0.0816 -0.5991
   30DOPE   C23 3777   8.419   5.669   9.321 -0.0215 -0.2648  0.3421
   30DOPE   H3R 3778   8.324   5.666   9.378 -1.2151  0.4683 -1.4895
   30DOPE   H3S 3779   8.442   5.561   9.304 -1.7132 -0.5424 -0.4619
   30DOPE   C24 3780   8.391   5.758   9.197 -0.4150  0.1180 -0.4628
   30DOPE   H4R 3781   8.461   5.725   9.116  2.9037 -0.0160  2.2286
   30DOPE   H4S 3782   8.413   5.865   9.214  0.6102 -0.1574  0.0605
   30DOPE   C25 3783   8.250   5.753   9.151  0.3055  0.4256  0.2946
   30DOPE   H5R 3784   8.179   5.804   9.219  0.5032  0.8051  0.2181
   30DOPE   H5S 3785   8.218   5.647   9.140 -0.4586  0.7054 -0.2030
   30DOPE   C26 3786   8.232   5.829   9.015 -0.0250  1.0644 -0.0156
   30DOPE   H6R 3787   8.282   5.927   9.030 -0.1730  1.0457  0.6668
   30DOPE   H6S 3788   8.124   5.848   9.000 -0.2775 -0.0125  0.3692
   30DOPE   C27 3789   8.293   5.764   8.893 -0.8552 -0.2705  0.0030
   30DOPE   H7R 3790   8.259   5.658   8.884 -1.2023 -0.1302 -0.3197
   30DOPE   H7S 3791   8.402   5.773   8.916 -1.2364  2.3729  1.0803
   30DOPE   C28 3792   8.262   5.848   8.764 -0.1711  0.5563  0.6955
   30DOPE   H8R 3793   8.321   5.802   8.682 -1.8851  1.1909 -0.9549
   30DOPE   H8S 3794   8.297   5.953   8.772  1.0554  0.1520  0.8828
   30DOPE   C29 3795   8.118   5.832   8.731 -0.3482 -0.2595  0.3979
   30DOPE   H9R 3796   8.095   5.734   8.687 -0.5937 -0.7062  1.4776
   30DOPE  C210 3797   8.027   5.933   8.726  0.2054  0.0025 -0.4739
   30DOPE  H10R 3798   7.921   5.905   8.720  0.1772 -0.8399  2.5266
   30DOPE  C211 3799   8.043   6.075   8.769 -0.0720  0.8060  0.6742
   30DOPE  H11R 3800   8.149   6.096   8.793  0.3377 -2.2247  1.9466
   30DOPE  H11S 3801   7.983   6.096   8.860 -0.1700  0.4336  0.6987
   30DOPE  C212 3802   8.001   6.164   8.658 -0.2035 -0.5625 -0.3241
   30DOPE  H12R 3803   7.984   6.263   8.705 -0.9451 -0.2789 -1.1712
   30DOPE  H12S 3804   7.902   6.137   8.615 -0.3252 -0.8909  0.1573
   30DOPE  C213 3805   8.112   6.187   8.547 -0.4274 -0.8706 -0.1602
   30DOPE  H13R 3806   8.129   6.088   8.498 -1.2388 -0.7755 -0.6605
   30DOPE  H13S 3807   8.208   6.221   8.590 -1.9819 -0.8141  3.6051
   30DOPE  C214 3808   8.072   6.291   8.442 -0.9307 -0.8966  0.4683
   30DOPE  H14R 3809   8.034   6.382   8.494  0.1175  0.4749 -1.0443
   30DOPE  H14S 3810   7.997   6.243   8.376 -1.1821 -0.9200  0.7702
   30DOPE  C215 3811   8.201   6.324   8.370  0.6329 -0.0275  0.1000
   30DOPE  H15R 3812   8.264   6.234   8.352  0.8455  0.1188  0.1021
   30DOPE  H15S 3813   8.269   6.392   8.426 -0.5860  1.1402  0.2223
   30DOPE  C216 3814   8.182   6.390   8.227 -0.3038 -0.3846 -0.2069
   30DOPE  H16R 3815   8.093   6.348   8.176 -1.8155  0.6084  1.4970
   30DOPE  H16S 3816   8.270   6.369   8.162  0.7101  0.3398  0.8951
   30DOPE  C217 3817   8.150   6.541   8.224  0.1917 -0.2546  0.4908
   30DOPE  H17R 3818   8.230   6.589   8.285 -0.6755  0.4710  1.0920
   30DOPE  H17S 3819   8.053   6.566   8.273  0.3890 -1.6550  1.6519
   30DOPE  C218 3820   8.160   6.601   8.085 -0.0712 -0.1770 -0.2264
   30DOPE  H18R 3821   8.266   6.599   8.054  0.1842 -0.7927  0.6659
   30DOPE  H18S 3822   8.126   6.707   8.080 -1.5146 -0.6304 -0.8470
   30DOPE  H18T 3823   8.119   6.536   8.005  1.1693 -1.7688  0.3881
   30DOPE   C33 3824   8.406   6.256   9.014 -0.3419  0.3658  0.1167
   30DOPE   H3X 3825   8.364   6.346   9.064 -0.9142  0.0450  0.2288
   30DOPE   H3Y 3826   8.335   6.174   9.040 -1.4727  1.3822  0.3256
   30DOPE   C34 3827   8.403   6.271   8.857 -0.3087 -0.9439 -0.1187
   30DOPE   H4X 3828   8.454   6.180   8.818  0.8039  0.0426 -1.0456
   30DOPE   H4Y 3829   8.300   6.284   8.819 -0.7373 -1.7127  0.7407
   30DOPE   C35 3830   8.477   6.399   8.819 -0.5051 -0.1440  0.6787
   30DOPE   H5X 3831   8.581   6.374   8.851  0.4740  2.5674 -0.0815
   30DOPE   H5Y 3832   8.424   6.485   8.866  1.1942  0.3110  1.8844
   30DOPE   C36 3833   8.482   6.429   8.664 -0.2915  0.2738  0.0431
   30DOPE   H6X 3834   8.378   6.438   8.628 -0.9139  0.0941  1.7207
   30DOPE   H6Y 3835   8.534   6.338   8.628 -0.3630  0.0682  0.4572
   30DOPE   C37 3836   8.548   6.571   8.648  0.4890  0.4971  0.2915
   30DOPE   H7X 3837   8.639   6.581   8.710  0.4136  0.8728  0.3447
   30DOPE   H7Y 3838   8.578   6.574   8.541  0.9184 -2.1293  0.2781
   30DOPE   C38 3839   8.453   6.680   8.687  0.1909  0.4143 -0.0768
   30DOPE   H8X 3840   8.442   6.691   8.797  0.6633 -0.9323  0.1138
   30DOPE   H8Y 3841   8.350   6.667   8.647  0.4672 -2.0164 -0.1393
   30DOPE   C39 3842   8.517   6.805   8.639  0.3880 -0.1544 -0.4505
   30DOPE   H9X 3843   8.589   6.848   8.710 -0.8561  1.1270  0.0831
   30DOPE  C310 3844   8.492   6.866   8.525  0.2012 -0.2629  0.6388
   30DOPE  H10X 3845   8.524   6.967   8.494  0.8465 -0.9525 -1.0204
   30DOPE  C311 3846   8.404   6.803   8.421 -0.0094  0.7395  0.1940
   30DOPE  H11X 3847   8.418   6.696   8.395 -2.0412  1.1221 -3.0687
   30DOPE  H11Y 3848   8.296   6.816   8.446 -0.6725  0.6198 -2.3389
   30DOPE  C312 3849   8.409   6.880   8.285  0.1344 -0.2839 -0.0119
   30DOPE  H12X 3850   8.378   6.984   8.310 -0.3308 -0.4057 -0.0792
   30DOPE  H12Y 3851   8.335   6.837   8.215 -0.2650 -0.2134  0.3601
   30DOPE  C313 3852   8.544   6.878   8.213  0.5128  1.1073 -0.1651
   30DOPE  H13X 3853   8.623   6.929   8.273  0.2016  0.5028  0.7854
   30DOPE  H13Y 3854   8.571   6.771   8.200  0.5207  1.4092 -3.1473
   30DOPE  C314 3855   8.534   6.918   8.062  0.3563  0.5854 -0.1728
   30DOPE  H14X 3856   8.438   6.885   8.017  0.4807  0.2173 -0.1690
   30DOPE  H14Y 3857   8.619   6.876   8.003  1.5447  2.0046  0.4702
   30DOPE  C315 3858   8.528   7.071   8.041 -0.8696  0.3662  1.1385
   30DOPE  H15X 3859   8.449   7.115   8.107  0.8751  1.0929  2.8480
   30DOPE  H15Y 3860   8.501   7.089   7.935  1.1317 -0.1242  0.5146
   30DOPE  C316 3861   8.664   7.147   8.072 -0.1664 -0.3074 -0.1266
   30DOPE  H16X 3862   8.717   7.120   8.166 -1.6380 -1.0542  0.5319
   30DOPE  H16Y 3863   8.640   7.255   8.086  0.6986  0.0070 -0.9627
   30DOPE  C317 3864   8.767   7.153   7.961  0.2447 -0.2821  0.1558
   30DOPE  H17X 3865   8.806   7.049   7.963  0.6328 -0.1273  1.9253
   30DOPE  H17Y 3866   8.708   7.173   7.869  0.8337  1.7424  0.1598
   30DOPE  C318 3867   8.872   7.258   7.977 -0.1883 -0.0972 -0.5831
   30DOPE  H18X 3868   8.841   7.341   8.044  0.7731 -0.3719  0.2230
   30DOPE  H18Y 3869   8.959   7.217   8.034 -1.5450  0.3691  1.9745
   30DOPE  H18Z 3870   8.901   7.293   7.876 -1.5901 -1.0347 -1.3404
   31DOPE     N 3871   3.896   4.382   6.299 -0.1526 -0.6297  0.0905
   31DOPE   HN1 3872   3.813   4.334   6.259 -0.3312 -0.5067  0.3093
   31DOPE   HN2 3873   3.863   4.479   6.316  0.2107  0.2668 -3.5083
   31DOPE   HN3 3874   3.965   4.391   6.222 -0.7436  0.4803 -0.3385
   31DOPE   C12 3875   3.944   4.313   6.422  0.3019  0.4756 -0.1146
   31DOPE  H12A 3876   3.994   4.385   6.491 -0.9883 -0.0200  1.3884
   31DOPE  H12B 3877   4.021   4.237   6.397  0.3215 -0.0273  1.3810
   31DOPE   C11 3878   3.825   4.240   6.493 -0.1144  0.5690 -0.4567
   31DOPE  H11A 3879   3.752   4.317   6.527  1.4835  1.8141  0.3157
   31DOPE  H11B 3880   3.865   4.196   6.587 -0.0847 -0.8177 -1.0967
   31DOPE     P 3881   3.632   4.074   6.452 -0.1768 -0.4680 -0.1232
   31DOPE   O13 3882   3.668   3.939   6.493 -0.0676  0.7242  0.1526
   31DOPE   O14 3883   3.542   4.098   6.335 -0.4207 -0.5800  0.4430
   31DOPE   O11 3884   3.574   4.156   6.575  0.1615  0.5850  0.3357
   31DOPE   O12 3885   3.773   4.142   6.406  0.0567 -0.0303  0.5582
   31DOPE    C1 3886   3.439   4.130   6.621 -0.6537  0.0299 -0.1725
   31DOPE    HA 3887   3.370   4.072   6.556  0.8765 -1.1903 -0.7978
   31DOPE    HB 3888   3.395   4.231   6.629  0.3630  0.4055  1.1289
   31DOPE    C2 3889   3.448   4.075   6.768 -0.0497 -0.3530  0.2305
   31DOPE    HS 3890   3.360   4.117   6.820 -0.3507  0.1413 -0.6470
   31DOPE   O21 3891   3.570   4.099   6.838 -0.5777 -0.3684 -0.4553
   31DOPE   C21 3892   3.603   4.226   6.854  0.5768  0.0580  0.5097
   31DOPE   O22 3893   3.526   4.319   6.832 -0.2207  0.1925  0.3702
   31DOPE   C22 3894   3.748   4.239   6.903 -0.4812 -0.0107 -0.2176
   31DOPE   H2R 3895   3.798   4.319   6.845  0.9876  2.1553  3.6120
   31DOPE   H2S 3896   3.806   4.144   6.903  0.6831  0.6690  0.2605
   31DOPE    C3 3897   3.422   3.929   6.772  1.4629 -0.1348 -0.0855
   31DOPE    HX 3898   3.505   3.889   6.710  0.4225  0.3799 -1.8832
   31DOPE    HY 3899   3.322   3.910   6.727  0.7563 -4.1921  2.6324
   31DOPE   O31 3900   3.417   3.875   6.908  0.7875 -0.5541 -0.6421
   31DOPE   C31 3901   3.540   3.820   6.950 -0.6078  0.2886  0.1213
   31DOPE   O32 3902   3.647   3.819   6.889  0.0161  0.0796 -0.3421
   31DOPE   C32 3903   3.537   3.774   7.091  0.3699  0.0569 -0.5658
   31DOPE   H2X 3904   3.531   3.868   7.151 -1.0146 -0.9534  0.9660
   31DOPE   H2Y 3905   3.451   3.706   7.111  0.5150 -0.4605 -1.6547
   31DOPE   C23 3906   3.756   4.291   7.053 -0.5414  0.1524  1.0442
   31DOPE   H3R 3907   3.677   4.369   7.067 -1.0602 -0.1397 -0.1658
   31DOPE   H3S 3908   3.854   4.342   7.064 -0.6983  0.1894  2.4166
   31DOPE   C24 3909   3.728   4.178   7.151 -0.7453  0.7630  0.2763
   31DOPE   H4R 3910   3.799   4.094   7.137 -1.2438  0.5896 -1.6203
   31DOPE   H4S 3911   3.631   4.129   7.125  0.0756 -0.0909 -1.3332
   31DOPE   C25 3912   3.747   4.224   7.297 -0.5313 -0.3270  0.5181
   31DOPE   H5R 3913   3.686   4.314   7.322  0.5446  0.6375 -0.2329
   31DOPE   H5S 3914   3.853   4.251   7.320 -0.3080 -1.0382  0.3359
   31DOPE   C26 3915   3.719   4.113   7.400  0.1901  0.5237  0.1301
   31DOPE   H6R 3916   3.789   4.028   7.384 -0.3307  0.5300 -2.4976
   31DOPE   H6S 3917   3.613   4.086   7.385  0.4298  0.0059 -0.6821
   31DOPE   C27 3918   3.742   4.169   7.540  0.2243 -0.5821  0.6105
   31DOPE   H7R 3919   3.695   4.269   7.523  0.2393 -0.6028  0.4495
   31DOPE   H7S 3920   3.851   4.174   7.559  0.0911  2.8314  1.0808
   31DOPE   C28 3921   3.666   4.092   7.653  0.3458 -1.0834  0.3933
   31DOPE   H8R 3922   3.556   4.103   7.642  0.3101 -1.1286  0.6983
   31DOPE   H8S 3923   3.685   4.157   7.741 -2.0007 -0.4859  0.5239
   31DOPE   C29 3924   3.713   3.950   7.674 -0.4017 -0.6946 -0.1093
   31DOPE   H9R 3925   3.683   3.871   7.603 -2.0473  1.6772 -2.2745
   31DOPE  C210 3926   3.789   3.910   7.778 -0.5416  0.1761 -0.2938
   31DOPE  H10R 3927   3.836   3.811   7.772 -0.5693  0.2067 -1.0898
   31DOPE  C211 3928   3.863   3.992   7.880  0.2044 -0.4038 -0.0109
   31DOPE  H11R 3929   3.887   3.933   7.971 -2.7011  0.1474  1.2309
   31DOPE  H11S 3930   3.796   4.073   7.918 -0.4606  0.0198 -1.9518
   31DOPE  C212 3931   4.001   4.041   7.839  0.1807 -0.1053  0.1268
   31DOPE  H12R 3932   4.028   4.113   7.918  1.4107  1.6243 -1.7621
   31DOPE  H12S 3933   4.011   4.098   7.744  2.8139  1.0054  0.9734
   31DOPE  C213 3934   4.110   3.926   7.842  0.2827 -0.3483 -0.3624
   31DOPE  H13R 3935   4.095   3.875   7.745 -0.8070 -0.3965 -0.1848
   31DOPE  H13S 3936   4.085   3.864   7.931 -0.2962  0.8301  0.3288
   31DOPE  C214 3937   4.253   3.986   7.846 -0.4348 -0.4468  0.0011
   31DOPE  H14R 3938   4.263   4.043   7.941  2.6294 -1.8247  0.6633
   31DOPE  H14S 3939   4.284   4.047   7.758 -0.4064  0.7320  0.8035
   31DOPE  C215 3940   4.347   3.870   7.844  0.5072  0.5645 -0.3976
   31DOPE  H15R 3941   4.313   3.802   7.925 -1.0037 -0.2383 -1.6740
   31DOPE  H15S 3942   4.442   3.912   7.885 -0.2788 -1.6657  4.4317
   31DOPE  C216 3943   4.376   3.792   7.713  0.9238 -0.7601  0.6860
   31DOPE  H16R 3944   4.392   3.859   7.626 -0.4130 -1.3295 -0.0346
   31DOPE  H16S 3945   4.291   3.726   7.684  1.3640 -0.9195 -0.2688
   31DOPE  C217 3946   4.499   3.705   7.725  0.1486  0.0014  0.1842
   31DOPE  H17R 3947   4.468   3.652   7.818 -2.0484  0.7740 -0.0468
   31DOPE  H17S 3948   4.592   3.761   7.745  1.3596 -1.4678 -1.1353
   31DOPE  C218 3949   4.522   3.597   7.618  0.4121 -0.7444  0.0958
   31DOPE  H18R 3950   4.429   3.541   7.597 -0.5943  0.7050  0.5937
   31DOPE  H18S 3951   4.603   3.532   7.658 -0.0742 -0.8754  0.8943
   31DOPE  H18T 3952   4.563   3.630   7.520 -1.2446  1.3637  0.0647
   31DOPE   C33 3953   3.658   3.702   7.123  0.0267 -0.2448 -0.4570
   31DOPE   H3X 3954   3.747   3.763   7.098 -0.7509  1.4546  0.6960
   31DOPE   H3Y 3955   3.669   3.605   7.071  2.1245 -0.0459 -0.4483
   31DOPE   C34 3956   3.671   3.660   7.270 -0.0772  0.3472 -0.4297
   31DOPE   H4X 3957   3.662   3.746   7.341  1.4222  0.2625 -0.1102
   31DOPE   H4Y 3958   3.584   3.595   7.291  1.5078 -0.7273  3.8775
   31DOPE   C35 3959   3.810   3.599   7.280  0.1964  0.0149 -0.1280
   31DOPE   H5X 3960   3.883   3.682   7.279  0.9679 -0.6503 -1.5111
   31DOPE   H5Y 3961   3.819   3.523   7.200 -2.6846  0.9438 -1.4635
   31DOPE   C36 3962   3.835   3.520   7.410  0.1889  0.0731  0.0725
   31DOPE   H6X 3963   3.780   3.423   7.408  1.0756 -0.4441  0.4532
   31DOPE   H6Y 3964   3.790   3.575   7.495 -0.3701 -0.7252  0.3125
   31DOPE   C37 3965   3.981   3.481   7.431  0.0559 -0.7437 -0.8022
   31DOPE   H7X 3966   4.022   3.457   7.331  2.9440 -0.4187  0.2182
   31DOPE   H7Y 3967   4.037   3.568   7.471 -0.9217 -1.3111  2.0306
   31DOPE   C38 3968   3.997   3.362   7.534 -0.4006 -0.5580  0.2740
   31DOPE   H8X 3969   3.936   3.390   7.622  1.1164  0.9546  0.8971
   31DOPE   H8Y 3970   4.106   3.358   7.553 -0.6754 -1.5135  1.8198
   31DOPE   C39 3971   3.980   3.228   7.471 -0.5191  0.6458 -0.3589
   31DOPE   H9X 3972   4.028   3.229   7.372  2.0697 -1.9635  0.7222
   31DOPE  C310 3973   3.888   3.133   7.500 -0.7516  0.9760  0.2187
   31DOPE  H10X 3974   3.884   3.037   7.446  0.2708  0.6104  0.7747
   31DOPE  C311 3975   3.795   3.125   7.621 -0.4329  0.4922  0.0398
   31DOPE  H11X 3976   3.788   3.022   7.664  0.9473  0.0601 -0.6947
   31DOPE  H11Y 3977   3.836   3.190   7.701  0.1281  0.7166 -0.4224
   31DOPE  C312 3978   3.646   3.162   7.578  0.6358  0.5479 -0.6574
   31DOPE  H12X 3979   3.654   3.258   7.523  1.9003  1.2022  0.5945
   31DOPE  H12Y 3980   3.582   3.162   7.668  1.2423 -0.1804 -0.2159
   31DOPE  C313 3981   3.591   3.062   7.483  0.0206 -0.3281  0.0390
   31DOPE  H13X 3982   3.659   3.049   7.396 -0.4549 -1.0351 -0.2392
   31DOPE  H13Y 3983   3.586   2.955   7.513 -1.8050 -0.5601 -0.9667
   31DOPE  C314 3984   3.455   3.101   7.430  0.2323  0.1945  0.0810
   31DOPE  H14X 3985   3.451   3.204   7.389  0.2749 -0.4498 -1.6296
   31DOPE  H14Y 3986   3.395   3.111   7.523  0.8876 -1.5750  0.7374
   31DOPE  C315 3987   3.386   3.008   7.328  0.3063  0.0077 -0.4575
   31DOPE  H15X 3988   3.441   3.017   7.232 -0.4803  0.3502 -0.8842
   31DOPE  H15Y 3989   3.280   3.037   7.311 -0.2947 -1.7309  0.0488
   31DOPE  C316 3990   3.384   2.858   7.366  0.4048  0.1060  0.1376
   31DOPE  H16X 3991   3.348   2.845   7.471  1.1410  1.0207  0.5219
   31DOPE  H16Y 3992   3.489   2.823   7.374  1.3715  2.6951 -0.4367
   31DOPE  C317 3993   3.302   2.777   7.271  0.2435 -0.8275 -0.5127
   31DOPE  H17X 3994   3.197   2.812   7.278  0.8533  0.8867  0.9391
   31DOPE  H17Y 3995   3.339   2.791   7.167 -0.5714  0.3589 -0.6637
   31DOPE  C318 3996   3.296   2.629   7.307 -0.3849  0.5893  0.4370
   31DOPE  H18X 3997   3.264   2.626   7.413 -2.8731  2.4391 -0.1981
   31DOPE  H18Y 3998   3.215   2.582   7.247 -0.9158  1.0155  0.8132
   31DOPE  H18Z 3999   3.395   2.582   7.286  0.0101  0.9389  1.4768
   32DOPE     N 4000   5.066   4.801   6.124  0.9339  0.4860 -0.1541
   32DOPE   HN1 4001   5.123   4.800   6.211 -0.8525  3.3982  1.2240
   32DOPE   HN2 4002   5.095   4.882   6.066  0.6897 -0.2810 -1.3716
   32DOPE   HN3 4003   4.967   4.808   6.154  0.6119 -0.1668 -1.0354
   32DOPE   C12 4004   5.093   4.675   6.041 -0.0684 -0.2995  0.3874
   32DOPE  H12A 4005   5.203   4.676   6.027 -0.0017  0.7378  0.8667
   32DOPE  H12B 4006   5.038   4.690   5.945  1.2358  0.9659 -0.2023
   32DOPE   C11 4007   5.045   4.546   6.108 -0.5891 -0.3882 -0.4091
   32DOPE  H11A 4008   5.116   4.534   6.193 -0.2330  1.7911 -0.3430
   32DOPE  H11B 4009   5.047   4.465   6.032 -0.8315 -0.9896  0.2110
   32DOPE     P 4010   4.797   4.475   6.176 -0.3648 -0.4191 -0.0324
   32DOPE   O13 4011   4.767   4.412   6.047 -0.2784 -0.2827 -0.0385
   32DOPE   O14 4012   4.692   4.536   6.252 -0.2446  0.2876 -0.1303
   32DOPE   O11 4013   4.869   4.369   6.263 -0.1170  0.4801 -0.1242
   32DOPE   O12 4014   4.917   4.572   6.169  0.0261 -0.3018 -0.0784
   32DOPE    C1 4015   4.802   4.252   6.303  0.3052  0.9861 -0.4221
   32DOPE    HA 4016   4.818   4.177   6.223  0.5902 -0.1762  0.6825
   32DOPE    HB 4017   4.693   4.267   6.293  0.4124  1.5826 -0.7428
   32DOPE    C2 4018   4.863   4.207   6.442  0.0315 -0.5226 -0.0809
   32DOPE    HS 4019   4.801   4.121   6.475 -0.2807 -0.4836 -0.5642
   32DOPE   O21 4020   4.853   4.313   6.535 -0.0567 -0.6441 -0.4218
   32DOPE   C21 4021   4.735   4.326   6.586  0.6531 -0.0181 -0.0173
   32DOPE   O22 4022   4.636   4.257   6.580  0.0285  0.0894 -0.3223
   32DOPE   C22 4023   4.727   4.464   6.653  0.0560  0.2752  0.3487
   32DOPE   H2R 4024   4.690   4.522   6.565  1.5585  1.2836  0.3464
   32DOPE   H2S 4025   4.830   4.496   6.679 -0.6004  1.2136  1.9319
   32DOPE    C3 4026   5.009   4.153   6.426 -0.1746 -0.5805 -0.2234
   32DOPE    HX 4027   5.094   4.209   6.381 -0.4459  0.8212  0.9371
   32DOPE    HY 4028   5.001   4.076   6.346  2.3713 -0.0042 -1.1446
   32DOPE   O31 4029   5.056   4.084   6.543 -0.1182  0.1649 -0.4294
   32DOPE   C31 4030   5.103   4.164   6.642  1.4570  0.4594  0.2054
   32DOPE   O32 4031   5.112   4.283   6.628 -0.2263 -0.2320  0.4660
   32DOPE   C32 4032   5.148   4.077   6.761 -0.3338 -0.3132 -0.7868
   32DOPE   H2X 4033   5.070   4.003   6.789  0.4552 -0.7985  0.2511
   32DOPE   H2Y 4034   5.231   4.016   6.719  1.1853  0.1736  1.3426
   32DOPE   C23 4035   4.625   4.478   6.768 -0.6214 -0.5318  0.7017
   32DOPE   H3R 4036   4.529   4.426   6.746 -2.1986  2.3154  0.4076
   32DOPE   H3S 4037   4.600   4.585   6.785 -0.1581 -0.2139 -0.5141
   32DOPE   C24 4038   4.692   4.442   6.904 -0.2409  0.5397 -0.0391
   32DOPE   H4R 4039   4.660   4.509   6.986  3.1266  2.6944 -0.3001
   32DOPE   H4S 4040   4.796   4.479   6.898 -0.3347  1.0452  1.1723
   32DOPE   C25 4041   4.686   4.295   6.949  0.5884 -0.2524 -0.0522
   32DOPE   H5R 4042   4.741   4.227   6.880 -0.0964 -0.5016 -0.3616
   32DOPE   H5S 4043   4.582   4.256   6.953  1.1672 -1.7779  1.4820
   32DOPE   C26 4044   4.744   4.287   7.095 -0.6242 -0.7086  0.6541
   32DOPE   H6R 4045   4.720   4.377   7.156  1.6558 -1.3361  2.6659
   32DOPE   H6S 4046   4.852   4.293   7.070 -0.8540  0.5513 -0.1349
   32DOPE   C27 4047   4.698   4.171   7.184 -0.2317  0.1499  0.1056
   32DOPE   H7R 4048   4.697   4.076   7.126  0.5040  0.7023 -0.8382
   32DOPE   H7S 4049   4.590   4.188   7.201 -0.4626 -1.0563 -0.0788
   32DOPE   C28 4050   4.781   4.158   7.309  0.1570  0.2318 -0.3278
   32DOPE   H8R 4051   4.765   4.248   7.372  0.6016  0.1848 -0.1395
   32DOPE   H8S 4052   4.888   4.159   7.279  0.0581  0.6296 -0.6663
   32DOPE   C29 4053   4.759   4.028   7.389  0.0126 -0.4471  0.0785
   32DOPE   H9R 4054   4.834   3.949   7.369 -0.8954 -1.2195 -0.3448
   32DOPE  C210 4055   4.668   4.009   7.480 -0.3479  0.3015  0.1260
   32DOPE  H10R 4056   4.676   3.912   7.532  0.3941 -0.4462 -1.3239
   32DOPE  C211 4057   4.552   4.097   7.526  0.0731  0.7530 -0.4887
   32DOPE  H11R 4058   4.451   4.053   7.514 -0.2198  1.7066 -1.7891
   32DOPE  H11S 4059   4.533   4.176   7.450 -0.4424  1.6842  0.5749
   32DOPE  C212 4060   4.572   4.164   7.654  0.0616  0.4964  0.1243
   32DOPE  H12R 4061   4.673   4.211   7.648 -0.2405  1.0194 -2.0297
   32DOPE  H12S 4062   4.567   4.098   7.743  1.3991 -0.7674 -0.6896
   32DOPE  C213 4063   4.480   4.277   7.669 -0.4192 -0.6944 -0.0442
   32DOPE  H13R 4064   4.375   4.242   7.672 -1.0137  1.0305  1.2416
   32DOPE  H13S 4065   4.489   4.347   7.583 -0.7329 -1.5599 -0.8026
   32DOPE  C214 4066   4.496   4.368   7.802  0.0162  0.4400  0.5364
   32DOPE  H14R 4067   4.456   4.471   7.788 -0.4830  0.3989  1.5442
   32DOPE  H14S 4068   4.606   4.374   7.820  0.3532  0.3135 -1.2824
   32DOPE  C215 4069   4.435   4.311   7.936 -0.0068  0.7992 -0.7196
   32DOPE  H15R 4070   4.495   4.222   7.965 -1.6793 -0.3274 -0.5761
   32DOPE  H15S 4071   4.330   4.285   7.912  0.5610 -2.0495 -0.5513
   32DOPE  C216 4072   4.444   4.419   8.052 -0.8523 -0.0490  0.2139
   32DOPE  H16R 4073   4.359   4.489   8.038 -1.5383 -0.5961  1.4920
   32DOPE  H16S 4074   4.542   4.471   8.042 -0.0232 -2.0001 -3.5023
   32DOPE  C217 4075   4.419   4.354   8.188 -0.1470 -0.7855  0.5375
   32DOPE  H17R 4076   4.495   4.275   8.204 -1.0702 -2.3536 -2.1315
   32DOPE  H17S 4077   4.323   4.297   8.185  0.0289 -1.0695 -1.9347
   32DOPE  C218 4078   4.411   4.457   8.296  0.3716 -0.4523 -0.0788
   32DOPE  H18R 4079   4.374   4.428   8.396 -0.3853 -3.8617 -1.2289
   32DOPE  H18S 4080   4.336   4.534   8.268  1.0773  0.3658  0.2412
   32DOPE  H18T 4081   4.508   4.512   8.302 -1.1544  2.4271 -0.0540
   32DOPE   C33 4082   5.216   4.161   6.869 -0.2509 -0.0160  0.6854
   32DOPE   H3X 4083   5.249   4.098   6.954  1.5619  0.2286  0.1955
   32DOPE   H3Y 4084   5.152   4.244   6.908 -1.1891 -0.0345 -0.7327
   32DOPE   C34 4085   5.353   4.228   6.828 -0.0111 -0.8494 -0.6769
   32DOPE   H4X 4086   5.422   4.144   6.806  1.2509  0.2197 -0.8762
   32DOPE   H4Y 4087   5.343   4.277   6.728  1.3722  0.3356 -0.2591
   32DOPE   C35 4088   5.408   4.332   6.927 -0.3059  0.0189  0.1967
   32DOPE   H5X 4089   5.366   4.307   7.026 -2.0040  2.3535  0.1674
   32DOPE   H5Y 4090   5.369   4.435   6.914 -0.2133  0.2462  1.5617
   32DOPE   C36 4091   5.565   4.331   6.927 -1.4075 -0.1427  0.3063
   32DOPE   H6X 4092   5.596   4.233   6.885  1.4510 -0.3570  2.6078
   32DOPE   H6Y 4093   5.620   4.342   7.023  1.1475 -3.1363 -0.6463
   32DOPE   C37 4094   5.616   4.432   6.817  0.6092  0.2547  0.2903
   32DOPE   H7X 4095   5.705   4.398   6.760 -0.5558 -1.1516 -0.8131
   32DOPE   H7Y 4096   5.538   4.429   6.737  1.9804  0.5820 -1.1154
   32DOPE   C38 4097   5.640   4.581   6.856 -0.1609 -0.1585 -0.1894
   32DOPE   H8X 4098   5.549   4.623   6.904  0.3349  1.0805 -0.3014
   32DOPE   H8Y 4099   5.656   4.637   6.762 -1.8805 -0.8551 -0.9316
   32DOPE   C39 4100   5.750   4.590   6.951  0.0724 -0.4091 -0.4440
   32DOPE   H9X 4101   5.844   4.544   6.918  0.4847  0.5718 -0.6580
   32DOPE  C310 4102   5.759   4.648   7.074 -0.0470 -0.3197  0.1162
   32DOPE  H10X 4103   5.844   4.635   7.142  0.8622 -1.8520 -1.2327
   32DOPE  C311 4104   5.645   4.733   7.131 -0.8423  0.1203 -0.0830
   32DOPE  H11X 4105   5.688   4.834   7.153 -1.2704  0.2154  0.3242
   32DOPE  H11Y 4106   5.574   4.766   7.053  0.5179 -0.4097 -1.6135
   32DOPE  C312 4107   5.578   4.680   7.255 -0.0072  0.1400  0.4277
   32DOPE  H12X 4108   5.590   4.569   7.259  1.8547  0.3288  0.4851
   32DOPE  H12Y 4109   5.468   4.694   7.242  0.0899 -0.9541 -2.1090
   32DOPE  C313 4110   5.624   4.752   7.383 -1.0202  0.0330 -0.2264
   32DOPE  H13X 4111   5.731   4.727   7.402 -0.9583 -1.0668 -1.8076
   32DOPE  H13Y 4112   5.620   4.861   7.363 -0.2876 -0.1218 -1.3443
   32DOPE  C314 4113   5.542   4.715   7.513 -0.2028  1.0491 -0.5056
   32DOPE  H14X 4114   5.519   4.607   7.525 -1.3869  1.2919 -0.4921
   32DOPE  H14Y 4115   5.445   4.763   7.488 -0.8247  0.3066  0.4033
   32DOPE  C315 4116   5.599   4.770   7.648 -0.3336 -0.8149 -0.0988
   32DOPE  H15X 4117   5.607   4.881   7.643  0.4304 -0.9120 -2.2550
   32DOPE  H15Y 4118   5.702   4.731   7.660 -0.1233  0.2445  1.8649
   32DOPE  C316 4119   5.522   4.729   7.774 -0.9682 -0.2553  0.1134
   32DOPE  H16X 4120   5.414   4.710   7.753 -1.0871 -0.9081  1.2165
   32DOPE  H16Y 4121   5.518   4.814   7.845  3.5481  2.3294 -2.2811
   32DOPE  C317 4122   5.573   4.607   7.849 -0.5101 -0.2148 -0.5980
   32DOPE  H17X 4123   5.554   4.526   7.775 -3.5768 -0.4243  0.2853
   32DOPE  H17Y 4124   5.675   4.632   7.885 -1.2982  2.2415  0.0929
   32DOPE  C318 4125   5.488   4.569   7.975 -0.0433 -0.0610  0.2990
   32DOPE  H18X 4126   5.485   4.657   8.043  0.3827  1.2789 -1.3375
   32DOPE  H18Y 4127   5.387   4.537   7.942  0.2914  0.3801 -1.2462
   32DOPE  H18Z 4128   5.541   4.491   8.034 -0.3315  0.3398  1.1001
   33DOPE     N 4129   5.671   4.027   5.992  0.1875  0.4445  0.2163
   33DOPE   HN1 4130   5.667   4.098   5.916  0.4289 -0.4760 -0.6840
   33DOPE   HN2 4131   5.667   4.082   6.080  0.6414 -1.8258  1.7558
   33DOPE   HN3 4132   5.760   3.973   5.978 -0.8711 -1.3167 -0.0393
   33DOPE   C12 4133   5.561   3.919   5.984 -0.1070  0.0553 -0.4042
   33DOPE  H12A 4134   5.574   3.866   5.887 -0.5759 -1.9591  0.5887
   33DOPE  H12B 4135   5.462   3.970   5.970  0.8715  1.7772 -1.4841
   33DOPE   C11 4136   5.558   3.815   6.102 -0.0191  0.9105  0.0899
   33DOPE  H11A 4137   5.493   3.729   6.074  1.1285 -0.6894  2.1042
   33DOPE  H11B 4138   5.508   3.860   6.190 -0.2234  3.0138 -1.0263
   33DOPE     P 4139   5.725   3.672   6.261 -0.0225 -0.1144  0.2210
   33DOPE   O13 4140   5.838   3.581   6.223 -0.2563 -0.0076  0.4402
   33DOPE   O14 4141   5.601   3.609   6.306  0.2820  0.2490  0.2741
   33DOPE   O11 4142   5.782   3.776   6.370  0.3456  0.5427 -0.0983
   33DOPE   O12 4143   5.685   3.756   6.132  0.4424  0.2543  0.5949
   33DOPE    C1 4144   5.698   3.863   6.451  0.9093 -0.2001  0.3959
   33DOPE    HA 4145   5.590   3.845   6.432  1.0571  0.8006 -1.6654
   33DOPE    HB 4146   5.718   3.968   6.424  0.4588 -0.3509 -0.5607
   33DOPE    C2 4147   5.733   3.843   6.602 -0.7155 -0.4180  0.7653
   33DOPE    HS 4148   5.639   3.858   6.658 -2.4657 -3.4793 -1.0352
   33DOPE   O21 4149   5.851   3.923   6.634 -0.0136  0.3321 -0.4909
   33DOPE   C21 4150   5.822   4.056   6.648 -0.5243 -0.1705  0.0947
   33DOPE   O22 4151   5.711   4.108   6.638  0.3660  0.7318  0.2474
   33DOPE   C22 4152   5.950   4.123   6.706  0.2762  0.2034  0.6420
   33DOPE   H2R 4153   5.955   4.222   6.655  2.0075 -0.3405 -0.3276
   33DOPE   H2S 4154   6.042   4.065   6.683 -2.0066 -3.6082  0.3162
   33DOPE    C3 4155   5.756   3.683   6.621 -0.1955 -0.1335 -1.2342
   33DOPE    HX 4156   5.857   3.665   6.578  0.8824  0.1814  1.0160
   33DOPE    HY 4157   5.673   3.621   6.581 -1.2509 -0.1285  0.8417
   33DOPE   O31 4158   5.764   3.654   6.765  0.4283 -0.1011 -0.1766
   33DOPE   C31 4159   5.882   3.613   6.808  0.1220  0.2979 -0.2797
   33DOPE   O32 4160   5.984   3.595   6.745  0.1980 -0.5465  0.2570
   33DOPE   C32 4161   5.870   3.601   6.964  0.2654  0.8888  0.7480
   33DOPE   H2X 4162   5.762   3.587   6.982  0.0285  0.8286 -0.5761
   33DOPE   H2Y 4163   5.924   3.508   6.994  1.1728  0.6641 -1.3601
   33DOPE   C23 4164   5.937   4.140   6.861 -0.0211  0.1821 -0.2507
   33DOPE   H3R 4165   5.919   4.041   6.908  2.4863 -0.2853 -0.1417
   33DOPE   H3S 4166   5.846   4.203   6.864 -0.7628 -0.7745 -1.6655
   33DOPE   C24 4167   6.062   4.210   6.914  0.1169 -0.0256 -0.8478
   33DOPE   H4R 4168   6.062   4.313   6.873  1.5666  0.2110 -0.3280
   33DOPE   H4S 4169   6.156   4.155   6.891  0.6235  1.2071 -1.7958
   33DOPE   C25 4170   6.034   4.238   7.061 -0.3681 -0.4285 -0.1983
   33DOPE   H5R 4171   5.987   4.146   7.105 -1.1000  0.0867  0.1210
   33DOPE   H5S 4172   5.964   4.324   7.071  2.8368  2.2172  1.2583
   33DOPE   C26 4173   6.161   4.263   7.146  0.2536 -0.0902 -0.1270
   33DOPE   H6R 4174   6.220   4.349   7.108  1.3622 -1.0305 -0.5907
   33DOPE   H6S 4175   6.234   4.179   7.138 -1.1143 -1.2181 -1.1411
   33DOPE   C27 4176   6.121   4.283   7.286  0.3155  0.0035 -0.5334
   33DOPE   H7R 4177   6.065   4.196   7.327  0.4103 -0.7452 -1.9264
   33DOPE   H7S 4178   6.042   4.361   7.292  0.8511  0.4510  1.3008
   33DOPE   C28 4179   6.230   4.323   7.385 -0.3072 -0.6598  0.1227
   33DOPE   H8R 4180   6.283   4.409   7.340 -1.4423  0.5580  1.0427
   33DOPE   H8S 4181   6.306   4.243   7.370 -1.0784 -0.9267 -2.9394
   33DOPE   C29 4182   6.197   4.366   7.527  0.4759 -0.6405  0.4738
   33DOPE   H9R 4183   6.112   4.431   7.551  0.6952 -1.5066  4.1897
   33DOPE  C210 4184   6.264   4.310   7.631  0.0835  0.2898  0.1056
   33DOPE  H10R 4185   6.221   4.344   7.726 -1.9645  0.4562 -0.8184
   33DOPE  C211 4186   6.364   4.198   7.630 -0.1242 -0.0152  0.2718
   33DOPE  H11R 4187   6.466   4.237   7.648 -0.3343  0.6384  0.0714
   33DOPE  H11S 4188   6.374   4.136   7.538 -0.5597  0.6586 -0.2382
   33DOPE  C212 4189   6.339   4.096   7.745  0.3345  0.3537  0.2992
   33DOPE  H12R 4190   6.406   4.007   7.741 -0.3872 -0.2055  0.5113
   33DOPE  H12S 4191   6.234   4.064   7.732  0.1262  2.0626 -3.3454
   33DOPE  C213 4192   6.369   4.159   7.878  0.4786  0.1302 -0.2087
   33DOPE  H13R 4193   6.307   4.251   7.888  0.5825  0.3852 -1.7157
   33DOPE  H13S 4194   6.476   4.188   7.890  0.3604  0.3545  0.3639
   33DOPE  C214 4195   6.330   4.070   7.995  0.0876 -0.5606  0.1758
   33DOPE  H14R 4196   6.385   3.975   8.012 -0.8143 -1.2861 -0.8001
   33DOPE  H14S 4197   6.226   4.038   7.971 -0.5856  0.7579  1.1782
   33DOPE  C215 4198   6.334   4.144   8.141 -0.0747  0.5756  0.2800
   33DOPE  H15R 4199   6.283   4.240   8.119  0.3735  1.0616  1.3070
   33DOPE  H15S 4200   6.441   4.161   8.166  0.3978 -0.0198 -1.2659
   33DOPE  C216 4201   6.258   4.074   8.263  0.5908  0.2315 -0.0131
   33DOPE  H16R 4202   6.297   3.970   8.267 -0.5392 -0.1935  0.4571
   33DOPE  H16S 4203   6.148   4.070   8.247  0.4640  0.2869  0.8190
   33DOPE  C217 4204   6.276   4.137   8.399  0.1923 -0.4452 -0.4080
   33DOPE  H17R 4205   6.276   4.248   8.390  0.6399 -0.4097  0.0041
   33DOPE  H17S 4206   6.374   4.102   8.436  0.8118  0.6321 -0.9815
   33DOPE  C218 4207   6.164   4.096   8.500 -0.4561  0.5815 -0.8821
   33DOPE  H18R 4208   6.061   4.122   8.467 -1.4517 -2.0044 -0.0694
   33DOPE  H18S 4209   6.186   4.147   8.596  0.7127  0.7463 -1.2189
   33DOPE  H18T 4210   6.175   3.987   8.516  2.0940  0.5083 -2.4840
   33DOPE   C33 4211   5.923   3.713   7.049 -0.2737  0.3840  0.6060
   33DOPE   H3X 4212   5.879   3.813   7.029 -0.8487  0.5019  2.3679
   33DOPE   H3Y 4213   6.030   3.724   7.020 -0.3502 -0.7457 -0.1570
   33DOPE   C34 4214   5.929   3.674   7.195  0.1288  0.3792  0.2972
   33DOPE   H4X 4215   5.824   3.645   7.217 -0.6585  3.3758  0.9623
   33DOPE   H4Y 4216   6.005   3.596   7.216  0.7516  0.8327 -0.2396
   33DOPE   C35 4217   5.945   3.786   7.288 -0.1080 -1.5460 -0.1594
   33DOPE   H5X 4218   5.876   3.873   7.283  1.2994 -0.3115  0.7996
   33DOPE   H5Y 4219   6.047   3.829   7.298  0.5397 -3.1493  0.4786
   33DOPE   C36 4220   5.928   3.741   7.434  0.0974 -0.2117  0.9767
   33DOPE   H6X 4221   5.984   3.650   7.462 -1.3550 -0.9658  1.5217
   33DOPE   H6Y 4222   5.820   3.719   7.449  0.0294 -1.7591 -1.2903
   33DOPE   C37 4223   5.959   3.857   7.531 -0.0205 -0.4880 -0.3754
   33DOPE   H7X 4224   6.062   3.892   7.512 -0.0892  0.9801  1.6501
   33DOPE   H7Y 4225   5.897   3.946   7.508  1.1373  1.2707  2.6960
   33DOPE   C38 4226   5.937   3.819   7.686  0.1071 -0.5020  0.8577
   33DOPE   H8X 4227   5.835   3.775   7.680 -0.1714  0.2768 -0.7006
   33DOPE   H8Y 4228   5.934   3.910   7.750 -0.7098  0.4756 -0.5129
   33DOPE   C39 4229   6.030   3.721   7.749  0.2363 -0.2949  0.1765
   33DOPE   H9X 4230   6.086   3.667   7.671 -2.1382  0.0457 -1.9000
   33DOPE  C310 4231   6.054   3.696   7.878 -0.0116  0.0723  0.2783
   33DOPE  H10X 4232   6.114   3.608   7.905  1.6273  0.6187 -1.3447
   33DOPE  C311 4233   6.009   3.771   7.998 -0.3323  0.0704  0.2045
   33DOPE  H11X 4234   6.093   3.776   8.070 -0.0367 -3.2799  0.2317
   33DOPE  H11Y 4235   5.985   3.879   7.982 -2.0043 -0.5052 -1.6823
   33DOPE  C312 4236   5.896   3.690   8.062 -0.4535  0.5751  0.0762
   33DOPE  H12X 4237   5.932   3.591   8.098 -0.0025  0.8174  0.2948
   33DOPE  H12Y 4238   5.814   3.673   7.989 -1.0031 -0.3292  0.8745
   33DOPE  C313 4239   5.849   3.767   8.183 -0.2900 -0.3862  0.5233
   33DOPE  H13X 4240   5.790   3.709   8.257  1.0137 -2.5397 -0.0443
   33DOPE  H13Y 4241   5.937   3.799   8.242 -1.4770 -1.1016  2.7848
   33DOPE  C314 4242   5.779   3.901   8.156  0.3861 -0.6920  0.6943
   33DOPE  H14X 4243   5.855   3.981   8.145  1.4973 -1.5202  2.0153
   33DOPE  H14Y 4244   5.727   3.926   8.250 -0.7130 -0.9730  0.1791
   33DOPE  C315 4245   5.676   3.903   8.042  0.5692 -0.6153  1.3566
   33DOPE  H15X 4246   5.719   3.859   7.949 -0.8311  0.2026  0.2919
   33DOPE  H15Y 4247   5.632   4.002   8.017  1.2012 -0.4984  0.6605
   33DOPE  C316 4248   5.556   3.798   8.062  0.4383 -0.5959 -0.5337
   33DOPE  H16X 4249   5.506   3.832   8.155 -1.1232 -3.0102 -0.4085
   33DOPE  H16Y 4250   5.601   3.697   8.080  2.9286  0.8683  2.5305
   33DOPE  C317 4251   5.463   3.786   7.944  0.7715  1.0596  0.5248
   33DOPE  H17X 4252   5.416   3.884   7.922 -4.7875 -1.1600  0.7709
   33DOPE  H17Y 4253   5.530   3.754   7.861  1.8948 -1.6666  2.3756
   33DOPE  C318 4254   5.349   3.686   7.964  0.4967 -0.7376 -1.0827
   33DOPE  H18X 4255   5.277   3.674   7.880 -0.3797 -0.0010 -0.4500
   33DOPE  H18Y 4256   5.381   3.584   7.996 -2.0633 -1.6101 -1.1365
   33DOPE  H18Z 4257   5.287   3.723   8.048 -0.7241 -0.5018 -2.0673
   34DOPE     N 4258   3.039   4.275   6.011  0.2339  0.1297  1.3966
   34DOPE   HN1 4259   2.948   4.299   6.056  0.1952  1.9978  0.4508
   34DOPE   HN2 4260   3.072   4.366   5.972  0.7146 -0.2292  0.9691
   34DOPE   HN3 4261   3.014   4.207   5.937 -1.2581  1.0093  1.0439
   34DOPE   C12 4262   3.145   4.225   6.109  0.5555 -0.2362  0.1237
   34DOPE  H12A 4263   3.210   4.310   6.142 -0.2259  0.7058 -0.7229
   34DOPE  H12B 4264   3.194   4.137   6.063  0.0134  0.8055 -2.6035
   34DOPE   C11 4265   3.066   4.157   6.223 -0.3451 -0.0763  0.4056
   34DOPE  H11A 4266   3.145   4.142   6.300 -0.2825  0.7452  0.5121
   34DOPE  H11B 4267   3.039   4.055   6.188  3.0490 -1.5582  1.6923
   34DOPE     P 4268   2.834   4.169   6.349  0.3596  0.1452  0.1167
   34DOPE   O13 4269   2.784   4.056   6.267 -0.5443 -0.1705  0.1632
   34DOPE   O14 4270   2.735   4.275   6.377 -0.0084  0.1331  0.5145
   34DOPE   O11 4271   2.900   4.105   6.477  0.4928 -0.5110  0.7912
   34DOPE   O12 4272   2.962   4.239   6.274  0.0274 -0.0996 -0.4415
   34DOPE    C1 4273   2.977   4.192   6.571 -0.2077 -0.0562  0.7342
   34DOPE    HA 4274   2.985   4.297   6.535 -0.8058 -0.1071  0.4270
   34DOPE    HB 4275   3.081   4.157   6.559  0.7795  2.4587  1.3648
   34DOPE    C2 4276   2.931   4.191   6.718  0.2506 -0.7969 -0.9071
   34DOPE    HS 4277   2.991   4.252   6.789  0.0051 -1.4365 -0.1300
   34DOPE   O21 4278   2.915   4.051   6.751  0.4080  0.2113  0.1316
   34DOPE   C21 4279   3.024   4.013   6.808  0.3336 -0.3435 -0.2900
   34DOPE   O22 4280   3.124   4.081   6.825  0.2446  0.0893 -0.2877
   34DOPE   C22 4281   3.014   3.866   6.841  0.2110 -0.5044  0.4235
   34DOPE   H2R 4282   3.112   3.814   6.831  0.9329  0.7069  1.0821
   34DOPE   H2S 4283   2.947   3.825   6.762  1.5550  1.2615 -1.7728
   34DOPE    C3 4284   2.786   4.253   6.729  0.2226 -0.0275  0.1076
   34DOPE    HX 4285   2.727   4.186   6.663 -1.0231  0.3625  0.7890
   34DOPE    HY 4286   2.801   4.355   6.688  0.8756  0.4767  1.5164
   34DOPE   O31 4287   2.734   4.257   6.862 -0.2885  0.3552 -0.1074
   34DOPE   C31 4288   2.611   4.310   6.861 -0.4371 -0.0463 -0.5250
   34DOPE   O32 4289   2.567   4.365   6.763 -0.1496 -0.1095 -0.0255
   34DOPE   C32 4290   2.538   4.299   6.999  0.5655 -0.1912 -0.3792
   34DOPE   H2X 4291   2.515   4.191   7.002 -0.5461 -0.0841 -2.8240
   34DOPE   H2Y 4292   2.604   4.327   7.084 -0.9791  0.8688  0.5297
   34DOPE   C23 4293   2.959   3.830   6.981  0.1107  0.0086  0.1752
   34DOPE   H3R 4294   3.023   3.887   7.051 -1.7374 -0.0245  2.0059
   34DOPE   H3S 4295   2.977   3.725   7.011  0.0598  0.2543  1.1100
   34DOPE   C24 4296   2.813   3.866   7.007  0.2129  0.1137  0.1287
   34DOPE   H4R 4297   2.751   3.823   6.926  1.3282 -2.1151  0.3803
   34DOPE   H4S 4298   2.819   3.976   6.996 -1.3179  0.2972  0.8864
   34DOPE   C25 4299   2.764   3.822   7.141  0.4525 -0.2279 -0.1991
   34DOPE   H5R 4300   2.827   3.748   7.194  2.5801  0.3261 -1.8303
   34DOPE   H5S 4301   2.660   3.783   7.137  0.3020  0.2145 -0.7507
   34DOPE   C26 4302   2.750   3.948   7.227 -0.0325 -0.6579 -0.3241
   34DOPE   H6R 4303   2.676   4.019   7.184 -0.7146  0.7655  2.9139
   34DOPE   H6S 4304   2.848   4.000   7.227  0.6671 -1.9262  0.5044
   34DOPE   C27 4305   2.690   3.915   7.362  0.0343 -0.8249  0.1005
   34DOPE   H7R 4306   2.775   3.871   7.416 -1.3306  0.0543  3.1945
   34DOPE   H7S 4307   2.602   3.847   7.367 -1.6593  1.3043  2.9280
   34DOPE   C28 4308   2.639   4.041   7.443  0.5293  0.3008  0.2858
   34DOPE   H8R 4309   2.587   4.117   7.381  2.0095  1.5461  0.5129
   34DOPE   H8S 4310   2.735   4.090   7.471  0.3807  2.1048 -2.0449
   34DOPE   C29 4311   2.558   4.006   7.568 -0.5274 -0.5754  0.3334
   34DOPE   H9R 4312   2.620   3.995   7.658  2.0090  0.6622 -1.1585
   34DOPE  C210 4313   2.429   4.020   7.586  0.4217  0.5487  0.2563
   34DOPE  H10R 4314   2.377   3.993   7.679 -1.1753 -0.2438 -0.8250
   34DOPE  C211 4315   2.334   4.079   7.485  0.0357  0.8194 -0.8618
   34DOPE  H11R 4316   2.369   4.091   7.380  0.6706 -1.0723 -0.9041
   34DOPE  H11S 4317   2.309   4.183   7.515  1.1956  0.7944  0.2284
   34DOPE  C212 4318   2.204   3.989   7.469  0.0772 -0.5669  0.3314
   34DOPE  H12R 4319   2.150   3.998   7.565 -0.4749  1.1941 -0.1091
   34DOPE  H12S 4320   2.232   3.884   7.442 -0.3808 -0.8703  1.0154
   34DOPE  C213 4321   2.117   4.036   7.349 -0.3560 -0.1773  0.5985
   34DOPE  H13R 4322   2.184   4.035   7.261  0.8455 -0.2990  1.4849
   34DOPE  H13S 4323   2.086   4.142   7.360  1.8177  0.8054 -1.6890
   34DOPE  C214 4324   2.000   3.940   7.342  0.2699 -0.8304 -0.1177
   34DOPE  H14R 4325   1.928   3.948   7.426  0.2164 -0.7057 -0.1759
   34DOPE  H14S 4326   2.041   3.837   7.357 -2.1298 -1.6138  1.8330
   34DOPE  C215 4327   1.938   3.943   7.202  0.5836 -0.9860  0.3924
   34DOPE  H15R 4328   1.906   3.842   7.168  1.5301 -1.3748  0.6174
   34DOPE  H15S 4329   2.021   3.981   7.137 -1.2985  3.8270  0.3971
   34DOPE  C216 4330   1.819   4.043   7.200 -0.3086  0.3196  0.6578
   34DOPE  H16R 4331   1.819   4.101   7.294 -1.3757  3.0629 -0.9254
   34DOPE  H16S 4332   1.722   3.989   7.195  1.3042 -2.8725  0.6880
   34DOPE  C217 4333   1.834   4.145   7.084 -0.2387  0.2285 -1.0522
   34DOPE  H17R 4334   1.840   4.084   6.991 -0.6984 -2.2109  0.4106
   34DOPE  H17S 4335   1.925   4.205   7.102 -0.1790 -0.0448 -0.3878
   34DOPE  C218 4336   1.707   4.239   7.068  0.3187  0.4852 -0.4654
   34DOPE  H18R 4337   1.616   4.178   7.047  0.5675 -0.1127  0.1667
   34DOPE  H18S 4338   1.732   4.316   6.992 -1.7533  2.3569  0.6340
   34DOPE  H18T 4339   1.699   4.280   7.170  2.8468  0.8325 -0.3438
   34DOPE   C33 4340   2.420   4.398   7.007  0.1344 -0.0177  0.4182
   34DOPE   H3X 4341   2.352   4.391   6.919  1.4332  1.8100 -0.8165
   34DOPE   H3Y 4342   2.465   4.499   7.000  0.2392 -0.1318 -0.7438
   34DOPE   C34 4343   2.346   4.369   7.134 -0.3792 -0.6687  0.1262
   34DOPE   H4X 4344   2.324   4.260   7.139 -3.0754 -0.2046  0.2615
   34DOPE   H4Y 4345   2.397   4.395   7.229 -0.1372 -0.4411 -0.0658
   34DOPE   C35 4346   2.210   4.429   7.127  1.0366 -0.2717 -0.0357
   34DOPE   H5X 4347   2.145   4.381   7.052 -0.6312  0.3541  0.9642
   34DOPE   H5Y 4348   2.216   4.536   7.098  0.3518 -0.4813 -0.9920
   34DOPE   C36 4349   2.139   4.419   7.262 -0.1848 -0.3317 -0.0905
   34DOPE   H6X 4350   2.203   4.466   7.339  0.3654 -0.2303 -0.5978
   34DOPE   H6Y 4351   2.126   4.312   7.289 -3.9300  0.2668  1.0482
   34DOPE   C37 4352   1.997   4.491   7.264  0.5073  0.9753 -0.3843
   34DOPE   H7X 4353   2.005   4.601   7.275  2.4590  0.7457  0.9767
   34DOPE   H7Y 4354   1.956   4.446   7.171  1.7583 -1.0490 -0.0179
   34DOPE   C38 4355   1.913   4.436   7.377 -0.0754  0.4606  0.2808
   34DOPE   H8X 4356   1.963   4.454   7.475 -1.0355 -0.5378  0.9665
   34DOPE   H8Y 4357   1.904   4.327   7.357 -1.0093  0.9559 -2.3690
   34DOPE   C39 4358   1.767   4.489   7.375 -0.9917 -0.1127  0.1051
   34DOPE   H9X 4359   1.720   4.493   7.276  0.4815  1.3674 -0.5753
   34DOPE  C310 4360   1.699   4.545   7.479 -0.1051 -0.1351  0.9499
   34DOPE  H10X 4361   1.595   4.573   7.455 -0.6622 -1.5350  1.5674
   34DOPE  C311 4362   1.751   4.564   7.619  0.4852 -0.7714 -0.4266
   34DOPE  H11X 4363   1.670   4.549   7.693  0.6731 -0.5346 -0.1698
   34DOPE  H11Y 4364   1.821   4.485   7.656 -2.1532 -2.8680  0.4133
   34DOPE  C312 4365   1.800   4.705   7.638  0.6009 -0.4878  0.0341
   34DOPE  H12X 4366   1.898   4.728   7.591  1.0087  1.7733  1.7866
   34DOPE  H12Y 4367   1.829   4.720   7.744 -1.0142  0.5691  0.3599
   34DOPE  C313 4368   1.698   4.817   7.591 -0.2232  0.0907  0.3525
   34DOPE  H13X 4369   1.693   4.817   7.480 -0.6583  2.2832  0.3175
   34DOPE  H13Y 4370   1.602   4.792   7.640  0.3767 -0.5902  1.2233
   34DOPE  C314 4371   1.731   4.961   7.632 -0.4153  0.4659 -0.3749
   34DOPE  H14X 4372   1.835   4.981   7.598  0.4296 -0.0202  1.7517
   34DOPE  H14Y 4373   1.728   4.965   7.743 -0.4916 -1.1441 -0.2997
   34DOPE  C315 4374   1.637   5.066   7.581  0.4485  0.0533  0.4760
   34DOPE  H15X 4375   1.534   5.031   7.602  0.5675 -1.3827 -1.0919
   34DOPE  H15Y 4376   1.652   5.073   7.471  1.0337 -0.9984  0.4781
   34DOPE  C316 4377   1.654   5.209   7.636 -0.7037  0.3214 -0.0121
   34DOPE  H16X 4378   1.765   5.211   7.638 -0.6941 -0.6643  0.9351
   34DOPE  H16Y 4379   1.620   5.230   7.739  0.3220 -0.3155  0.4743
   34DOPE  C317 4380   1.595   5.313   7.540 -0.1756  0.2328 -0.3432
   34DOPE  H17X 4381   1.651   5.407   7.560  1.8980 -0.8700 -0.6317
   34DOPE  H17Y 4382   1.631   5.311   7.435 -1.6991  3.6208 -1.0798
   34DOPE  C318 4383   1.439   5.326   7.559 -0.2282  0.3081  0.5120
   34DOPE  H18X 4384   1.396   5.390   7.479  1.5060  0.9433  0.0477
   34DOPE  H18Y 4385   1.393   5.226   7.547  1.0804 -0.2387 -0.0438
   34DOPE  H18Z 4386   1.415   5.364   7.661  0.2223  3.0943 -0.3399
   35DOPE     N 4387   7.601   3.781   6.326  0.0213  0.4611 -0.2666
   35DOPE   HN1 4388   7.635   3.716   6.399 -1.2958 -0.0072 -0.0305
   35DOPE   HN2 4389   7.638   3.760   6.231  0.7498  3.8327 -0.8486
   35DOPE   HN3 4390   7.637   3.875   6.352 -3.5713  1.1719  3.1117
   35DOPE   C12 4391   7.453   3.783   6.316  0.4389 -0.0557 -0.1317
   35DOPE  H12A 4392   7.423   3.684   6.359  1.2088 -0.7106 -1.0701
   35DOPE  H12B 4393   7.428   3.811   6.212  1.4498  2.4512  0.2245
   35DOPE   C11 4394   7.402   3.908   6.396 -0.0409 -0.2453  0.2468
   35DOPE  H11A 4395   7.457   3.902   6.492  0.2223  1.9898  0.2785
   35DOPE  H11B 4396   7.292   3.900   6.416  0.0493 -0.2573  0.7473
   35DOPE     P 4397   7.400   4.167   6.381  0.0978  0.1057  0.4380
   35DOPE   O13 4398   7.271   4.186   6.313 -0.1775  0.5464 -0.2646
   35DOPE   O14 4399   7.506   4.272   6.360 -0.0174  0.1550 -0.0266
   35DOPE   O11 4400   7.378   4.136   6.537  0.0241 -0.2815 -0.0369
   35DOPE   O12 4401   7.450   4.028   6.330 -0.1595 -0.0737  0.1745
   35DOPE    C1 4402   7.284   4.212   6.612  0.0426 -0.3422  0.1909
   35DOPE    HA 4403   7.253   4.157   6.704 -0.4395  0.1908  0.3541
   35DOPE    HB 4404   7.187   4.209   6.557  0.1413 -2.0271  0.0419
   35DOPE    C2 4405   7.345   4.342   6.660 -0.0202 -0.5461 -0.0717
   35DOPE    HS 4406   7.389   4.397   6.574 -0.3743 -2.0555 -1.2565
   35DOPE   O21 4407   7.440   4.297   6.762  0.1790  0.1574  0.2803
   35DOPE   C21 4408   7.542   4.371   6.765 -0.4375 -0.5066 -0.1387
   35DOPE   O22 4409   7.553   4.482   6.713  0.0321 -0.9956  0.0297
   35DOPE   C22 4410   7.652   4.310   6.856 -0.3588 -0.9228 -0.0252
   35DOPE   H2R 4411   7.713   4.236   6.800 -0.5767 -1.7430  0.7828
   35DOPE   H2S 4412   7.605   4.250   6.937  0.0839 -3.2586 -1.3953
   35DOPE    C3 4413   7.239   4.440   6.728 -0.5345  0.1436 -0.3678
   35DOPE    HX 4414   7.209   4.514   6.650  2.0208 -0.3438 -1.9196
   35DOPE    HY 4415   7.290   4.503   6.804 -2.9634  2.1482 -0.2750
   35DOPE   O31 4416   7.122   4.363   6.785 -0.0543  0.0558  0.3650
   35DOPE   C31 4417   7.033   4.444   6.836 -0.4231 -0.7048 -0.7089
   35DOPE   O32 4418   7.039   4.567   6.838  0.5497 -0.0265  0.0363
   35DOPE   C32 4419   6.915   4.361   6.891 -0.3824 -0.1017 -0.6548
   35DOPE   H2X 4420   6.876   4.316   6.797  3.0352  0.6876 -2.6301
   35DOPE   H2Y 4421   6.960   4.279   6.951  1.7916  0.1518 -1.8349
   35DOPE   C23 4422   7.722   4.433   6.917 -0.6745  0.0238  0.1004
   35DOPE   H3R 4423   7.653   4.516   6.943 -0.8672  0.2287 -1.0171
   35DOPE   H3S 4424   7.795   4.482   6.849 -1.1242  1.5762  0.6816
   35DOPE   C24 4425   7.814   4.388   7.036 -0.2990 -0.0500 -0.0911
   35DOPE   H4R 4426   7.882   4.303   7.013  1.1162  0.5508  1.5909
   35DOPE   H4S 4427   7.738   4.345   7.106 -1.5263  2.5923  0.3046
   35DOPE   C25 4428   7.895   4.506   7.085  1.1611  0.2398  0.6660
   35DOPE   H5R 4429   7.820   4.579   7.122  0.9704 -0.8024  2.4041
   35DOPE   H5S 4430   7.959   4.536   6.999 -0.8226  2.2720 -0.2121
   35DOPE   C26 4431   7.977   4.463   7.210  0.4412 -0.1078  0.7613
   35DOPE   H6R 4432   7.923   4.389   7.272  0.7593 -1.3892 -0.4291
   35DOPE   H6S 4433   7.995   4.556   7.268 -1.3515  0.4663  0.4772
   35DOPE   C27 4434   8.105   4.388   7.173 -0.1484 -0.6756 -0.0563
   35DOPE   H7R 4435   8.150   4.444   7.088 -2.4700  0.7633 -0.4211
   35DOPE   H7S 4436   8.079   4.287   7.132 -1.4686 -0.2936 -0.2115
   35DOPE   C28 4437   8.208   4.365   7.284 -0.2942 -0.2185 -0.3894
   35DOPE   H8R 4438   8.296   4.309   7.246  0.6390  0.7729  0.2734
   35DOPE   H8S 4439   8.169   4.296   7.362  2.0603 -0.6333  0.5100
   35DOPE   C29 4440   8.265   4.494   7.344  0.2736 -0.5348 -0.1652
   35DOPE   H9R 4441   8.316   4.565   7.276 -1.4367 -0.6888 -1.7010
   35DOPE  C210 4442   8.248   4.522   7.477 -0.7503  0.4263 -0.1453
   35DOPE  H10R 4443   8.269   4.624   7.512 -3.6202  0.7978  0.7679
   35DOPE  C211 4444   8.186   4.429   7.578  0.7034  0.4671  0.6826
   35DOPE  H11R 4445   8.179   4.321   7.555  1.1465  0.6797 -0.5155
   35DOPE  H11S 4446   8.081   4.456   7.600 -1.1233 -2.3649 -3.2811
   35DOPE  C212 4447   8.270   4.435   7.704 -0.0096 -0.6405 -0.4977
   35DOPE  H12R 4448   8.377   4.432   7.672  0.6399  2.4871  1.0676
   35DOPE  H12S 4449   8.248   4.343   7.762 -0.7241 -0.1160  0.0749
   35DOPE  C213 4450   8.248   4.552   7.800 -0.3984  0.4109  0.2244
   35DOPE  H13R 4451   8.139   4.555   7.825 -0.6511  0.2977 -0.8156
   35DOPE  H13S 4452   8.281   4.638   7.737  0.5200  0.1794  0.3779
   35DOPE  C214 4453   8.332   4.556   7.920 -0.1402 -0.8003 -0.6083
   35DOPE  H14R 4454   8.440   4.551   7.895  0.1064 -0.3793  0.3176
   35DOPE  H14S 4455   8.313   4.476   7.995 -0.7733  0.0472  0.1533
   35DOPE  C215 4456   8.311   4.690   8.000  0.0501 -0.0208 -0.8001
   35DOPE  H15R 4457   8.208   4.685   8.042  0.2818 -1.0721 -0.3273
   35DOPE  H15S 4458   8.312   4.777   7.931 -0.3903 -0.9094 -1.9550
   35DOPE  C216 4459   8.413   4.714   8.116  0.4802 -0.2702 -0.1540
   35DOPE  H16R 4460   8.497   4.751   8.055  0.9505 -0.5950  0.2886
   35DOPE  H16S 4461   8.442   4.621   8.170  0.1141  0.3086  1.0799
   35DOPE  C217 4462   8.379   4.828   8.212  0.5321 -0.5183 -0.5395
   35DOPE  H17R 4463   8.288   4.803   8.270 -0.4172  0.5791 -1.5223
   35DOPE  H17S 4464   8.353   4.922   8.159 -0.8126 -0.2086  0.5965
   35DOPE  C218 4465   8.481   4.845   8.330  0.1090 -0.0996  0.5899
   35DOPE  H18R 4466   8.443   4.925   8.398 -1.4910 -0.5628  0.2710
   35DOPE  H18S 4467   8.577   4.869   8.281 -1.6925  0.9012 -2.7357
   35DOPE  H18T 4468   8.506   4.749   8.380 -0.3565 -1.1261 -1.0718
   35DOPE   C33 4469   6.812   4.439   6.977  0.6143  0.0021  0.5888
   35DOPE   H3X 4470   6.779   4.536   6.933 -0.4189  0.0722  1.4764
   35DOPE   H3Y 4471   6.864   4.463   7.072  0.2043  2.5601  0.2488
   35DOPE   C34 4472   6.675   4.373   6.993  0.6012 -0.9315  0.4472
   35DOPE   H4X 4473   6.640   4.324   6.899  1.6992 -0.4009 -0.2521
   35DOPE   H4Y 4474   6.686   4.301   7.077  1.4577  1.9941  3.0365
   35DOPE   C35 4475   6.550   4.467   7.030 -0.8817 -0.6204  0.6607
   35DOPE   H5X 4476   6.469   4.396   7.059 -3.3384  1.4534 -0.8215
   35DOPE   H5Y 4477   6.516   4.532   6.947 -0.1927  1.2935  1.8121
   35DOPE   C36 4478   6.576   4.555   7.157  0.2032  0.5707 -0.2580
   35DOPE   H6X 4479   6.488   4.620   7.176 -0.4279 -0.5764  0.9164
   35DOPE   H6Y 4480   6.667   4.617   7.142  1.3119 -1.2089 -1.2841
   35DOPE   C37 4481   6.596   4.479   7.287 -0.4351 -0.3311 -0.0472
   35DOPE   H7X 4482   6.518   4.400   7.295  2.1836 -3.1142 -0.0468
   35DOPE   H7Y 4483   6.694   4.426   7.297 -0.0867  0.0453 -1.2882
   35DOPE   C38 4484   6.594   4.585   7.404 -0.5093  1.0407 -0.1474
   35DOPE   H8X 4485   6.503   4.649   7.393 -0.3707  1.2976  0.1774
   35DOPE   H8Y 4486   6.687   4.645   7.395 -0.3907  0.6791 -1.5432
   35DOPE   C39 4487   6.578   4.524   7.539  0.0764 -0.1295  0.5263
   35DOPE   H9X 4488   6.476   4.497   7.569  0.2329 -1.2366  0.1094
   35DOPE  C310 4489   6.674   4.509   7.638 -0.2298 -0.2060  0.6065
   35DOPE  H10X 4490   6.643   4.476   7.738  0.8323 -1.8121  0.4523
   35DOPE  C311 4491   6.822   4.531   7.619 -0.0905 -0.2234 -0.6749
   35DOPE  H11X 4492   6.848   4.553   7.514  4.0902 -1.1551  0.0201
   35DOPE  H11Y 4493   6.852   4.622   7.675  0.6806  0.0451 -1.5177
   35DOPE  C312 4494   6.888   4.402   7.664 -0.3978 -0.0808  0.1788
   35DOPE  H12X 4495   6.857   4.312   7.606  1.9273  0.3096 -1.8046
   35DOPE  H12Y 4496   6.863   4.376   7.769  1.2455 -2.6213  0.0476
   35DOPE  C313 4497   7.043   4.400   7.646  0.3252  0.0311 -0.2403
   35DOPE  H13X 4498   7.088   4.306   7.683  3.8195  1.1014 -1.4078
   35DOPE  H13Y 4499   7.050   4.400   7.535  0.8073 -0.0076 -0.2107
   35DOPE  C314 4500   7.122   4.520   7.700 -0.0437  0.2449  0.2630
   35DOPE  H14X 4501   7.118   4.516   7.811 -1.2576 -3.4057  0.2288
   35DOPE  H14Y 4502   7.089   4.618   7.659  0.1358 -0.1827 -0.9396
   35DOPE  C315 4503   7.269   4.517   7.643 -0.2280 -0.1898 -0.5934
   35DOPE  H15X 4504   7.259   4.536   7.534  0.2575 -0.5842 -0.7105
   35DOPE  H15Y 4505   7.308   4.414   7.659  0.5523  0.1604 -0.2304
   35DOPE  C316 4506   7.357   4.618   7.712  0.1952  0.2252  0.2234
   35DOPE  H16X 4507   7.461   4.605   7.676  0.2473 -1.5361  0.9168
   35DOPE  H16Y 4508   7.359   4.609   7.823  2.0224  1.2386  0.3109
   35DOPE  C317 4509   7.322   4.766   7.671 -0.1863 -0.7057 -0.3981
   35DOPE  H17X 4510   7.341   4.790   7.564  0.8731  5.6697  0.8015
   35DOPE  H17Y 4511   7.220   4.794   7.703  0.4036  0.2000  0.7588
   35DOPE  C318 4512   7.416   4.864   7.732 -1.3339 -0.4146 -0.7031
   35DOPE  H18X 4513   7.524   4.854   7.708 -1.3542 -0.3058 -0.8462
   35DOPE  H18Y 4514   7.385   4.967   7.703 -1.4910  0.3532  1.9561
   35DOPE  H18Z 4515   7.412   4.859   7.843  1.6848 -2.3027 -0.5399
   36DOPE     N 4516   8.181   5.127   6.419 -0.1467 -0.1773 -0.0555
   36DOPE   HN1 4517   8.147   5.029   6.409  1.5878 -0.7454 -0.6685
   36DOPE   HN2 4518   8.228   5.148   6.329  0.7831  0.1946  0.4999
   36DOPE   HN3 4519   8.248   5.134   6.499 -0.1144  0.9859 -0.1646
   36DOPE   C12 4520   8.069   5.216   6.465  0.6937  0.5047  0.0898
   36DOPE  H12A 4521   8.107   5.320   6.479 -2.4256  1.6822  0.6825
   36DOPE  H12B 4522   8.023   5.171   6.555 -0.2736 -0.0988 -0.6869
   36DOPE   C11 4523   7.974   5.227   6.344  0.4952  0.0598 -0.1476
   36DOPE  H11A 4524   8.035   5.291   6.276  2.1217  0.4222  1.5648
   36DOPE  H11B 4525   7.887   5.287   6.379 -0.4686 -0.3164 -1.8037
   36DOPE     P 4526   7.787   5.062   6.275  0.0353 -0.0282 -0.2532
   36DOPE   O13 4527   7.776   4.929   6.209 -0.1909  1.2089 -0.0253
   36DOPE   O14 4528   7.720   5.180   6.211  0.4020  0.1325 -0.0845
   36DOPE   O11 4529   7.738   5.048   6.422 -0.3118  0.1179  0.0504
   36DOPE   O12 4530   7.942   5.096   6.294  0.8796  0.5645  0.7696
   36DOPE    C1 4531   7.779   4.937   6.504 -0.0341  0.1333  1.2896
   36DOPE    HA 4532   7.887   4.917   6.492  0.3961  2.9821 -0.6366
   36DOPE    HB 4533   7.715   4.848   6.490 -0.5711  0.7870 -0.7511
   36DOPE    C2 4534   7.753   4.972   6.649  0.8625 -0.1465 -0.0204
   36DOPE    HS 4535   7.649   5.012   6.657  0.9683  0.8090 -2.5188
   36DOPE   O21 4536   7.856   5.061   6.695 -0.2584  0.2189  0.0784
   36DOPE   C21 4537   7.821   5.164   6.775  0.4821  1.1095  0.5008
   36DOPE   O22 4538   7.704   5.185   6.809  0.0994  0.2586 -0.3711
   36DOPE   C22 4539   7.941   5.245   6.819 -0.1488  0.8239  0.5909
   36DOPE   H2R 4540   7.950   5.338   6.759  1.3140  0.8597  0.8282
   36DOPE   H2S 4541   8.031   5.181   6.805  0.7905  1.3185  3.6619
   36DOPE    C3 4542   7.756   4.846   6.741  0.4322  0.5412  0.3020
   36DOPE    HX 4543   7.859   4.809   6.760 -0.6633 -1.6541  2.5916
   36DOPE    HY 4544   7.692   4.765   6.700 -0.0489  0.7933  0.5360
   36DOPE   O31 4545   7.723   4.882   6.876 -0.0009 -0.0928  0.7283
   36DOPE   C31 4546   7.593   4.911   6.899  0.8971  0.3506  0.3215
   36DOPE   O32 4547   7.506   4.915   6.812 -0.0075 -0.4254  0.5428
   36DOPE   C32 4548   7.575   4.934   7.045  0.2427 -0.4237 -0.1093
   36DOPE   H2X 4549   7.604   4.847   7.108 -0.4425  0.0487  0.8784
   36DOPE   H2Y 4550   7.647   5.014   7.074 -0.0814 -0.0623 -0.2953
   36DOPE   C23 4551   7.929   5.295   6.961 -0.6103  0.0719  0.1015
   36DOPE   H3R 4552   8.033   5.303   7.000 -0.8378  0.2364  0.6867
   36DOPE   H3S 4553   7.885   5.215   7.024 -1.4027  0.3305 -0.1140
   36DOPE   C24 4554   7.854   5.430   6.983 -0.6814  0.2653  0.5116
   36DOPE   H4R 4555   7.749   5.414   6.952 -1.0293 -0.2484  1.8603
   36DOPE   H4S 4556   7.903   5.512   6.926 -0.1038  1.6248  2.8062
   36DOPE   C25 4557   7.859   5.481   7.129  0.2921 -0.1007  0.1254
   36DOPE   H5R 4558   7.961   5.463   7.167  0.0931 -2.5622 -0.3546
   36DOPE   H5S 4559   7.784   5.416   7.178 -0.6421  1.1313  0.3945
   36DOPE   C26 4560   7.803   5.626   7.149  0.3837  0.0350 -0.1357
   36DOPE   H6R 4561   7.714   5.651   7.086 -0.1992  1.1427  1.0774
   36DOPE   H6S 4562   7.880   5.702   7.123 -1.0877  1.5063 -0.4283
   36DOPE   C27 4563   7.768   5.645   7.294 -0.0239 -0.0071 -0.1038
   36DOPE   H7R 4564   7.854   5.605   7.352  0.2895  1.4806  0.5040
   36DOPE   H7S 4565   7.685   5.578   7.327 -1.1670  1.0768 -0.7014
   36DOPE   C28 4566   7.736   5.791   7.327  0.5418  0.1362  0.5872
   36DOPE   H8R 4567   7.823   5.852   7.293 -1.2856  2.5420 -0.0259
   36DOPE   H8S 4568   7.718   5.805   7.436  0.4069 -0.4702  0.6488
   36DOPE   C29 4569   7.609   5.841   7.262  0.2426  0.3293 -0.1812
   36DOPE   H9R 4570   7.539   5.757   7.244 -2.3402  1.8261  2.1360
   36DOPE  C210 4571   7.571   5.965   7.252 -0.4277 -0.3596  0.3458
   36DOPE  H10R 4572   7.473   5.992   7.210  0.0858 -0.3003 -0.8435
   36DOPE  C211 4573   7.632   6.084   7.320  0.4975 -0.6461  0.2894
   36DOPE  H11R 4574   7.604   6.181   7.274 -0.0458 -1.2292 -0.6294
   36DOPE  H11S 4575   7.742   6.077   7.307  1.3434  1.6084  4.3778
   36DOPE  C212 4576   7.597   6.080   7.468  0.5833  0.1658 -0.1719
   36DOPE  H12R 4577   7.653   6.165   7.512 -0.2367  0.4139  0.3987
   36DOPE  H12S 4578   7.625   5.990   7.527  0.6371 -0.3689 -0.9954
   36DOPE  C213 4579   7.452   6.128   7.494 -0.2400  0.1953  0.3479
   36DOPE  H13R 4580   7.377   6.052   7.463  0.9777 -0.8322 -0.1725
   36DOPE  H13S 4581   7.446   6.229   7.449  2.6940  1.0345  1.5888
   36DOPE  C214 4582   7.430   6.144   7.650 -0.3943 -0.6045  0.5617
   36DOPE  H14R 4583   7.513   6.194   7.703 -0.7272 -0.8606  1.3341
   36DOPE  H14S 4584   7.427   6.039   7.689  2.5169 -0.3718  1.6563
   36DOPE  C215 4585   7.297   6.205   7.677  0.1979  0.4778  0.1220
   36DOPE  H15R 4586   7.289   6.280   7.595 -1.7160 -0.7580 -0.9117
   36DOPE  H15S 4587   7.303   6.270   7.767  0.5596 -0.4062  0.7517
   36DOPE  C216 4588   7.174   6.121   7.660  0.1720  0.0181 -0.3669
   36DOPE  H16R 4589   7.184   6.041   7.736  0.5728 -0.3594 -0.8088
   36DOPE  H16S 4590   7.177   6.066   7.563 -0.1010 -1.2709  0.3308
   36DOPE  C217 4591   7.040   6.196   7.682 -0.0065 -0.2698 -0.3913
   36DOPE  H17R 4592   6.960   6.144   7.625 -0.0886  0.9643 -1.4441
   36DOPE  H17S 4593   7.060   6.294   7.634 -0.0717 -0.2400 -0.3579
   36DOPE  C218 4594   7.001   6.212   7.829 -0.3272 -0.1370  0.4626
   36DOPE  H18R 4595   7.091   6.262   7.870  2.2181 -2.1516 -2.2534
   36DOPE  H18S 4596   7.003   6.115   7.882 -1.7625  0.3337  1.4469
   36DOPE  H18T 4597   6.910   6.273   7.851  0.3809  0.3434  2.2265
   36DOPE   C33 4598   7.426   4.980   7.085  0.1545  0.0875  0.8838
   36DOPE   H3X 4599   7.419   4.986   7.196  0.5378  2.3011  0.8354
   36DOPE   H3Y 4600   7.349   4.911   7.044  1.9672 -1.1445 -0.6168
   36DOPE   C34 4601   7.406   5.121   7.032  0.6789 -0.4588  0.0764
   36DOPE   H4X 4602   7.504   5.172   7.032  1.6104 -2.1922  0.3900
   36DOPE   H4Y 4603   7.381   5.106   6.925 -0.6966 -3.3390  0.7080
   36DOPE   C35 4604   7.287   5.209   7.087 -0.6164 -0.2898 -0.1521
   36DOPE   H5X 4605   7.198   5.146   7.067 -1.7066  0.4602  2.0362
   36DOPE   H5Y 4606   7.271   5.305   7.032 -2.4244  1.0498  2.5094
   36DOPE   C36 4607   7.280   5.253   7.234 -0.0667 -0.1776 -0.0325
   36DOPE   H6X 4608   7.275   5.158   7.291 -1.2386  0.5163  1.0709
   36DOPE   H6Y 4609   7.196   5.325   7.245  0.5776  0.5171  0.5090
   36DOPE   C37 4610   7.409   5.333   7.270 -0.1385  0.0229  0.2715
   36DOPE   H7X 4611   7.493   5.270   7.235  0.2738  1.0743 -0.7196
   36DOPE   H7Y 4612   7.409   5.428   7.213 -1.7542  0.1949  0.5163
   36DOPE   C38 4613   7.411   5.365   7.424 -0.5861  0.4024  0.2914
   36DOPE   H8X 4614   7.380   5.277   7.485 -2.5860  0.2587 -0.8390
   36DOPE   H8Y 4615   7.345   5.451   7.449  1.1298  1.2469  2.1009
   36DOPE   C39 4616   7.550   5.409   7.462  0.1988 -0.0121  0.5056
   36DOPE   H9X 4617   7.559   5.518   7.476 -3.9477  0.5481  0.1198
   36DOPE  C310 4618   7.653   5.327   7.486  0.1806  0.6845 -1.0079
   36DOPE  H10X 4619   7.748   5.379   7.505  2.0956 -2.0034 -2.5507
   36DOPE  C311 4620   7.660   5.179   7.484  0.4457  1.0128 -0.1070
   36DOPE  H11X 4621   7.695   5.140   7.582  0.5652  2.8916  0.6285
   36DOPE  H11Y 4622   7.567   5.127   7.452  0.3627  1.3604 -0.4268
   36DOPE  C312 4623   7.759   5.131   7.384 -0.9978  0.1509  0.2377
   36DOPE  H12X 4624   7.856   5.180   7.407 -0.8609  0.3923 -0.8105
   36DOPE  H12Y 4625   7.726   5.176   7.288 -1.6972  2.0793  1.3538
   36DOPE  C313 4626   7.797   4.985   7.392  0.0749 -0.1175  0.9779
   36DOPE  H13X 4627   7.871   4.965   7.312  2.4035  0.7128  2.7837
   36DOPE  H13Y 4628   7.871   4.966   7.473  0.5686  0.5444  0.6940
   36DOPE  C314 4629   7.671   4.887   7.381 -0.7305  0.3205 -0.1917
   36DOPE  H14X 4630   7.625   4.928   7.288 -1.0132  0.1209 -0.1377
   36DOPE  H14Y 4631   7.609   4.905   7.471 -1.2904 -0.6636 -0.3759
   36DOPE  C315 4632   7.712   4.743   7.391  0.7180  0.0339  0.1703
   36DOPE  H15X 4633   7.792   4.736   7.468  2.5224 -0.8843 -1.6958
   36DOPE  H15Y 4634   7.758   4.706   7.297  0.3519  2.0128 -0.8524
   36DOPE  C316 4635   7.591   4.650   7.422 -0.4247  0.5621 -0.6694
   36DOPE  H16X 4636   7.516   4.661   7.341 -0.9140 -0.3998 -0.3613
   36DOPE  H16Y 4637   7.541   4.690   7.513  2.1049 -1.0401  1.5840
   36DOPE  C317 4638   7.630   4.503   7.430 -0.3508  0.5050  0.2894
   36DOPE  H17X 4639   7.541   4.440   7.407 -0.6822  1.3352 -0.8271
   36DOPE  H17Y 4640   7.681   4.484   7.333 -0.7768  0.4284  0.0783
   36DOPE  C318 4641   7.728   4.463   7.542  0.2647 -0.5521 -0.0401
   36DOPE  H18X 4642   7.827   4.504   7.513  0.8304 -1.2116  0.8907
   36DOPE  H18Y 4643   7.691   4.506   7.637 -2.5312  0.3344 -1.4266
   36DOPE  H18Z 4644   7.738   4.352   7.533 -0.8464 -0.6764  0.1561
   37DOPE     N 4645   2.764   1.771   6.749  0.2597  0.3672 -0.0501
   37DOPE   HN1 4646   2.699   1.712   6.692 -2.6216  0.5939  2.6962
   37DOPE   HN2 4647   2.711   1.778   6.838 -0.5321 -2.9271 -0.1257
   37DOPE   HN3 4648   2.784   1.863   6.704  3.4888  0.0330  0.4727
   37DOPE   C12 4649   2.898   1.706   6.762 -0.5756 -0.5253  0.1243
   37DOPE  H12A 4650   2.894   1.631   6.844  0.2580  0.9372  1.5552
   37DOPE  H12B 4651   2.964   1.788   6.799  0.3813 -1.9696  1.7914
   37DOPE   C11 4652   2.947   1.649   6.628  0.5135 -0.1859  0.7534
   37DOPE  H11A 4653   2.878   1.566   6.602 -0.4384  0.9906 -0.6487
   37DOPE  H11B 4654   3.045   1.601   6.650  1.0099  1.6992  3.0016
   37DOPE     P 4655   3.078   1.835   6.476 -0.2914  0.4507 -0.2126
   37DOPE   O13 4656   3.030   1.959   6.418 -0.1289 -0.0072 -0.0436
   37DOPE   O14 4657   3.165   1.758   6.388 -0.5129  0.0140  0.0704
   37DOPE   O11 4658   3.145   1.863   6.611 -0.0461 -0.2328  0.0065
   37DOPE   O12 4659   2.955   1.742   6.516  0.0045  0.0101  0.1673
   37DOPE    C1 4660   3.283   1.832   6.652 -0.2978 -0.3673 -0.0069
   37DOPE    HA 4661   3.351   1.910   6.611 -0.9501  0.8048  1.0868
   37DOPE    HB 4662   3.312   1.729   6.623 -0.8637 -1.5350  3.2035
   37DOPE    C2 4663   3.295   1.837   6.804 -0.3055  0.1032  0.1934
   37DOPE    HS 4664   3.233   1.754   6.842 -0.9827  0.4321 -0.1711
   37DOPE   O21 4665   3.255   1.962   6.857  0.6322 -0.4816  0.2375
   37DOPE   C21 4666   3.216   1.966   6.980  0.6787  0.7894 -0.2625
   37DOPE   O22 4667   3.213   1.872   7.059 -0.3364 -0.0968 -0.0143
   37DOPE   C22 4668   3.166   2.112   7.012  0.0796 -0.6915  0.1621
   37DOPE   H2R 4669   3.108   2.100   7.106 -2.5935  1.2545 -1.1221
   37DOPE   H2S 4670   3.101   2.138   6.926  1.2948 -1.8508 -1.1842
   37DOPE    C3 4671   3.444   1.817   6.849 -0.0543  0.5933  0.3438
   37DOPE    HX 4672   3.452   1.806   6.959  1.7655  0.7878  0.2496
   37DOPE    HY 4673   3.499   1.910   6.824 -0.4002  0.5246 -0.7540
   37DOPE   O31 4674   3.504   1.702   6.788  0.4721 -0.0760 -0.2854
   37DOPE   C31 4675   3.641   1.687   6.794  0.0050  0.0327 -0.2539
   37DOPE   O32 4676   3.726   1.773   6.810 -0.5023 -0.4030 -0.0448
   37DOPE   C32 4677   3.671   1.533   6.782  0.5234  0.4978  0.0366
   37DOPE   H2X 4678   3.611   1.478   6.858  1.0856  0.4289  0.4373
   37DOPE   H2Y 4679   3.632   1.491   6.687  0.0675  0.6393  0.1592
   37DOPE   C23 4680   3.286   2.210   7.044 -0.8265  0.3604  0.3613
   37DOPE   H3R 4681   3.251   2.314   7.063 -1.3060 -0.2481  3.1301
   37DOPE   H3S 4682   3.354   2.206   6.956 -0.1272 -0.4876  0.9315
   37DOPE   C24 4683   3.351   2.193   7.182 -0.0454  0.2573  0.8856
   37DOPE   H4R 4684   3.398   2.092   7.190  2.9669  1.5570  1.1982
   37DOPE   H4S 4685   3.278   2.212   7.262  1.9525 -0.5393  3.0143
   37DOPE   C25 4686   3.473   2.282   7.192  0.1061 -0.2393  0.0923
   37DOPE   H5R 4687   3.446   2.389   7.204 -0.2493 -0.3650  0.4381
   37DOPE   H5S 4688   3.535   2.282   7.099 -0.4781  2.6791 -0.3995
   37DOPE   C26 4689   3.559   2.245   7.312 -0.1220  0.0466  0.8403
   37DOPE   H6R 4690   3.652   2.306   7.310 -0.8281  1.1132 -0.9340
   37DOPE   H6S 4691   3.584   2.137   7.301  0.7962  0.2590  0.6971
   37DOPE   C27 4692   3.496   2.270   7.446 -0.0406  1.0967 -0.9867
   37DOPE   H7R 4693   3.411   2.199   7.458  0.3206  0.8761  0.4217
   37DOPE   H7S 4694   3.464   2.377   7.444 -0.2922  1.0523 -0.0362
   37DOPE   C28 4695   3.593   2.259   7.564 -0.3876 -0.6184 -0.1575
   37DOPE   H8R 4696   3.547   2.306   7.654  3.3871  1.2023  1.0307
   37DOPE   H8S 4697   3.674   2.332   7.547 -1.3945  0.4494 -0.5352
   37DOPE   C29 4698   3.642   2.120   7.600 -0.7934 -0.4988 -0.1880
   37DOPE   H9R 4699   3.684   2.064   7.516 -0.8415  1.3320 -1.4803
   37DOPE  C210 4700   3.653   2.064   7.719  0.0458 -0.4770 -0.9567
   37DOPE  H10R 4701   3.695   1.963   7.730  0.3251 -0.2931 -0.2685
   37DOPE  C211 4702   3.600   2.112   7.852 -0.0387  0.0048 -0.4427
   37DOPE  H11R 4703   3.510   2.052   7.879 -0.5954 -1.2112 -4.3324
   37DOPE  H11S 4704   3.560   2.216   7.848  0.8550  0.3199 -2.1048
   37DOPE  C212 4705   3.701   2.106   7.966 -0.4110 -0.7876 -0.3843
   37DOPE  H12R 4706   3.800   2.150   7.940 -1.0925  0.0241 -1.7425
   37DOPE  H12S 4707   3.725   2.002   7.995  1.9115 -0.5476 -1.1995
   37DOPE  C213 4708   3.656   2.171   8.097  0.2332  0.6084 -0.9567
   37DOPE  H13R 4709   3.550   2.147   8.122  0.1926  2.6826  1.1650
   37DOPE  H13S 4710   3.669   2.281   8.096  0.3153  0.6950  1.8937
   37DOPE  C214 4711   3.741   2.130   8.220  0.4822 -0.0452  0.4644
   37DOPE  H14R 4712   3.850   2.137   8.202  0.2041 -0.4969 -1.6514
   37DOPE  H14S 4713   3.717   2.024   8.240 -0.2339 -0.0739 -0.5085
   37DOPE  C215 4714   3.698   2.213   8.344  0.0564  0.0084 -0.1646
   37DOPE  H15R 4715   3.732   2.318   8.333  2.5100 -0.5314  1.4884
   37DOPE  H15S 4716   3.761   2.180   8.429  0.1952 -2.2138 -1.0680
   37DOPE  C216 4717   3.551   2.223   8.385 -0.3207 -0.6518  0.1994
   37DOPE  H16R 4718   3.528   2.128   8.438 -0.2183 -0.0790  1.2790
   37DOPE  H16S 4719   3.486   2.220   8.295  0.9353 -1.2817 -0.7297
   37DOPE  C217 4720   3.516   2.360   8.463 -0.4120 -0.2448 -0.1690
   37DOPE  H17R 4721   3.584   2.370   8.550 -1.4525 -0.4520  0.6864
   37DOPE  H17S 4722   3.412   2.344   8.499 -0.3989  0.5339  0.2184
   37DOPE  C218 4723   3.535   2.481   8.363  0.5379  0.4906 -0.6617
   37DOPE  H18R 4724   3.489   2.577   8.395 -0.2407  0.1018 -0.5824
   37DOPE  H18S 4725   3.489   2.454   8.265 -1.4272  0.7276  0.1447
   37DOPE  H18T 4726   3.644   2.500   8.351  0.7414  0.1907  0.6105
   37DOPE   C33 4727   3.821   1.494   6.799 -0.6921 -0.4119  0.1809
   37DOPE   H3X 4728   3.882   1.554   6.729  2.3617 -2.5799  0.7880
   37DOPE   H3Y 4729   3.834   1.385   6.781 -1.6363 -0.6964  1.0679
   37DOPE   C34 4730   3.866   1.503   6.948 -0.7908 -0.3664  0.6335
   37DOPE   H4X 4731   3.873   1.613   6.965 -2.4898 -0.2501  0.8015
   37DOPE   H4Y 4732   3.799   1.439   7.010  1.2406 -1.4042  1.8629
   37DOPE   C35 4733   4.005   1.447   6.973  0.1875  0.0765 -0.6344
   37DOPE   H5X 4734   4.089   1.499   6.923 -1.3209  0.7533 -2.6247
   37DOPE   H5Y 4735   4.000   1.338   6.952 -2.2385  0.1200 -0.6175
   37DOPE   C36 4736   4.027   1.479   7.125  0.3837  0.5810 -0.1030
   37DOPE   H6X 4737   3.926   1.467   7.169 -0.4705 -0.7758 -2.2254
   37DOPE   H6Y 4738   4.073   1.574   7.160  0.8674 -0.2040  1.4651
   37DOPE   C37 4739   4.119   1.374   7.187 -0.5285  0.3461  0.2976
   37DOPE   H7X 4740   4.092   1.275   7.145 -1.3954  0.9115 -0.5165
   37DOPE   H7Y 4741   4.216   1.422   7.165 -0.9151  0.4266 -1.3148
   37DOPE   C38 4742   4.099   1.368   7.339  0.2316  0.1808 -1.0633
   37DOPE   H8X 4743   3.997   1.327   7.351  1.2462 -2.1845  0.1150
   37DOPE   H8Y 4744   4.103   1.473   7.373  0.4454  0.5214 -2.1037
   37DOPE   C39 4745   4.204   1.279   7.398  0.3053 -0.0723  1.0410
   37DOPE   H9X 4746   4.306   1.320   7.385 -0.0361  0.4942  0.0587
   37DOPE  C310 4747   4.181   1.163   7.467 -0.4414 -0.7762 -0.4699
   37DOPE  H10X 4748   4.267   1.108   7.509  0.5464  1.1556  0.1520
   37DOPE  C311 4749   4.054   1.097   7.484  0.2805  0.1984  0.6910
   37DOPE  H11X 4750   3.968   1.160   7.451  0.9160  0.1736 -1.0971
   37DOPE  H11Y 4751   4.058   1.015   7.409  0.5563 -0.8483  1.8284
   37DOPE  C312 4752   4.021   1.039   7.618 -0.1955 -0.7841 -0.4491
   37DOPE  H12X 4753   4.005   1.123   7.690  0.7411 -0.8173 -0.1833
   37DOPE  H12Y 4754   4.102   0.978   7.663  2.9987  2.6691 -0.9522
   37DOPE  C313 4755   3.900   0.945   7.614  0.1079 -0.1971 -1.1721
   37DOPE  H13X 4756   3.821   0.992   7.553  1.7228 -0.4106 -3.5599
   37DOPE  H13Y 4757   3.926   0.856   7.552  2.3491  0.9970 -2.0630
   37DOPE  C314 4758   3.869   0.908   7.760  0.6311 -0.0406 -0.0016
   37DOPE  H14X 4759   3.941   0.827   7.783 -0.1536 -1.3403 -1.8662
   37DOPE  H14Y 4760   3.762   0.879   7.755 -0.1728  2.5744  0.1984
   37DOPE  C315 4761   3.858   1.023   7.868  0.3210  0.3739  0.8337
   37DOPE  H15X 4762   3.953   1.075   7.892 -0.1331  0.8213  1.7071
   37DOPE  H15Y 4763   3.826   0.973   7.962 -0.0694 -1.2491 -0.1124
   37DOPE  C316 4764   3.754   1.131   7.846 -0.4775 -0.3105 -0.3674
   37DOPE  H16X 4765   3.665   1.087   7.896  1.2591 -1.9209  1.5083
   37DOPE  H16Y 4766   3.743   1.144   7.737 -0.3693 -0.1687 -0.3631
   37DOPE  C317 4767   3.787   1.260   7.929 -0.4855  0.2185  1.3256
   37DOPE  H17X 4768   3.887   1.299   7.899  0.0983 -2.0022  0.1358
   37DOPE  H17Y 4769   3.711   1.337   7.902  1.8167  1.8720 -0.9832
   37DOPE  C318 4770   3.792   1.241   8.078 -0.4428 -0.1659  0.0148
   37DOPE  H18X 4771   3.806   1.327   8.146  0.8259 -0.5089  0.2012
   37DOPE  H18Y 4772   3.698   1.185   8.101 -0.7499  0.5501  0.5231
   37DOPE  H18Z 4773   3.873   1.169   8.103 -1.3379 -0.8775  0.9744
   38DOPE     N 4774   8.302   4.089   6.320 -0.1525  0.0444  0.0672
   38DOPE   HN1 4775   8.246   4.177   6.313  0.8380  0.9105  2.1278
   38DOPE   HN2 4776   8.313   4.047   6.225 -0.5587  0.6932 -0.2725
   38DOPE   HN3 4777   8.240   4.025   6.374 -1.2799  0.0336 -1.1809
   38DOPE   C12 4778   8.439   4.105   6.377  0.2467 -0.0967 -0.3853
   38DOPE  H12A 4779   8.487   4.187   6.318  2.8323 -0.8977  0.4555
   38DOPE  H12B 4780   8.501   4.013   6.367  0.0587 -0.0855 -2.0218
   38DOPE   C11 4781   8.429   4.160   6.522  0.7273 -0.0947  0.1235
   38DOPE  H11A 4782   8.531   4.161   6.566  1.1266 -1.7523 -0.6666
   38DOPE  H11B 4783   8.372   4.081   6.576  1.7920  0.6019  2.4010
   38DOPE     P 4784   8.229   4.309   6.581  0.0236  0.3785  0.0547
   38DOPE   O13 4785   8.138   4.204   6.529  0.2880  1.0759 -0.2486
   38DOPE   O14 4786   8.189   4.448   6.568  0.0395  0.7784 -0.0641
   38DOPE   O11 4787   8.257   4.270   6.730 -0.9028 -0.2693  0.3752
   38DOPE   O12 4788   8.369   4.288   6.513 -0.5050  0.8858 -0.5985
   38DOPE    C1 4789   8.267   4.362   6.838  0.1132  0.2402 -0.2912
   38DOPE    HA 4790   8.270   4.307   6.934  1.9534 -0.3076 -0.6103
   38DOPE    HB 4791   8.176   4.425   6.845  1.0164  1.6007 -0.1767
   38DOPE    C2 4792   8.388   4.454   6.832  0.5809 -0.0916 -0.5137
   38DOPE    HS 4793   8.382   4.506   6.734 -0.3814  0.9361  0.0774
   38DOPE   O21 4794   8.510   4.373   6.849  0.1659  0.1036 -0.5921
   38DOPE   C21 4795   8.598   4.403   6.761 -0.5997  0.2712  0.5426
   38DOPE   O22 4796   8.613   4.512   6.712 -0.3358  0.2798  0.0664
   38DOPE   C22 4797   8.697   4.290   6.724  1.1843 -0.0046  0.2106
   38DOPE   H2R 4798   8.711   4.284   6.614  0.6915  1.0538  0.0700
   38DOPE   H2S 4799   8.653   4.196   6.764 -0.8363  0.5671 -0.5345
   38DOPE    C3 4800   8.369   4.564   6.932 -0.2060  0.2165 -0.5129
   38DOPE    HX 4801   8.456   4.629   6.955  0.3347  0.2132 -2.3921
   38DOPE    HY 4802   8.357   4.512   7.029 -0.6319  0.3845 -0.4708
   38DOPE   O31 4803   8.245   4.638   6.915  0.2267  0.5621 -0.3301
   38DOPE   C31 4804   8.248   4.751   6.845  0.4509  0.1711 -0.3564
   38DOPE   O32 4805   8.338   4.805   6.788  0.2026  0.2173  0.5139
   38DOPE   C32 4806   8.121   4.831   6.868 -0.4296 -0.2768 -0.3210
   38DOPE   H2X 4807   8.128   4.910   6.790 -0.5973 -0.0040 -0.0630
   38DOPE   H2Y 4808   8.043   4.757   6.844  0.0090 -0.7504 -0.3092
   38DOPE   C23 4809   8.831   4.335   6.796 -0.1611 -0.3519  0.1049
   38DOPE   H3R 4810   8.857   4.438   6.764  1.7787 -0.6337  0.6533
   38DOPE   H3S 4811   8.914   4.273   6.755 -0.9952 -2.0630  0.9125
   38DOPE   C24 4812   8.828   4.302   6.946  0.3180 -0.3133 -0.3179
   38DOPE   H4R 4813   8.750   4.363   6.998 -0.6637  0.9943 -3.0888
   38DOPE   H4S 4814   8.924   4.330   6.994  0.1949 -0.1217 -0.1770
   38DOPE   C25 4815   8.810   4.149   6.973  0.0954  0.3330  0.3339
   38DOPE   H5R 4816   8.888   4.087   6.923  0.8857 -0.9205  2.9486
   38DOPE   H5S 4817   8.709   4.118   6.938 -0.3520 -0.1726  1.9861
   38DOPE   C26 4818   8.821   4.112   7.121  0.1991 -0.6191 -0.1609
   38DOPE   H6R 4819   8.917   4.147   7.165  0.2994  0.4089 -1.1369
   38DOPE   H6S 4820   8.804   4.003   7.127 -0.8349 -0.5852 -1.7750
   38DOPE   C27 4821   8.711   4.180   7.204  0.4969 -0.3059 -0.0981
   38DOPE   H7R 4822   8.619   4.171   7.142 -0.6332  2.4816  1.0213
   38DOPE   H7S 4823   8.734   4.288   7.211  1.6033 -0.5478  0.1395
   38DOPE   C28 4824   8.695   4.110   7.337 -0.8653  0.2543  0.3153
   38DOPE   H8R 4825   8.793   4.098   7.390 -0.9699 -0.4597  0.3586
   38DOPE   H8S 4826   8.666   4.003   7.328 -1.5820  0.2746  2.0393
   38DOPE   C29 4827   8.587   4.180   7.420  0.3548  0.2057 -0.2289
   38DOPE   H9R 4828   8.497   4.220   7.372  0.8647  1.3320 -0.2748
   38DOPE  C210 4829   8.593   4.182   7.549 -0.1106  0.2785 -1.6752
   38DOPE  H10R 4830   8.503   4.206   7.608  1.8488 -2.4665  3.0021
   38DOPE  C211 4831   8.709   4.154   7.640  0.0698 -0.6667 -0.7882
   38DOPE  H11R 4832   8.725   4.241   7.707 -2.0159 -2.2264  1.9543
   38DOPE  H11S 4833   8.806   4.150   7.585  1.2973  0.2139  1.1968
   38DOPE  C212 4834   8.683   4.030   7.714 -0.7215 -0.0089  0.5559
   38DOPE  H12R 4835   8.689   3.950   7.637 -2.9661  1.0444 -0.7655
   38DOPE  H12S 4836   8.585   4.027   7.765 -0.8914 -0.0228  0.2290
   38DOPE  C213 4837   8.791   3.990   7.818  0.0685 -0.1346 -0.0074
   38DOPE  H13R 4838   8.888   3.965   7.771 -0.0397 -1.7959  0.5815
   38DOPE  H13S 4839   8.764   3.889   7.857  3.9756 -1.8640 -1.2840
   38DOPE  C214 4840   8.814   4.094   7.927 -0.5461  0.2652  0.5825
   38DOPE  H14R 4841   8.841   4.189   7.877  0.4392 -0.3570 -0.1169
   38DOPE  H14S 4842   8.904   4.063   7.985  0.4780 -1.0768 -1.5800
   38DOPE  C215 4843   8.698   4.102   8.024 -0.0334  0.1832 -0.1980
   38DOPE  H15R 4844   8.700   4.011   8.088 -0.4015  0.6549  0.4967
   38DOPE  H15S 4845   8.602   4.092   7.969  1.1895 -3.1754 -2.0180
   38DOPE  C216 4846   8.707   4.231   8.106  0.3059  0.3867 -0.2517
   38DOPE  H16R 4847   8.690   4.322   8.045  0.8918  0.5033 -0.2552
   38DOPE  H16S 4848   8.810   4.230   8.149  0.4318  0.1332 -0.5538
   38DOPE  C217 4849   8.603   4.241   8.223  0.1644  0.2542  0.8131
   38DOPE  H17R 4850   8.501   4.236   8.179  0.3974 -0.4309  0.3177
   38DOPE  H17S 4851   8.609   4.342   8.268 -2.1852 -0.8237  3.9807
   38DOPE  C218 4852   8.628   4.143   8.340 -0.8672  0.2841  0.1035
   38DOPE  H18R 4853   8.650   4.039   8.306 -0.0463  1.2641 -2.5969
   38DOPE  H18S 4854   8.538   4.133   8.404 -0.6145 -1.6687  0.2178
   38DOPE  H18T 4855   8.715   4.172   8.402 -1.5433  2.3852  0.1361
   38DOPE   C33 4856   8.095   4.908   6.997  0.0126 -0.1389 -0.8492
   38DOPE   H3X 4857   8.096   4.830   7.076 -1.6817 -0.8956 -1.5238
   38DOPE   H3Y 4858   7.988   4.936   6.988  0.4223  1.4736 -0.9515
   38DOPE   C34 4859   8.188   5.025   7.032 -0.2853 -0.0456  0.3766
   38DOPE   H4X 4860   8.294   4.992   7.038  0.5421  2.5780  2.0683
   38DOPE   H4Y 4861   8.169   5.105   6.958 -1.9160  0.0461  0.8599
   38DOPE   C35 4862   8.163   5.079   7.174  1.0073  0.6397  0.2496
   38DOPE   H5X 4863   8.170   4.999   7.251  0.2560  0.6047  0.2905
   38DOPE   H5Y 4864   8.061   5.123   7.182 -0.2265 -1.7664 -0.9628
   38DOPE   C36 4865   8.249   5.195   7.211 -0.9343 -0.1096  0.2594
   38DOPE   H6X 4866   8.269   5.264   7.126  0.6556  0.8820  1.3702
   38DOPE   H6Y 4867   8.348   5.155   7.241 -0.1516  2.1418  0.9301
   38DOPE   C37 4868   8.201   5.288   7.321 -0.1330 -0.4482 -0.5735
   38DOPE   H7X 4869   8.135   5.367   7.279  1.1266  0.2384 -1.3189
   38DOPE   H7Y 4870   8.141   5.224   7.390 -1.5032 -0.8863 -2.1146
   38DOPE   C38 4871   8.314   5.368   7.389  1.1480  0.4405  0.0216
   38DOPE   H8X 4872   8.273   5.456   7.443 -0.2972  0.2521 -0.7324
   38DOPE   H8Y 4873   8.373   5.402   7.301 -0.6282 -2.5078 -2.5035
   38DOPE   C39 4874   8.395   5.276   7.479 -0.1185 -0.2665 -0.9513
   38DOPE   H9X 4875   8.346   5.245   7.572 -0.0863 -0.9932 -1.1659
   38DOPE  C310 4876   8.511   5.216   7.450 -0.7289  0.0922  0.2438
   38DOPE  H10X 4877   8.539   5.136   7.519 -1.2243  0.5516  0.9950
   38DOPE  C311 4878   8.585   5.218   7.312  0.6391  0.4739  0.9511
   38DOPE  H11X 4879   8.596   5.115   7.272  0.9299  1.4577 -1.6342
   38DOPE  H11Y 4880   8.537   5.261   7.221 -1.2035 -1.1781  1.0611
   38DOPE  C312 4881   8.720   5.277   7.346 -0.0932 -0.6934  0.2010
   38DOPE  H12X 4882   8.789   5.275   7.259  0.1382  1.8784  0.2565
   38DOPE  H12Y 4883   8.768   5.223   7.431 -1.3729 -3.4280 -0.6853
   38DOPE  C313 4884   8.707   5.435   7.392 -0.4884  0.0589  0.1867
   38DOPE  H13X 4885   8.636   5.440   7.477 -2.6565 -1.9230 -1.3783
   38DOPE  H13Y 4886   8.804   5.474   7.429 -0.8799 -0.1407  1.4556
   38DOPE  C314 4887   8.654   5.520   7.273  0.2136  0.7117  0.4680
   38DOPE  H14X 4888   8.544   5.524   7.286  0.2362  2.1103  0.3762
   38DOPE  H14Y 4889   8.660   5.461   7.179  1.2267  0.0319  0.9374
   38DOPE  C315 4890   8.723   5.659   7.241  0.2238 -0.5110  0.1888
   38DOPE  H15X 4891   8.673   5.712   7.157 -3.5515 -2.0321  1.2769
   38DOPE  H15Y 4892   8.831   5.654   7.214  0.9866 -0.2924  2.9101
   38DOPE  C316 4893   8.699   5.747   7.366 -0.7090 -0.0700 -0.8363
   38DOPE  H16X 4894   8.748   5.693   7.450 -3.6310  0.5131  1.4070
   38DOPE  H16Y 4895   8.589   5.752   7.382 -0.7494 -2.1101 -0.1189
   38DOPE  C317 4896   8.762   5.882   7.358  0.1719  0.0897  0.1494
   38DOPE  H17X 4897   8.734   5.936   7.451 -1.1542 -1.5433  0.7397
   38DOPE  H17Y 4898   8.872   5.864   7.357  0.1500 -0.0328  0.0153
   38DOPE  C318 4899   8.719   5.971   7.245 -0.6280  0.3647  0.3343
   38DOPE  H18X 4900   8.750   6.075   7.269  1.8954 -0.4432  0.7787
   38DOPE  H18Y 4901   8.772   5.941   7.152  1.5371  2.4936  0.7967
   38DOPE  H18Z 4902   8.609   5.963   7.229 -0.3628 -1.3920 -0.8793
   39DOPE     N 4903   2.419   4.631   6.367 -0.4671 -0.1043  0.0115
   39DOPE   HN1 4904   2.442   4.713   6.308 -1.7558  1.3456  1.4046
   39DOPE   HN2 4905   2.501   4.585   6.411  0.0375  1.5334  0.8476
   39DOPE   HN3 4906   2.356   4.577   6.304 -0.8702  1.6641 -1.1590
   39DOPE   C12 4907   2.334   4.682   6.482  0.3341  0.2581  0.0830
   39DOPE  H12A 4908   2.311   4.591   6.540 -0.7001  1.0116  0.8988
   39DOPE  H12B 4909   2.240   4.727   6.443  0.3044  0.1078 -0.0202
   39DOPE   C11 4910   2.418   4.779   6.570  0.7438  0.3646 -0.1997
   39DOPE  H11A 4911   2.499   4.722   6.620 -0.5810 -0.1118  1.4912
   39DOPE  H11B 4912   2.355   4.815   6.653  1.9692  0.3290  0.7700
   39DOPE     P 4913   2.553   5.013   6.551 -0.2253  0.2639  0.4801
   39DOPE   O13 4914   2.469   5.128   6.592  0.6782 -0.3318  0.0663
   39DOPE   O14 4915   2.653   5.052   6.448 -0.0184  0.2472  0.3565
   39DOPE   O11 4916   2.636   4.957   6.671  0.0669  0.4027  0.4934
   39DOPE   O12 4917   2.476   4.885   6.495 -0.3508 -0.4488 -0.3726
   39DOPE    C1 4918   2.684   5.037   6.783  0.1220  0.2905 -0.0174
   39DOPE    HA 4919   2.676   5.146   6.761 -2.1472 -0.3804 -3.2919
   39DOPE    HB 4920   2.793   5.017   6.790  0.3488  0.5475 -2.1320
   39DOPE    C2 4921   2.622   5.003   6.918  0.9788  0.1951 -0.3570
   39DOPE    HS 4922   2.662   5.068   6.999 -1.5737 -1.0588  2.0493
   39DOPE   O21 4923   2.639   4.865   6.944  0.0043 -0.3360  0.7718
   39DOPE   C21 4924   2.757   4.822   6.975 -0.2168 -0.1174 -0.2254
   39DOPE   O22 4925   2.860   4.891   6.981  0.1815 -0.1010  0.1805
   39DOPE   C22 4926   2.747   4.682   7.022 -0.3498  0.2398 -0.0981
   39DOPE   H2R 4927   2.762   4.618   6.933 -0.8389  1.0751 -0.7921
   39DOPE   H2S 4928   2.649   4.657   7.068 -0.9398 -0.4010 -1.6605
   39DOPE    C3 4929   2.464   5.023   6.916 -0.6223  0.2341 -0.0733
   39DOPE    HX 4930   2.411   4.990   6.824 -2.4526  1.1990  0.5861
   39DOPE    HY 4931   2.458   5.134   6.917 -1.2853  0.2081 -0.3997
   39DOPE   O31 4932   2.399   4.979   7.031  0.8255  0.6107  0.1468
   39DOPE   C31 4933   2.374   4.846   7.035 -0.6501  1.1416  0.1446
   39DOPE   O32 4934   2.365   4.766   6.937  0.2974 -0.2898  0.6014
   39DOPE   C32 4935   2.336   4.803   7.181 -0.3228  0.3602 -0.2396
   39DOPE   H2X 4936   2.228   4.816   7.202 -0.4590 -0.4526 -0.3947
   39DOPE   H2Y 4937   2.355   4.695   7.195  0.4149  0.6648  1.3735
   39DOPE   C23 4938   2.864   4.657   7.124  0.6708  0.1330  0.2826
   39DOPE   H3R 4939   2.952   4.719   7.097  0.9640  0.4402  1.8695
   39DOPE   H3S 4940   2.884   4.549   7.112 -0.6150 -0.2066  1.0152
   39DOPE   C24 4941   2.842   4.705   7.269 -0.7070 -0.4537 -0.2513
   39DOPE   H4R 4942   2.825   4.815   7.275  1.0083 -0.1382 -0.5756
   39DOPE   H4S 4943   2.940   4.692   7.321 -1.1988 -0.0378  0.7987
   39DOPE   C25 4944   2.742   4.618   7.351  0.1348  0.2661  0.0330
   39DOPE   H5R 4945   2.639   4.640   7.317  0.7052  1.0941 -1.2344
   39DOPE   H5S 4946   2.745   4.633   7.461 -0.3829 -1.9821  0.4035
   39DOPE   C26 4947   2.771   4.464   7.345 -1.0036 -0.3755  0.3051
   39DOPE   H6R 4948   2.753   4.442   7.238 -0.5738  1.1920 -0.1181
   39DOPE   H6S 4949   2.699   4.403   7.404 -1.7849  0.3023  0.0725
   39DOPE   C27 4950   2.919   4.424   7.388  0.2189 -0.2194 -0.2308
   39DOPE   H7R 4951   2.922   4.422   7.499  0.4920  3.0769 -0.1008
   39DOPE   H7S 4952   2.986   4.505   7.353  0.2387  0.3466  1.0687
   39DOPE   C28 4953   2.953   4.287   7.337 -1.1247  0.0508  0.4146
   39DOPE   H8R 4954   2.878   4.214   7.374 -2.3803  1.2340  0.3171
   39DOPE   H8S 4955   3.047   4.271   7.394  0.1926  4.3312 -0.2086
   39DOPE   C29 4956   2.988   4.277   7.186  0.4285 -0.0340 -0.1788
   39DOPE   H9R 4957   2.905   4.300   7.118  1.0821  2.9903 -0.0858
   39DOPE  C210 4958   3.111   4.244   7.133 -0.0392  0.5261  0.0164
   39DOPE  H10R 4959   3.121   4.227   7.025 -1.9258 -0.9287  0.0208
   39DOPE  C211 4960   3.229   4.199   7.212  0.3588  0.1973 -0.6313
   39DOPE  H11R 4961   3.245   4.264   7.301  0.9317  0.0595 -0.6302
   39DOPE  H11S 4962   3.320   4.216   7.151 -0.1794  0.4030 -1.3837
   39DOPE  C212 4963   3.221   4.054   7.259 -0.2164  0.0570 -0.3668
   39DOPE  H12R 4964   3.253   3.993   7.171  0.4448  0.5615 -0.4860
   39DOPE  H12S 4965   3.115   4.027   7.278 -0.0836  0.7646  1.5973
   39DOPE  C213 4966   3.317   4.029   7.370 -0.4212  0.5115  0.1359
   39DOPE  H13R 4967   3.417   4.072   7.348 -1.3631  1.1898 -3.3609
   39DOPE  H13S 4968   3.332   3.920   7.388  2.1418  0.9653  1.2151
   39DOPE  C214 4969   3.274   4.084   7.509 -0.9179  0.3585  0.6565
   39DOPE  H14R 4970   3.272   4.195   7.522  1.2612  0.2500  2.4128
   39DOPE  H14S 4971   3.345   4.049   7.587  1.1416 -0.3728 -1.4421
   39DOPE  C215 4972   3.138   4.023   7.562  0.0295 -0.0097 -0.6134
   39DOPE  H15R 4973   3.160   3.921   7.599  1.0980  1.1477  2.1994
   39DOPE  H15S 4974   3.067   4.008   7.478 -0.6194 -1.6260  0.2028
   39DOPE  C216 4975   3.075   4.096   7.683 -0.5859 -0.2994 -0.1692
   39DOPE  H16R 4976   3.055   4.204   7.662 -0.5447 -0.7104 -2.6212
   39DOPE  H16S 4977   3.146   4.096   7.768  0.5438  0.6270 -1.0728
   39DOPE  C217 4978   2.942   4.037   7.724 -0.2074  0.5409 -0.2090
   39DOPE  H17R 4979   2.866   4.090   7.663 -1.1637 -0.6233 -0.0863
   39DOPE  H17S 4980   2.938   4.074   7.829  1.5182 -2.5898  1.0999
   39DOPE  C218 4981   2.912   3.887   7.721  0.2221 -0.0758  0.4691
   39DOPE  H18R 4982   2.943   3.849   7.621  1.4678  1.7915  0.0773
   39DOPE  H18S 4983   2.807   3.858   7.740 -0.2997  1.2455 -0.2701
   39DOPE  H18T 4984   2.980   3.840   7.795  0.9675  0.6864  0.2903
   39DOPE   C33 4985   2.404   4.887   7.292 -0.2681 -0.1350 -0.4195
   39DOPE   H3X 4986   2.400   4.997   7.281 -2.2170 -0.0129  1.0090
   39DOPE   H3Y 4987   2.512   4.860   7.295  0.0037  0.6407 -2.2944
   39DOPE   C34 4988   2.337   4.858   7.430 -0.2537  0.8459  0.0891
   39DOPE   H4X 4989   2.410   4.904   7.499  0.7751 -2.2715  1.2555
   39DOPE   H4Y 4990   2.240   4.911   7.437 -2.1065 -2.2405 -0.0802
   39DOPE   C35 4991   2.313   4.716   7.459  0.0248 -0.6499  0.2350
   39DOPE   H5X 4992   2.404   4.653   7.447  0.9309  0.9857 -2.3294
   39DOPE   H5Y 4993   2.236   4.680   7.387  0.6981  0.3142 -1.0052
   39DOPE   C36 4994   2.262   4.717   7.603 -0.6642 -0.0630 -0.0236
   39DOPE   H6X 4995   2.170   4.781   7.610 -1.5687 -1.2618 -0.6577
   39DOPE   H6Y 4996   2.337   4.758   7.674  1.2435 -3.0404 -0.1895
   39DOPE   C37 4997   2.242   4.572   7.666 -0.5352 -0.7293  0.2894
   39DOPE   H7X 4998   2.210   4.566   7.772 -1.7801 -0.9477 -0.0892
   39DOPE   H7Y 4999   2.154   4.531   7.613  1.8084 -1.8129 -3.0754
   39DOPE   C38 5000   2.367   4.479   7.646  0.3578 -0.1070  0.4889
   39DOPE   H8X 5001   2.387   4.458   7.539  1.6089 -1.9821  1.0484
   39DOPE   H8Y 5002   2.333   4.380   7.683  0.7574 -1.5901 -2.7887
   39DOPE   C39 5003   2.493   4.522   7.718  0.0813  0.2256 -0.1210
   39DOPE   H9X 5004   2.527   4.624   7.694  2.1016  0.0309  1.6139
   39DOPE  C310 5005   2.575   4.433   7.780  0.6113 -0.8762 -0.6294
   39DOPE  H10X 5006   2.656   4.476   7.842 -1.2331  1.4438  0.2917
   39DOPE  C311 5007   2.553   4.276   7.780  0.3178 -0.3568 -0.4699
   39DOPE  H11X 5008   2.449   4.243   7.803  1.0361 -2.7610 -0.3214
   39DOPE  H11Y 5009   2.577   4.234   7.680 -1.5631 -0.1427 -1.0465
   39DOPE  C312 5010   2.640   4.222   7.899 -0.0429 -0.3946 -0.5662
   39DOPE  H12X 5011   2.613   4.273   7.994 -1.8060  1.3595 -1.9140
   39DOPE  H12Y 5012   2.751   4.225   7.900  0.1001 -1.1522  3.5340
   39DOPE  C313 5013   2.614   4.074   7.927  0.2778 -0.1090  0.2969
   39DOPE  H13X 5014   2.506   4.052   7.912  1.0789 -3.5337 -1.3781
   39DOPE  H13Y 5015   2.665   4.024   7.842  0.4405  0.2341  0.1930
   39DOPE  C314 5016   2.665   4.028   8.054 -0.0749 -0.3297 -0.5215
   39DOPE  H14X 5017   2.598   4.068   8.134  1.1546  2.3967 -0.7395
   39DOPE  H14Y 5018   2.759   4.085   8.072 -1.0477  1.4324 -0.7437
   39DOPE  C315 5019   2.689   3.874   8.053 -0.4099  0.1488 -0.7769
   39DOPE  H15X 5020   2.741   3.852   8.149 -1.6246 -1.0599 -0.3785
   39DOPE  H15Y 5021   2.753   3.856   7.964  0.9081  3.4808 -0.6557
   39DOPE  C316 5022   2.571   3.782   8.027  0.7267 -0.5910 -0.2630
   39DOPE  H16X 5023   2.522   3.809   7.932  0.2767  1.1483  0.4147
   39DOPE  H16Y 5024   2.487   3.788   8.100  0.3566 -2.4983 -0.4737
   39DOPE  C317 5025   2.613   3.632   8.011  0.4628  0.6349  0.2459
   39DOPE  H17X 5026   2.699   3.642   7.941  0.5881  0.6741  0.4041
   39DOPE  H17Y 5027   2.633   3.594   8.114 -0.4807 -0.7516 -0.0466
   39DOPE  C318 5028   2.506   3.549   7.939  0.7656  0.0768 -0.3812
   39DOPE  H18X 5029   2.426   3.517   8.010  1.3016 -1.0441 -0.2594
   39DOPE  H18Y 5030   2.469   3.595   7.845  0.8889  1.5317  0.2557
   39DOPE  H18Z 5031   2.550   3.451   7.911 -2.2912 -1.4224 -0.4064
   40DOPE     N 5032   3.400   5.652   6.755  0.1231 -0.1861  0.0845
   40DOPE   HN1 5033   3.416   5.701   6.845 -1.0021 -0.8810  0.6918
   40DOPE   HN2 5034   3.387   5.732   6.690  1.3124  0.2230  0.3241
   40DOPE   HN3 5035   3.317   5.590   6.754  0.2221 -0.3275 -0.9571
   40DOPE   C12 5036   3.518   5.571   6.717 -0.1213 -0.1673 -0.5077
   40DOPE  H12A 5037   3.549   5.496   6.793  1.7937 -0.7860 -1.8103
   40DOPE  H12B 5038   3.613   5.629   6.704  0.7214 -1.2087  0.7602
   40DOPE   C11 5039   3.489   5.488   6.592  0.2838 -0.2523  0.5961
   40DOPE  H11A 5040   3.585   5.436   6.568  1.0631  0.8042  1.3164
   40DOPE  H11B 5041   3.461   5.547   6.503  0.2735 -0.3915  0.5077
   40DOPE     P 5042   3.398   5.246   6.579 -0.2101 -0.2202 -0.4880
   40DOPE   O13 5043   3.486   5.231   6.458  0.1853 -0.6949 -0.7531
   40DOPE   O14 5044   3.275   5.165   6.575 -0.0394  0.4801 -0.1560
   40DOPE   O11 5045   3.488   5.203   6.706 -0.1831  0.2661  0.1047
   40DOPE   O12 5046   3.372   5.406   6.612  0.0417 -0.0685  0.4737
   40DOPE    C1 5047   3.421   5.184   6.833 -0.5301 -0.9288 -0.4250
   40DOPE    HA 5048   3.370   5.086   6.826  2.6159 -2.7417 -0.1538
   40DOPE    HB 5049   3.350   5.267   6.851  0.3005 -0.4137  0.5786
   40DOPE    C2 5050   3.522   5.194   6.947 -0.4229 -0.4625 -0.5451
   40DOPE    HS 5051   3.595   5.275   6.922 -0.4932  0.1739  1.1629
   40DOPE   O21 5052   3.602   5.075   6.961 -0.0018  0.5404  0.5399
   40DOPE   C21 5053   3.732   5.093   6.999  0.3322  0.1209  0.0023
   40DOPE   O22 5054   3.786   5.203   6.995 -0.1730  0.2674 -0.2219
   40DOPE   C22 5055   3.786   4.954   7.036  0.7014 -0.0713  0.1677
   40DOPE   H2R 5056   3.787   4.885   6.949  0.6202 -1.9700  1.5823
   40DOPE   H2S 5057   3.725   4.910   7.118 -0.8684  1.7761  0.0484
   40DOPE    C3 5058   3.447   5.240   7.072  0.2163  0.0575 -0.7311
   40DOPE    HX 5059   3.367   5.164   7.089 -0.5727  0.8639 -0.7758
   40DOPE    HY 5060   3.382   5.328   7.054  0.6724  1.2105  2.5333
   40DOPE   O31 5061   3.537   5.253   7.180 -0.5574 -0.1609 -0.1888
   40DOPE   C31 5062   3.597   5.374   7.179  0.6035 -0.3470 -0.2345
   40DOPE   O32 5063   3.584   5.456   7.089  0.1442 -0.0058 -0.0741
   40DOPE   C32 5064   3.689   5.397   7.299  0.1030  0.4462  0.0902
   40DOPE   H2X 5065   3.651   5.336   7.384 -2.6819  0.1033 -1.2843
   40DOPE   H2Y 5066   3.791   5.356   7.281 -0.4980 -1.4469  0.7049
   40DOPE   C23 5067   3.931   4.954   7.091 -0.0071 -0.0750 -0.0673
   40DOPE   H3R 5068   3.995   5.000   7.014 -2.1406 -0.4840 -2.2174
   40DOPE   H3S 5069   3.967   4.850   7.102  0.7097  0.0435 -1.1893
   40DOPE   C24 5070   3.936   5.017   7.225 -0.3482  0.0403 -0.2472
   40DOPE   H4R 5071   3.875   4.963   7.300  0.4273  0.3416  0.6287
   40DOPE   H4S 5072   3.920   5.127   7.225  2.5600  0.5546 -0.2167
   40DOPE   C25 5073   4.083   5.013   7.283 -0.0190  0.4249  0.5995
   40DOPE   H5R 5074   4.167   5.047   7.219 -0.1028  2.8041  1.6604
   40DOPE   H5S 5075   4.102   4.904   7.296 -0.2970 -0.0078 -2.0557
   40DOPE   C26 5076   4.106   5.087   7.423 -0.0246 -0.5480 -1.1219
   40DOPE   H6R 5077   4.183   5.027   7.475  0.7681  0.1954 -1.4045
   40DOPE   H6S 5078   4.007   5.088   7.473 -0.2090  1.7878 -1.4237
   40DOPE   C27 5079   4.150   5.231   7.399  0.5264  0.6719  0.1564
   40DOPE   H7R 5080   4.083   5.282   7.326  1.3370  0.6322 -0.6419
   40DOPE   H7S 5081   4.252   5.220   7.355 -0.0691 -0.7739 -0.9301
   40DOPE   C28 5082   4.148   5.315   7.527  0.1285 -0.3002  0.1674
   40DOPE   H8R 5083   4.206   5.276   7.613 -0.1108 -1.5446 -0.2066
   40DOPE   H8S 5084   4.043   5.296   7.558  0.3481 -1.6457  0.1644
   40DOPE   C29 5085   4.162   5.464   7.510 -0.5430 -0.3705  0.0468
   40DOPE   H9R 5086   4.073   5.515   7.550 -0.0719 -0.3796  1.1496
   40DOPE  C210 5087   4.270   5.541   7.482  0.1253 -0.2504  0.1714
   40DOPE  H10R 5088   4.250   5.649   7.477  0.1429 -0.3007 -2.7654
   40DOPE  C211 5089   4.409   5.491   7.460  0.4397 -0.6023  0.7534
   40DOPE  H11R 5090   4.427   5.516   7.353 -2.8139 -0.3258  0.1680
   40DOPE  H11S 5091   4.413   5.381   7.472  2.5495 -0.5230  1.1251
   40DOPE  C212 5092   4.513   5.535   7.561 -0.0851  0.4899  0.0325
   40DOPE  H12R 5093   4.607   5.483   7.533  1.4574  3.2638 -0.3087
   40DOPE  H12S 5094   4.490   5.515   7.668 -0.2935 -0.9511 -0.2694
   40DOPE  C213 5095   4.540   5.687   7.557  0.6742 -0.1100  0.2436
   40DOPE  H13R 5096   4.448   5.738   7.594 -0.9612 -2.8131  0.2273
   40DOPE  H13S 5097   4.545   5.720   7.451  0.0393 -2.3945 -0.5743
   40DOPE  C214 5098   4.673   5.722   7.620 -0.0077 -0.6409  0.4455
   40DOPE  H14R 5099   4.665   5.832   7.633 -0.1814 -0.4796 -0.8552
   40DOPE  H14S 5100   4.759   5.711   7.549 -1.4093  0.8302 -1.5978
   40DOPE  C215 5101   4.707   5.665   7.755 -0.0578 -0.2125 -0.4638
   40DOPE  H15R 5102   4.728   5.555   7.755 -2.1584 -0.6951  1.3950
   40DOPE  H15S 5103   4.615   5.679   7.816 -0.8607  2.8867 -2.1575
   40DOPE  C216 5104   4.824   5.738   7.826 -0.0399 -0.4295  0.6241
   40DOPE  H16R 5105   4.914   5.757   7.765  1.3790 -0.8975  2.4561
   40DOPE  H16S 5106   4.855   5.660   7.900 -1.7301  0.1765  2.0550
   40DOPE  C217 5107   4.796   5.866   7.908  0.5509 -0.0983 -0.6019
   40DOPE  H17R 5108   4.713   5.846   7.979 -0.9018  0.8811 -1.9529
   40DOPE  H17S 5109   4.764   5.939   7.831 -0.5655 -0.3705 -0.4232
   40DOPE  C218 5110   4.923   5.916   7.977  0.2510  0.5025  0.5339
   40DOPE  H18R 5111   5.009   5.885   7.913 -0.6752 -0.3898 -0.3189
   40DOPE  H18S 5112   4.942   5.871   8.076  1.7660 -1.6670 -0.6527
   40DOPE  H18T 5113   4.926   6.027   7.978  1.8049  0.4888 -0.1181
   40DOPE   C33 5114   3.699   5.542   7.354  0.2959  0.5706  0.7046
   40DOPE   H3X 5115   3.747   5.522   7.452  0.7347 -2.2923  0.0031
   40DOPE   H3Y 5116   3.599   5.590   7.366  0.5692  1.1108  0.8734
   40DOPE   C34 5117   3.796   5.633   7.274 -0.2138  0.6616  0.0617
   40DOPE   H4X 5118   3.889   5.573   7.261 -2.1350 -2.1039 -1.7972
   40DOPE   H4Y 5119   3.757   5.639   7.171 -0.0878 -3.9968 -0.4739
   40DOPE   C35 5120   3.822   5.761   7.345  0.3099 -0.2974  0.0451
   40DOPE   H5X 5121   3.870   5.831   7.273  0.7679  0.5742  1.1472
   40DOPE   H5Y 5122   3.890   5.754   7.433  1.3930 -0.2993 -0.7719
   40DOPE   C36 5123   3.692   5.836   7.382  0.0454 -0.2217 -0.8417
   40DOPE   H6X 5124   3.659   5.792   7.478 -0.1984  1.3311 -0.1870
   40DOPE   H6Y 5125   3.618   5.820   7.301 -1.0222  3.7397 -0.8859
   40DOPE   C37 5126   3.717   5.985   7.417  0.3110  0.0914 -0.2553
   40DOPE   H7X 5127   3.794   5.994   7.497  0.7209 -0.2148 -0.6153
   40DOPE   H7Y 5128   3.750   6.036   7.324  1.3148  1.3201  0.7359
   40DOPE   C38 5129   3.584   6.052   7.458 -0.8213  0.5512 -0.3032
   40DOPE   H8X 5130   3.565   6.005   7.556  1.8667  0.4272  0.2463
   40DOPE   H8Y 5131   3.501   6.014   7.395  0.1150 -1.3058 -0.4763
   40DOPE   C39 5132   3.583   6.203   7.466  0.1880 -0.4386 -0.0695
   40DOPE   H9X 5133   3.596   6.253   7.369  1.0448  2.1809  1.3051
   40DOPE  C310 5134   3.584   6.284   7.573 -0.4690  0.1755  0.7119
   40DOPE  H10X 5135   3.570   6.393   7.566 -0.1779  0.2155  0.7372
   40DOPE  C311 5136   3.585   6.235   7.711  0.5428 -0.3754 -0.3164
   40DOPE  H11X 5137   3.614   6.128   7.721 -0.2284 -0.6376 -0.8301
   40DOPE  H11Y 5138   3.649   6.295   7.780 -0.9446 -0.6139  1.3563
   40DOPE  C312 5139   3.441   6.257   7.766 -0.4459  0.1567 -0.4777
   40DOPE  H12X 5140   3.354   6.218   7.709  1.7314 -3.1056 -1.8527
   40DOPE  H12Y 5141   3.433   6.368   7.766 -0.7467  0.1471 -1.6729
   40DOPE  C313 5142   3.424   6.205   7.912 -0.1425 -0.1085  0.5213
   40DOPE  H13X 5143   3.452   6.097   7.915  0.2880 -0.0338 -0.4844
   40DOPE  H13Y 5144   3.500   6.259   7.972  1.1956 -0.6621 -0.6181
   40DOPE  C314 5145   3.276   6.223   7.972 -0.2716 -0.0840 -0.1261
   40DOPE  H14X 5146   3.198   6.163   7.922 -0.2729  1.2507 -1.8442
   40DOPE  H14Y 5147   3.253   6.331   7.959  1.4771  0.7956  3.0887
   40DOPE  C315 5148   3.268   6.202   8.119 -0.4899 -0.2605 -0.3954
   40DOPE  H15X 5149   3.362   6.247   8.156 -0.5700  0.7561 -1.3917
   40DOPE  H15Y 5150   3.284   6.095   8.146  1.6267  0.0222 -0.3713
   40DOPE  C316 5151   3.150   6.264   8.185  0.4243 -0.3399 -0.0959
   40DOPE  H16X 5152   3.056   6.210   8.156  0.4916  0.0901 -1.1543
   40DOPE  H16Y 5153   3.137   6.367   8.148 -0.1189 -0.3905 -0.0618
   40DOPE  C317 5154   3.167   6.262   8.340 -0.5576  0.1297  0.1654
   40DOPE  H17X 5155   3.218   6.169   8.372 -0.1657  0.6553  1.1303
   40DOPE  H17Y 5156   3.241   6.338   8.375 -1.6469  0.7427  1.2125
   40DOPE  C318 5157   3.045   6.301   8.422  0.2173 -0.2098 -0.3031
   40DOPE  H18X 5158   2.980   6.210   8.427  0.4846 -0.4780 -1.4643
   40DOPE  H18Y 5159   3.065   6.334   8.526 -2.4249 -1.2666  0.6292
   40DOPE  H18Z 5160   2.987   6.381   8.372 -0.0037 -0.4735 -0.4746
   41DOPE     N 5161   2.140   7.948   6.232 -0.6975 -0.2035 -0.5606
   41DOPE   HN1 5162   2.239   7.975   6.242 -0.9489  0.0019  2.0537
   41DOPE   HN2 5163   2.106   7.931   6.135 -3.7935  0.8403  0.2199
   41DOPE   HN3 5164   2.071   8.016   6.271 -0.2859  0.4724 -1.0028
   41DOPE   C12 5165   2.130   7.811   6.286  0.4224  0.2490 -0.1341
   41DOPE  H12A 5166   2.204   7.744   6.236 -1.0462  0.2443 -2.4644
   41DOPE  H12B 5167   2.027   7.772   6.273 -0.8393  2.8519  1.3479
   41DOPE   C11 5168   2.173   7.814   6.429  0.0305  0.3158 -0.6219
   41DOPE  H11A 5169   2.144   7.723   6.485  0.2162  1.2261  1.0338
   41DOPE  H11B 5170   2.118   7.892   6.487 -1.1592 -0.9874  0.0697
   41DOPE     P 5171   2.396   7.746   6.549  0.0946 -0.2727 -0.1004
   41DOPE   O13 5172   2.532   7.791   6.559 -0.1023  1.1068  0.4064
   41DOPE   O14 5173   2.375   7.602   6.509  0.3712  0.3885  0.1472
   41DOPE   O11 5174   2.315   7.764   6.684  0.4170 -0.3015  0.1749
   41DOPE   O12 5175   2.314   7.829   6.439  0.1940 -0.7254 -0.1447
   41DOPE    C1 5176   2.343   7.877   6.765 -0.7617 -0.5275 -0.4914
   41DOPE    HA 5177   2.250   7.922   6.805 -0.0589 -0.0450  0.6759
   41DOPE    HB 5178   2.386   7.962   6.708 -1.6563  0.6867  0.5737
   41DOPE    C2 5179   2.434   7.835   6.882 -0.0061 -0.2571  0.9786
   41DOPE    HS 5180   2.539   7.837   6.844  0.2502  0.8264  1.6887
   41DOPE   O21 5181   2.401   7.707   6.930 -0.6769 -0.2311  0.1870
   41DOPE   C21 5182   2.500   7.652   7.005  0.1664  0.3781  0.2030
   41DOPE   O22 5183   2.620   7.669   6.994 -0.0744  0.0616  0.7324
   41DOPE   C22 5184   2.437   7.570   7.116 -0.3695 -0.2541 -0.7111
   41DOPE   H2R 5185   2.359   7.513   7.062  0.4170 -1.4397 -0.6468
   41DOPE   H2S 5186   2.386   7.638   7.187  0.5691 -0.4068  0.1420
   41DOPE    C3 5187   2.423   7.945   6.993 -0.4183  0.8086  0.0286
   41DOPE    HX 5188   2.320   7.982   7.015 -0.1175  2.0252 -0.5011
   41DOPE    HY 5189   2.488   8.029   6.961  1.2997 -0.5492 -0.1798
   41DOPE   O31 5190   2.477   7.891   7.111 -0.3112  0.6822 -0.4755
   41DOPE   C31 5191   2.529   7.979   7.202 -0.1595  0.4317 -0.0036
   41DOPE   O32 5192   2.510   8.098   7.200 -0.4713  0.3804 -0.2070
   41DOPE   C32 5193   2.628   7.908   7.301 -0.1137  0.3767  0.1540
   41DOPE   H2X 5194   2.582   7.811   7.330  0.3646 -0.4281 -1.5949
   41DOPE   H2Y 5195   2.731   7.890   7.262  0.5111  2.6100  0.6662
   41DOPE   C23 5196   2.526   7.467   7.191  0.0434  0.1464  0.7970
   41DOPE   H3R 5197   2.601   7.428   7.119 -1.5998 -1.7787  0.0144
   41DOPE   H3S 5198   2.477   7.371   7.218  3.4568 -1.1611  3.0227
   41DOPE   C24 5199   2.611   7.525   7.302  0.3912 -0.4950  0.5392
   41DOPE   H4R 5200   2.547   7.576   7.377 -3.1541 -0.7607 -2.0942
   41DOPE   H4S 5201   2.675   7.608   7.264 -1.0093  1.2208  1.7731
   41DOPE   C25 5202   2.699   7.420   7.368 -0.0361 -0.0760  0.2425
   41DOPE   H5R 5203   2.755   7.369   7.286  1.2802 -2.5110  2.4884
   41DOPE   H5S 5204   2.642   7.341   7.421  1.2932 -0.3115  1.3728
   41DOPE   C26 5205   2.807   7.477   7.464  0.3949  0.6500 -0.5316
   41DOPE   H6R 5206   2.755   7.528   7.548 -0.2223  1.0711 -1.1545
   41DOPE   H6S 5207   2.876   7.548   7.415  1.3461  1.1386  1.4116
   41DOPE   C27 5208   2.890   7.364   7.526 -0.3926  0.5118  0.0899
   41DOPE   H7R 5209   2.924   7.303   7.440 -0.7077  2.0321 -1.1577
   41DOPE   H7S 5210   2.826   7.300   7.591 -1.0559  1.3065  0.2405
   41DOPE   C28 5211   3.000   7.420   7.611 -0.2015 -0.1134 -0.0091
   41DOPE   H8R 5212   3.068   7.484   7.551 -0.5589 -0.3418 -0.6649
   41DOPE   H8S 5213   3.068   7.336   7.637  1.3231  0.9933 -0.2779
   41DOPE   C29 5214   2.964   7.494   7.738  0.0679  0.0629 -0.4357
   41DOPE   H9R 5215   2.895   7.573   7.705 -1.3979 -2.3108 -3.6175
   41DOPE  C210 5216   3.003   7.461   7.866 -0.9511 -0.3432  0.1464
   41DOPE  H10R 5217   2.952   7.501   7.955 -0.3923 -0.5660  0.5752
   41DOPE  C211 5218   3.101   7.349   7.891  0.3089 -0.2886  0.2383
   41DOPE  H11R 5219   3.163   7.364   7.982  0.1400 -1.6285  0.5905
   41DOPE  H11S 5220   3.176   7.332   7.811  0.1451 -1.9594  0.4134
   41DOPE  C212 5221   3.017   7.223   7.913  0.3763 -0.1032 -0.0260
   41DOPE  H12R 5222   2.956   7.197   7.824  0.8015  1.0710 -0.6755
   41DOPE  H12S 5223   2.945   7.247   7.994  1.2821  0.3763  0.6616
   41DOPE  C213 5224   3.106   7.107   7.948 -0.3723  0.5261 -0.1031
   41DOPE  H13R 5225   3.158   7.129   8.043  0.4472  1.5353 -0.7694
   41DOPE  H13S 5226   3.185   7.096   7.870 -1.5609 -1.0280 -1.1609
   41DOPE  C214 5227   3.032   6.969   7.952 -0.1911  0.1901  0.0109
   41DOPE  H14R 5228   2.922   6.982   7.960 -0.3462  0.0183 -1.4505
   41DOPE  H14S 5229   3.053   6.919   8.048 -0.7000 -1.1554 -0.5586
   41DOPE  C215 5230   3.065   6.880   7.831  0.1025 -0.2813  0.2242
   41DOPE  H15R 5231   3.170   6.901   7.802  1.1171 -1.8310  2.4917
   41DOPE  H15S 5232   2.994   6.906   7.749 -0.4602  0.6359  0.9805
   41DOPE  C216 5233   3.063   6.734   7.877  0.2560 -0.8345  0.6903
   41DOPE  H16R 5234   3.109   6.738   7.978  1.5001  1.7549  0.1296
   41DOPE  H16S 5235   3.132   6.675   7.813  0.6191  1.0152 -0.7171
   41DOPE  C217 5236   2.928   6.674   7.894 -0.7025  0.3161 -0.1437
   41DOPE  H17R 5237   2.886   6.657   7.792 -0.3038 -2.7412  0.0835
   41DOPE  H17S 5238   2.852   6.731   7.951  0.0153  2.0474 -0.8538
   41DOPE  C218 5239   2.942   6.537   7.959  0.4875 -0.1073  0.5638
   41DOPE  H18R 5240   2.974   6.561   8.063  2.9019  2.9157 -0.6996
   41DOPE  H18S 5241   3.025   6.481   7.911  1.3520  2.7571 -1.5710
   41DOPE  H18T 5242   2.841   6.490   7.964  0.2936  0.0138 -1.2876
   41DOPE   C33 5243   2.658   7.983   7.433 -0.3506 -0.3223 -0.0267
   41DOPE   H3X 5244   2.555   7.994   7.474 -1.6674 -1.0513 -2.8807
   41DOPE   H3Y 5245   2.708   8.077   7.405  1.4417 -2.1838 -3.7624
   41DOPE   C34 5246   2.748   7.903   7.532  0.0116 -0.4821 -0.0917
   41DOPE   H4X 5247   2.692   7.807   7.526 -0.8483  0.0445 -0.7520
   41DOPE   H4Y 5248   2.846   7.901   7.479 -0.2841  1.3593 -0.7566
   41DOPE   C35 5249   2.755   7.951   7.673  0.2093  0.8786  0.4234
   41DOPE   H5X 5250   2.650   7.958   7.710  0.0097  1.8616 -0.3037
   41DOPE   H5Y 5251   2.810   8.046   7.690  0.3923  0.8090  0.2350
   41DOPE   C36 5252   2.818   7.843   7.768 -0.3795  0.3114 -0.3222
   41DOPE   H6X 5253   2.927   7.850   7.748 -0.4453 -1.6628 -1.6679
   41DOPE   H6Y 5254   2.781   7.746   7.728 -0.0001 -0.3101  0.7908
   41DOPE   C37 5255   2.783   7.835   7.917 -0.7906  0.0565  0.3923
   41DOPE   H7X 5256   2.856   7.766   7.964 -0.0160  1.7564  1.8002
   41DOPE   H7Y 5257   2.803   7.931   7.970 -0.4069 -0.0680  0.4759
   41DOPE   C38 5258   2.642   7.789   7.938  0.6595  0.0998 -0.3861
   41DOPE   H8X 5259   2.581   7.855   7.873  0.1331 -0.6170 -0.6376
   41DOPE   H8Y 5260   2.624   7.817   8.044  0.6194  0.9633 -0.6178
   41DOPE   C39 5261   2.603   7.646   7.910 -0.1024  0.1715 -0.6708
   41DOPE   H9X 5262   2.653   7.579   7.982 -0.5541  0.1294 -0.3928
   41DOPE  C310 5263   2.545   7.590   7.803  0.3502  0.3054 -0.1058
   41DOPE  H10X 5264   2.523   7.483   7.804 -1.0457  0.5309 -2.0060
   41DOPE  C311 5265   2.496   7.663   7.678  0.5019 -0.4604 -0.0754
   41DOPE  H11X 5266   2.499   7.774   7.682  0.1418 -0.4692  0.5514
   41DOPE  H11Y 5267   2.572   7.631   7.604  0.6886 -0.9334  0.3113
   41DOPE  C312 5268   2.352   7.624   7.634 -0.2783  0.3871 -0.2558
   41DOPE  H12X 5269   2.344   7.674   7.535 -1.5881 -1.2023 -0.9956
   41DOPE  H12Y 5270   2.286   7.663   7.714  2.7687  0.1834  2.5930
   41DOPE  C313 5271   2.330   7.469   7.623  0.8331  0.4553  0.0699
   41DOPE  H13X 5272   2.429   7.421   7.607  1.7984  2.2065  0.5806
   41DOPE  H13Y 5273   2.287   7.439   7.721  2.3364  1.6337  1.1330
   41DOPE  C314 5274   2.236   7.436   7.509  0.5058 -0.2343 -0.6762
   41DOPE  H14X 5275   2.287   7.472   7.417  0.6970  0.9895 -0.1181
   41DOPE  H14Y 5276   2.138   7.489   7.518  1.7682  2.2404 -0.5625
   41DOPE  C315 5277   2.225   7.286   7.485  0.6330 -0.0628 -0.0936
   41DOPE  H15X 5278   2.315   7.236   7.442 -0.2301 -1.7137 -0.0517
   41DOPE  H15Y 5279   2.143   7.265   7.413  1.7313  1.6117 -1.9432
   41DOPE  C316 5280   2.182   7.213   7.617 -0.1889  1.2869  0.0445
   41DOPE  H16X 5281   2.251   7.237   7.701 -0.0271  0.0988  0.2760
   41DOPE  H16Y 5282   2.178   7.103   7.601 -3.0947  0.8785  2.5866
   41DOPE  C317 5283   2.045   7.251   7.678  0.0115 -0.2534  0.6024
   41DOPE  H17X 5284   2.049   7.361   7.697  0.6398 -0.1423 -0.1539
   41DOPE  H17Y 5285   1.961   7.245   7.606 -0.4551  4.7848  0.3817
   41DOPE  C318 5286   2.015   7.175   7.805 -0.4677 -0.0550  0.2056
   41DOPE  H18X 5287   2.037   7.066   7.796 -0.3950 -0.1832  1.7001
   41DOPE  H18Y 5288   2.085   7.214   7.883  0.0634 -0.1441 -0.2185
   41DOPE  H18Z 5289   1.910   7.185   7.839 -0.6785 -1.7947  0.1867
   42DOPE     N 5290   1.308   5.411   6.468  0.0208 -0.1927 -0.2297
   42DOPE   HN1 5291   1.316   5.308   6.482 -0.6620 -0.0722  1.3488
   42DOPE   HN2 5292   1.275   5.453   6.558  1.1951 -1.4868  0.8577
   42DOPE   HN3 5293   1.250   5.427   6.383 -0.3032 -2.6080 -0.5399
   42DOPE   C12 5294   1.451   5.445   6.462  0.3511  0.0153  0.9187
   42DOPE  H12A 5295   1.453   5.553   6.440 -1.2724 -0.1777 -0.3917
   42DOPE  H12B 5296   1.491   5.390   6.374 -0.4881 -0.3459  0.7437
   42DOPE   C11 5297   1.534   5.415   6.586  0.5572 -0.8138  0.0661
   42DOPE  H11A 5298   1.489   5.474   6.669  2.3209 -2.8813  2.6684
   42DOPE  H11B 5299   1.637   5.456   6.578  0.4662  0.4921  3.6806
   42DOPE     P 5300   1.669   5.221   6.688  0.5767 -0.2456  0.3469
   42DOPE   O13 5301   1.782   5.248   6.596 -0.2692 -0.2148  0.3781
   42DOPE   O14 5302   1.644   5.079   6.731  0.2767 -0.5972  0.0481
   42DOPE   O11 5303   1.684   5.323   6.811 -0.9923  0.5320 -0.4333
   42DOPE   O12 5304   1.535   5.278   6.625  0.2638 -0.6907 -0.3069
   42DOPE    C1 5305   1.712   5.276   6.944 -0.1512 -0.4899 -0.1503
   42DOPE    HA 5306   1.807   5.311   6.990 -0.1566  1.1557 -1.3031
   42DOPE    HB 5307   1.707   5.166   6.959  2.5047 -0.4664  1.6067
   42DOPE    C2 5308   1.607   5.338   7.037 -0.1875  0.1485 -0.7331
   42DOPE    HS 5309   1.664   5.366   7.128  0.1498  0.6395 -1.0900
   42DOPE   O21 5310   1.501   5.248   7.084 -0.2103  0.3149 -0.1433
   42DOPE   C21 5311   1.535   5.156   7.167  0.8125 -0.4236 -0.1100
   42DOPE   O22 5312   1.643   5.129   7.213  0.0383  0.1900  0.1587
   42DOPE   C22 5313   1.405   5.089   7.210 -1.3719  0.2898  0.5879
   42DOPE   H2R 5314   1.362   5.063   7.110 -1.8834 -0.0009  0.8805
   42DOPE   H2S 5315   1.333   5.162   7.251 -2.1391 -0.3252  0.3706
   42DOPE    C3 5316   1.544   5.468   6.974 -0.5073 -0.7763 -0.9534
   42DOPE    HX 5317   1.478   5.437   6.890 -0.9171  0.0079 -0.9309
   42DOPE    HY 5318   1.628   5.525   6.928 -1.0682 -0.7558 -1.9917
   42DOPE   O31 5319   1.479   5.558   7.067  0.0898 -0.3169  0.2435
   42DOPE   C31 5320   1.372   5.628   7.032 -0.0307  0.5167  0.9916
   42DOPE   O32 5321   1.320   5.620   6.923 -0.2708 -0.3494  0.4399
   42DOPE   C32 5322   1.322   5.718   7.142 -0.0351 -0.0631  0.1953
   42DOPE   H2X 5323   1.371   5.817   7.130 -2.8994  1.6418  1.5384
   42DOPE   H2Y 5324   1.215   5.738   7.117 -0.4360 -0.5413  1.4655
   42DOPE   C23 5325   1.427   4.964   7.295  0.0677  0.0532 -0.0722
   42DOPE   H3R 5326   1.428   4.990   7.403  1.5262  1.5558 -0.4148
   42DOPE   H3S 5327   1.517   4.906   7.266 -0.5443 -0.1400 -1.6900
   42DOPE   C24 5328   1.302   4.871   7.293 -0.6692 -0.0732  0.0502
   42DOPE   H4R 5329   1.314   4.789   7.366  0.4669 -0.0976 -0.1471
   42DOPE   H4S 5330   1.296   4.830   7.190 -0.0249  0.6566 -0.2925
   42DOPE   C25 5331   1.172   4.934   7.344 -0.3377 -0.4304  0.5085
   42DOPE   H5R 5332   1.093   4.858   7.329  0.2422 -1.0625  0.6412
   42DOPE   H5S 5333   1.144   5.020   7.278  1.7571 -1.4035 -1.8098
   42DOPE   C26 5334   1.178   4.978   7.495  0.3207  0.1323 -0.0999
   42DOPE   H6R 5335   1.237   5.072   7.495  0.9322 -0.2294 -1.5716
   42DOPE   H6S 5336   1.239   4.901   7.547 -1.4371 -1.3139 -0.0652
   42DOPE   C27 5337   1.041   4.992   7.565  0.1836 -0.1868  0.3374
   42DOPE   H7R 5338   0.988   4.896   7.547  0.7751 -0.0612 -2.5317
   42DOPE   H7S 5339   0.969   5.060   7.514  0.3306  0.0155  0.3995
   42DOPE   C28 5340   1.043   5.019   7.713  0.4060  0.1996  0.1384
   42DOPE   H8R 5341   1.124   4.957   7.757  0.1709  0.7869  1.4261
   42DOPE   H8S 5342   0.947   4.984   7.757  1.1189 -1.3793  0.5256
   42DOPE   C29 5343   1.067   5.162   7.742 -0.1033  0.0446  0.1000
   42DOPE   H9R 5344   0.984   5.233   7.733 -0.8181 -0.7828 -0.0349
   42DOPE  C210 5345   1.175   5.209   7.809  0.2940 -0.8785 -0.4440
   42DOPE  H10R 5346   1.182   5.318   7.819 -1.0644 -0.7470 -0.7286
   42DOPE  C211 5347   1.299   5.136   7.831 -0.1866  0.2046 -0.0666
   42DOPE  H11R 5348   1.358   5.127   7.737 -0.1305 -3.6189  0.1767
   42DOPE  H11S 5349   1.288   5.030   7.860 -1.3078  0.6558  1.2135
   42DOPE  C212 5350   1.376   5.206   7.941  0.1775 -0.3058 -0.0642
   42DOPE  H12R 5351   1.395   5.309   7.905  0.1612 -1.1571 -2.6910
   42DOPE  H12S 5352   1.475   5.156   7.950 -1.4674 -3.8720  0.0148
   42DOPE  C213 5353   1.298   5.195   8.070  0.1951 -0.0717 -0.4574
   42DOPE  H13R 5354   1.272   5.090   8.097 -1.0085  0.4424  0.4663
   42DOPE  H13S 5355   1.196   5.238   8.065 -0.5039 -1.1818  2.2141
   42DOPE  C214 5356   1.372   5.254   8.191 -0.0999  0.6132  0.4527
   42DOPE  H14R 5357   1.383   5.364   8.191 -1.8076  0.8428 -1.4994
   42DOPE  H14S 5358   1.477   5.218   8.192  0.0365  1.0166  0.5737
   42DOPE  C215 5359   1.299   5.222   8.321 -0.0260  0.4455  0.0210
   42DOPE  H15R 5360   1.284   5.112   8.325  1.0756  0.2976  0.6544
   42DOPE  H15S 5361   1.199   5.269   8.331 -0.2693  0.3488 -1.5767
   42DOPE  C216 5362   1.378   5.272   8.443  0.2996 -0.3093 -0.4422
   42DOPE  H16R 5363   1.313   5.251   8.531  1.1904  0.6054  0.4538
   42DOPE  H16S 5364   1.395   5.381   8.443  2.3576 -0.5939 -0.2936
   42DOPE  C217 5365   1.517   5.204   8.475  0.0828  0.3301  0.1543
   42DOPE  H17R 5366   1.583   5.206   8.386  0.3568 -0.9425  0.3099
   42DOPE  H17S 5367   1.490   5.100   8.501  0.0984  0.1355 -0.5939
   42DOPE  C218 5368   1.588   5.265   8.593 -0.2109 -0.3239 -0.2140
   42DOPE  H18R 5369   1.525   5.260   8.685 -0.6864  1.7378 -0.3744
   42DOPE  H18S 5370   1.613   5.373   8.582 -0.7820 -0.1477  0.1780
   42DOPE  H18T 5371   1.685   5.213   8.610  0.2891  0.3663 -0.8724
   42DOPE   C33 5372   1.344   5.659   7.288  0.5129  0.0637  0.8689
   42DOPE   H3X 5373   1.451   5.633   7.300  0.6268  0.8240  1.5350
   42DOPE   H3Y 5374   1.293   5.560   7.295 -0.3486  0.5637  1.9453
   42DOPE   C34 5375   1.304   5.750   7.396 -0.3421 -0.0138  0.6651
   42DOPE   H4X 5376   1.371   5.838   7.402  0.7329 -0.8589  1.5266
   42DOPE   H4Y 5377   1.202   5.789   7.377 -0.1188  0.3251  0.1365
   42DOPE   C35 5378   1.312   5.697   7.541  0.3983  0.3542 -0.2102
   42DOPE   H5X 5379   1.296   5.587   7.551 -1.6250  0.6595  0.4967
   42DOPE   H5Y 5380   1.232   5.739   7.606  0.1893 -0.0997 -0.1653
   42DOPE   C36 5381   1.451   5.721   7.604  0.0773 -0.1118 -1.2534
   42DOPE   H6X 5382   1.468   5.831   7.609 -1.4161  0.0786  2.0445
   42DOPE   H6Y 5383   1.524   5.667   7.540  1.6788 -1.9166  1.8890
   42DOPE   C37 5384   1.463   5.662   7.743 -0.2852 -0.7846 -0.4261
   42DOPE   H7X 5385   1.454   5.551   7.749 -1.0501 -0.6541  2.0024
   42DOPE   H7Y 5386   1.565   5.688   7.779 -0.8018  0.6245  0.0726
   42DOPE   C38 5387   1.372   5.728   7.844 -0.6118 -0.3907 -0.0957
   42DOPE   H8X 5388   1.263   5.706   7.836 -0.5297 -0.4077 -1.3175
   42DOPE   H8Y 5389   1.396   5.836   7.834  0.5883 -0.3622  2.3800
   42DOPE   C39 5390   1.410   5.691   7.986  0.4818  0.4728  0.1755
   42DOPE   H9X 5391   1.445   5.587   7.991 -2.3340 -0.5618  0.2757
   42DOPE  C310 5392   1.407   5.769   8.096  0.3099  0.1330  0.0740
   42DOPE  H10X 5393   1.433   5.725   8.193  1.3303 -2.0132 -1.1083
   42DOPE  C311 5394   1.343   5.907   8.098 -0.3563  0.6055  0.4072
   42DOPE  H11X 5395   1.429   5.976   8.113  0.3917 -0.1209 -0.4114
   42DOPE  H11Y 5396   1.300   5.940   8.001  0.1530 -0.1024 -0.0704
   42DOPE  C312 5397   1.238   5.931   8.201  0.5449 -0.3997  0.0577
   42DOPE  H12X 5398   1.278   5.934   8.304 -0.1020 -0.7199  0.3207
   42DOPE  H12Y 5399   1.162   5.852   8.184 -1.0317  1.7251 -4.5241
   42DOPE  C313 5400   1.165   6.066   8.185  0.6855  0.2845  0.0366
   42DOPE  H13X 5401   1.243   6.145   8.194 -0.1004  0.9220  1.7531
   42DOPE  H13Y 5402   1.118   6.057   8.085 -1.0994 -0.8187  0.9291
   42DOPE  C314 5403   1.044   6.087   8.279 -0.1838 -0.0235 -0.0719
   42DOPE  H14X 5404   1.001   6.187   8.257 -0.0773  0.3830  1.4492
   42DOPE  H14Y 5405   1.078   6.084   8.385 -1.3157 -1.9118  0.3054
   42DOPE  C315 5406   0.937   5.985   8.249 -0.0354  0.1610 -0.0560
   42DOPE  H15X 5407   0.970   5.889   8.293  1.8046  0.0014 -1.6285
   42DOPE  H15Y 5408   0.940   5.980   8.138 -0.1036  0.9095 -0.0962
   42DOPE  C316 5409   0.790   6.019   8.292 -0.0911 -0.6706  0.5787
   42DOPE  H16X 5410   0.757   6.104   8.231  0.4132 -1.3609 -0.6881
   42DOPE  H16Y 5411   0.787   6.056   8.397 -1.6779 -0.0907  0.3440
   42DOPE  C317 5412   0.694   5.911   8.262  0.2333 -0.1680  0.1102
   42DOPE  H17X 5413   0.586   5.938   8.271 -0.0945 -1.2921 -0.3770
   42DOPE  H17Y 5414   0.701   5.876   8.157 -2.5083 -1.2649  0.1894
   42DOPE  C318 5415   0.711   5.789   8.348 -0.2386  0.5187 -0.4379
   42DOPE  H18X 5416   0.623   5.722   8.337 -0.0947  0.4624 -1.2567
   42DOPE  H18Y 5417   0.806   5.743   8.314  0.2077  1.6079 -0.7151
   42DOPE  H18Z 5418   0.722   5.807   8.458  0.8554 -2.3656  0.0160
   43DOPE     N 5419   1.311   3.138   6.604 -0.2666  0.3305  0.0715
   43DOPE   HN1 5420   1.335   3.097   6.512 -0.2735  1.7582 -0.5804
   43DOPE   HN2 5421   1.232   3.077   6.633  0.8949 -0.9486  0.6816
   43DOPE   HN3 5422   1.269   3.230   6.580 -0.9674  0.5892  2.0506
   43DOPE   C12 5423   1.424   3.144   6.698  0.3558  0.4503  0.1856
   43DOPE  H12A 5424   1.379   3.130   6.799 -1.2886 -1.9552 -0.7988
   43DOPE  H12B 5425   1.477   3.241   6.699  0.0227  0.6434  1.3347
   43DOPE   C11 5426   1.520   3.038   6.657  0.1429  0.3163 -0.2888
   43DOPE  H11A 5427   1.592   3.033   6.742 -1.4668  0.6281  1.1445
   43DOPE  H11B 5428   1.569   3.073   6.563  1.0179 -1.1085 -0.4002
   43DOPE     P 5429   1.565   2.803   6.578 -0.1755  0.0870  0.2384
   43DOPE   O13 5430   1.545   2.816   6.427  0.4172  0.2860 -0.2943
   43DOPE   O14 5431   1.555   2.669   6.643  0.5576 -0.5089 -0.3319
   43DOPE   O11 5432   1.711   2.847   6.605  0.1300  0.1887 -0.1925
   43DOPE   O12 5433   1.462   2.909   6.648 -0.4184  0.6849 -0.1256
   43DOPE    C1 5434   1.767   2.826   6.735 -0.0399 -1.2723  0.2485
   43DOPE    HA 5435   1.715   2.754   6.803  0.1420 -0.0623  1.7092
   43DOPE    HB 5436   1.772   2.915   6.800 -0.4169 -0.9385 -0.1739
   43DOPE    C2 5437   1.908   2.774   6.722 -0.4250 -0.1493 -0.4936
   43DOPE    HS 5438   1.907   2.686   6.655 -0.2784  0.0688 -0.7860
   43DOPE   O21 5439   1.952   2.745   6.854  0.2462 -0.3528  0.6396
   43DOPE   C21 5440   2.040   2.642   6.867 -0.1490 -0.9942  0.2026
   43DOPE   O22 5441   2.069   2.560   6.780 -0.2861 -0.2946 -0.2963
   43DOPE   C22 5442   2.080   2.644   7.016  0.4043 -0.0070  0.3369
   43DOPE   H2R 5443   1.984   2.646   7.073 -0.3927  1.3306 -0.9502
   43DOPE   H2S 5444   2.113   2.745   7.050 -0.8864 -0.1843  2.3192
   43DOPE    C3 5445   2.007   2.870   6.663 -0.0002  0.2225  0.7268
   43DOPE    HX 5446   1.993   2.870   6.553  1.6368 -0.9619  0.4746
   43DOPE    HY 5447   2.106   2.820   6.672  0.5367  1.5623  3.0458
   43DOPE   O31 5448   2.009   3.004   6.715  0.3475 -0.3245 -0.1722
   43DOPE   C31 5449   2.099   3.025   6.811 -0.2840 -0.1593  0.7313
   43DOPE   O32 5450   2.191   2.949   6.841  0.4316 -0.4114  0.0740
   43DOPE   C32 5451   2.062   3.152   6.890  0.8025  0.9117  0.2753
   43DOPE   H2X 5452   2.135   3.152   6.973  0.3318 -0.9163  0.7309
   43DOPE   H2Y 5453   2.072   3.234   6.815  0.6665 -0.3146 -1.1260
   43DOPE   C23 5454   2.183   2.539   7.057  0.4717  0.4322 -0.7270
   43DOPE   H3R 5455   2.150   2.439   7.021  0.6737 -0.4633  1.3871
   43DOPE   H3S 5456   2.186   2.526   7.167 -0.6360  0.7367 -0.6464
   43DOPE   C24 5457   2.327   2.569   7.002 -0.2277  0.0301  0.4921
   43DOPE   H4R 5458   2.354   2.661   7.058 -0.3430  0.5653 -0.3026
   43DOPE   H4S 5459   2.344   2.592   6.895  0.9467  2.8200  1.1873
   43DOPE   C25 5460   2.430   2.469   7.048 -0.3037  0.6796 -0.1501
   43DOPE   H5R 5461   2.416   2.450   7.156 -1.2122  0.3537 -0.3146
   43DOPE   H5S 5462   2.535   2.502   7.038  0.0447 -0.3742 -0.0843
   43DOPE   C26 5463   2.416   2.339   6.965  0.0125  0.5075  0.3935
   43DOPE   H6R 5464   2.466   2.340   6.866  1.8778 -2.3435  1.1753
   43DOPE   H6S 5465   2.309   2.315   6.944  0.0109  0.8634 -0.0173
   43DOPE   C27 5466   2.484   2.225   7.036  0.2377  0.6320  0.5378
   43DOPE   H7R 5467   2.458   2.237   7.143  0.9162 -1.4175  0.9748
   43DOPE   H7S 5468   2.595   2.233   7.025  0.1220 -0.3108 -2.3012
   43DOPE   C28 5469   2.440   2.081   6.996 -0.1806 -0.2662 -0.0163
   43DOPE   H8R 5470   2.507   2.046   6.915 -0.9504  0.1250 -0.8445
   43DOPE   H8S 5471   2.335   2.082   6.959 -1.0709  1.9584  2.2578
   43DOPE   C29 5472   2.461   1.988   7.109 -0.2980 -0.0164 -0.2028
   43DOPE   H9R 5473   2.563   1.961   7.139  0.4854  0.4693 -2.2840
   43DOPE  C210 5474   2.362   1.931   7.184  0.4309 -0.2076  0.0063
   43DOPE  H10R 5475   2.385   1.862   7.266  0.6079  0.6576  0.7091
   43DOPE  C211 5476   2.216   1.958   7.169  0.1171  0.0119 -0.9786
   43DOPE  H11R 5477   2.163   1.862   7.158 -0.3052  0.3009 -1.4807
   43DOPE  H11S 5478   2.195   2.026   7.084  0.4028 -0.1361 -1.1677
   43DOPE  C212 5479   2.151   2.025   7.290  0.8792 -0.7292 -1.0305
   43DOPE  H12R 5480   2.162   1.961   7.380  0.0537 -0.2620 -0.5767
   43DOPE  H12S 5481   2.042   2.030   7.266  0.1886 -2.7867  1.2880
   43DOPE  C213 5482   2.192   2.171   7.306 -0.6695  0.5233 -0.0953
   43DOPE  H13R 5483   2.113   2.231   7.356 -0.6287 -0.0576  0.6709
   43DOPE  H13S 5484   2.194   2.226   7.209 -1.0726  0.3091 -0.2270
   43DOPE  C214 5485   2.311   2.198   7.397  0.2361 -0.3057  0.0994
   43DOPE  H14R 5486   2.338   2.306   7.397  1.8735 -0.6588  1.7120
   43DOPE  H14S 5487   2.405   2.148   7.365  1.1896  0.2151  1.9086
   43DOPE  C215 5488   2.271   2.170   7.545 -0.3994  0.2282 -0.1305
   43DOPE  H15R 5489   2.249   2.063   7.566  1.2365  0.1291  1.3097
   43DOPE  H15S 5490   2.181   2.232   7.569 -0.1606  0.9689 -1.0726
   43DOPE  C216 5491   2.381   2.223   7.639 -0.3999  0.1766  0.4163
   43DOPE  H16R 5492   2.391   2.331   7.614 -1.8086  0.4480  0.8987
   43DOPE  H16S 5493   2.478   2.175   7.618 -0.0224  0.7937  0.7058
   43DOPE  C217 5494   2.366   2.188   7.784 -0.2877 -0.6497 -0.3517
   43DOPE  H17R 5495   2.333   2.084   7.806  0.8055 -0.7055  1.1965
   43DOPE  H17S 5496   2.291   2.260   7.824  2.3925  1.2765  1.5102
   43DOPE  C218 5497   2.488   2.210   7.871 -0.2537  0.5887 -0.3326
   43DOPE  H18R 5498   2.458   2.191   7.976  1.1987 -1.2107 -0.1823
   43DOPE  H18S 5499   2.520   2.316   7.874 -0.9450  0.7912  1.9137
   43DOPE  H18T 5500   2.567   2.134   7.852 -1.7955 -1.8455  2.2343
   43DOPE   C33 5501   1.921   3.138   6.955  0.0821 -0.6174 -0.2234
   43DOPE   H3X 5502   1.841   3.112   6.882 -1.8548  1.7775  0.8761
   43DOPE   H3Y 5503   1.885   3.241   6.977  1.9899  0.6929 -2.6520
   43DOPE   C34 5504   1.931   3.039   7.077 -0.2596 -0.0447 -0.0403
   43DOPE   H4X 5505   1.968   2.942   7.038 -0.9757  0.0797 -1.0742
   43DOPE   H4Y 5506   2.003   3.081   7.150 -0.1138  0.7605 -0.6280
   43DOPE   C35 5507   1.801   3.010   7.153 -0.3307 -0.3797 -0.4529
   43DOPE   H5X 5508   1.762   3.105   7.195  0.7487 -0.2169  0.2227
   43DOPE   H5Y 5509   1.824   2.937   7.234 -1.9112  0.4093  0.7574
   43DOPE   C36 5510   1.701   2.956   7.048 -0.7364  0.3395 -0.3763
   43DOPE   H6X 5511   1.753   2.875   6.992  1.1519  3.3767 -3.4032
   43DOPE   H6Y 5512   1.687   3.024   6.962  2.6807 -0.4951 -1.7659
   43DOPE   C37 5513   1.555   2.914   7.089  0.0310 -0.1886 -0.2984
   43DOPE   H7X 5514   1.499   2.993   7.143  0.1099 -1.9520  2.5693
   43DOPE   H7Y 5515   1.492   2.889   7.001  1.0598 -0.3453 -1.0124
   43DOPE   C38 5516   1.552   2.795   7.183  0.8000  0.0926  0.3833
   43DOPE   H8X 5517   1.445   2.783   7.210  1.2627 -0.2563  2.2007
   43DOPE   H8Y 5518   1.608   2.818   7.276  2.6596 -0.2365 -0.6120
   43DOPE   C39 5519   1.600   2.674   7.114 -0.3017 -0.5140  0.7253
   43DOPE   H9X 5520   1.567   2.673   7.009  1.4538 -1.4525  0.1434
   43DOPE  C310 5521   1.683   2.574   7.160  0.1035 -0.4603 -0.0187
   43DOPE  H10X 5522   1.724   2.504   7.085  0.6992  1.4989 -1.5994
   43DOPE  C311 5523   1.734   2.550   7.297 -0.4600 -0.1044  0.3599
   43DOPE  H11X 5524   1.689   2.613   7.377  4.5577  1.2771  2.4824
   43DOPE  H11Y 5525   1.718   2.443   7.323 -3.9226  0.6936  2.1310
   43DOPE  C312 5526   1.889   2.574   7.318  0.4197 -0.1476 -0.7049
   43DOPE  H12X 5527   1.923   2.669   7.273 -0.7063  0.3697 -0.5211
   43DOPE  H12Y 5528   1.931   2.488   7.262 -0.4829 -0.4805 -0.8945
   43DOPE  C313 5529   1.936   2.554   7.459 -0.4951 -0.0603 -0.2317
   43DOPE  H13X 5530   1.896   2.644   7.511  2.9613  2.3104 -1.3144
   43DOPE  H13Y 5531   1.888   2.464   7.502  0.9337  0.1835  2.0480
   43DOPE  C314 5532   2.087   2.534   7.481 -0.4135 -0.0377  0.0426
   43DOPE  H14X 5533   2.137   2.622   7.436 -0.4889  0.0473  0.1248
   43DOPE  H14Y 5534   2.121   2.449   7.419  0.6757  1.7110 -1.8529
   43DOPE  C315 5535   2.136   2.518   7.628 -0.4651  0.3548  0.0009
   43DOPE  H15X 5536   2.247   2.520   7.628 -0.4328 -0.3299 -0.9903
   43DOPE  H15Y 5537   2.113   2.417   7.668  0.6040  0.4977  0.9951
   43DOPE  C316 5538   2.093   2.637   7.722 -0.2703 -0.2835 -0.4180
   43DOPE  H16X 5539   1.984   2.650   7.707  0.0924 -0.0802 -3.8907
   43DOPE  H16Y 5540   2.118   2.735   7.675 -2.3041  0.3664 -0.2147
   43DOPE  C317 5541   2.145   2.624   7.863  0.7617 -0.3509  0.1885
   43DOPE  H17X 5542   2.107   2.714   7.915  0.5550 -1.0205  1.2260
   43DOPE  H17Y 5543   2.110   2.528   7.907  1.0635 -0.1961  0.7656
   43DOPE  C318 5544   2.298   2.619   7.874  0.0771 -0.0878  0.8446
   43DOPE  H18X 5545   2.342   2.718   7.852  2.2929 -1.1392  0.2599
   43DOPE  H18Y 5546   2.322   2.590   7.979  0.9234  1.0575  0.9833
   43DOPE  H18Z 5547   2.335   2.535   7.811  1.1777 -0.3619  1.8087
   44DOPE     N 5548   4.595   2.567   6.378 -0.1056 -0.1026 -0.3621
   44DOPE   HN1 5549   4.521   2.606   6.440 -2.9650  0.0048 -3.5370
   44DOPE   HN2 5550   4.619   2.637   6.304  1.6952  0.1426  0.3956
   44DOPE   HN3 5551   4.555   2.483   6.332  0.8336 -0.7739  0.0394
   44DOPE   C12 5552   4.713   2.540   6.465  0.1063 -0.1779 -0.0348
   44DOPE  H12A 5553   4.734   2.641   6.505 -0.4542  0.6278 -1.6631
   44DOPE  H12B 5554   4.802   2.515   6.403 -0.0063  0.8875 -0.6429
   44DOPE   C11 5555   4.673   2.438   6.576  1.1113  0.3788  0.4650
   44DOPE  H11A 5556   4.594   2.485   6.637  1.0116 -0.8514  1.3097
   44DOPE  H11B 5557   4.764   2.426   6.637  0.9591  0.0664  0.6320
   44DOPE     P 5558   4.731   2.197   6.488 -0.1431  0.2439  0.5627
   44DOPE   O13 5559   4.857   2.257   6.443  0.3944 -0.5291 -0.2166
   44DOPE   O14 5560   4.667   2.103   6.388  0.2390 -0.4145  0.4647
   44DOPE   O11 5561   4.760   2.127   6.622 -0.4708  0.2175  0.1095
   44DOPE   O12 5562   4.631   2.314   6.528  0.0988  0.2109 -0.1082
   44DOPE    C1 5563   4.672   2.143   6.734  0.8232  0.8579 -0.6223
   44DOPE    HA 5564   4.571   2.102   6.714  0.9209  0.5202 -0.4366
   44DOPE    HB 5565   4.659   2.250   6.761  1.4508  1.5063 -2.6957
   44DOPE    C2 5566   4.742   2.078   6.852 -0.2819  0.2646 -0.3935
   44DOPE    HS 5567   4.668   2.083   6.935  0.8849  0.1876  0.6809
   44DOPE   O21 5568   4.845   2.162   6.882  0.1634 -0.1607  0.1346
   44DOPE   C21 5569   4.819   2.273   6.944  0.8409 -0.5345 -0.8995
   44DOPE   O22 5570   4.712   2.313   6.980  0.1037  0.0029 -0.5218
   44DOPE   C22 5571   4.953   2.343   6.979  0.1539  0.4211 -0.5646
   44DOPE   H2R 5572   4.969   2.426   6.907  2.9670  0.1546 -0.3427
   44DOPE   H2S 5573   5.043   2.280   6.962  0.2681  0.5148 -0.2960
   44DOPE    C3 5574   4.801   1.931   6.827 -0.0506  0.6273  0.6917
   44DOPE    HX 5575   4.878   1.932   6.746 -0.8206 -0.0332 -0.0646
   44DOPE    HY 5576   4.715   1.881   6.779 -0.8819  0.3628  2.3846
   44DOPE   O31 5577   4.832   1.858   6.942  0.0092  0.1218  0.0927
   44DOPE   C31 5578   4.958   1.846   6.981  0.2388 -0.4095  0.3091
   44DOPE   O32 5579   5.056   1.882   6.918 -0.2710  0.0289 -0.5619
   44DOPE   C32 5580   4.953   1.773   7.116 -0.0346 -0.1461 -0.5156
   44DOPE   H2X 5581   4.855   1.724   7.133  0.4613 -0.8713  0.3706
   44DOPE   H2Y 5582   5.037   1.700   7.111  1.6408  1.4614  1.4586
   44DOPE   C23 5583   4.960   2.416   7.117 -0.3615  0.3821 -1.0189
   44DOPE   H3R 5584   4.860   2.448   7.153  0.0565 -1.5791  2.3207
   44DOPE   H3S 5585   5.011   2.515   7.120  0.1107  0.1163  0.4070
   44DOPE   C24 5586   5.033   2.333   7.229  0.6507 -0.4466  0.1734
   44DOPE   H4R 5587   5.142   2.341   7.206  0.7133  2.1320  1.0980
   44DOPE   H4S 5588   5.006   2.227   7.208 -0.0169 -0.4064  0.7963
   44DOPE   C25 5589   5.001   2.385   7.369  0.4142  0.0032 -0.2169
   44DOPE   H5R 5590   4.894   2.400   7.397  0.1694 -2.3033  0.2792
   44DOPE   H5S 5591   5.047   2.486   7.370  0.2956  0.0624 -0.4717
   44DOPE   C26 5592   5.075   2.310   7.484  0.0809  0.4758  0.7501
   44DOPE   H6R 5593   5.032   2.208   7.489  1.0983  0.0411  0.8824
   44DOPE   H6S 5594   5.048   2.360   7.580 -2.4525  1.1795 -0.2512
   44DOPE   C27 5595   5.226   2.300   7.473 -0.2210  1.1726  0.2903
   44DOPE   H7R 5596   5.272   2.396   7.440  0.8510 -0.0103 -1.8309
   44DOPE   H7S 5597   5.237   2.224   7.393  1.0061 -0.8127  2.2136
   44DOPE   C28 5598   5.302   2.262   7.602  0.2289  0.6102 -0.0401
   44DOPE   H8R 5599   5.299   2.348   7.672 -0.0389 -0.7864  1.7328
   44DOPE   H8S 5600   5.405   2.237   7.569 -0.4962  0.2018 -2.1430
   44DOPE   C29 5601   5.242   2.136   7.658 -0.2695 -0.0185 -0.4728
   44DOPE   H9R 5602   5.224   2.054   7.587 -0.7824  1.2717 -1.8917
   44DOPE  C210 5603   5.195   2.114   7.784  0.3749  0.5104  0.0138
   44DOPE  H10R 5604   5.116   2.038   7.792  0.1738  0.8074  1.0180
   44DOPE  C211 5605   5.198   2.214   7.893 -0.0976  0.7781 -0.4429
   44DOPE  H11R 5606   5.146   2.304   7.853 -1.3839 -0.1204 -0.8408
   44DOPE  H11S 5607   5.303   2.232   7.927 -0.3113 -0.0629  0.7094
   44DOPE  C212 5608   5.127   2.172   8.030 -0.0675 -0.2644  0.4606
   44DOPE  H12R 5609   5.182   2.086   8.074  5.1382  2.6341  0.3368
   44DOPE  H12S 5610   5.022   2.143   8.006  0.1096 -1.7181  1.3298
   44DOPE  C213 5611   5.127   2.285   8.130 -0.4786  0.7192 -0.1912
   44DOPE  H13R 5612   5.088   2.378   8.082  1.2513  0.7099 -1.7474
   44DOPE  H13S 5613   5.234   2.310   8.147 -0.0023 -2.1016  1.5431
   44DOPE  C214 5614   5.057   2.260   8.258  0.3416  0.7460 -0.4736
   44DOPE  H14R 5615   5.107   2.179   8.315  0.9675  1.1998 -0.3732
   44DOPE  H14S 5616   4.950   2.234   8.243  0.1273  0.2272  1.6094
   44DOPE  C215 5617   5.049   2.381   8.351  0.6246  0.0334 -0.2755
   44DOPE  H15R 5618   5.020   2.466   8.285  1.1534  0.6190  0.2416
   44DOPE  H15S 5619   5.153   2.396   8.386  0.2503  1.3574  0.3646
   44DOPE  C216 5620   4.953   2.368   8.471 -0.4468  0.0454 -0.3994
   44DOPE  H16R 5621   4.855   2.341   8.424 -1.1696  0.8456  0.6194
   44DOPE  H16S 5622   4.942   2.460   8.531  0.1710  1.1807 -1.9688
   44DOPE  C217 5623   4.989   2.240   8.559 -0.5097  0.2175 -0.0624
   44DOPE  H17R 5624   5.098   2.235   8.579 -0.2232  1.2994 -1.1850
   44DOPE  H17S 5625   4.968   2.153   8.493  0.2914  1.1731 -1.6669
   44DOPE  C218 5626   4.898   2.239   8.685 -0.1612 -0.0803  0.1726
   44DOPE  H18R 5627   4.895   2.341   8.728  1.8279  0.7297 -1.4397
   44DOPE  H18S 5628   4.919   2.166   8.766  0.5589  1.3751  1.3369
   44DOPE  H18T 5629   4.801   2.203   8.643  1.0499 -1.9931 -1.1782
   44DOPE   C33 5630   4.992   1.866   7.239 -0.2468 -0.8563 -0.4913
   44DOPE   H3X 5631   5.021   1.790   7.316  0.1301  0.9397  1.2379
   44DOPE   H3Y 5632   4.908   1.933   7.268  0.6685 -0.3081  1.0696
   44DOPE   C34 5633   5.120   1.952   7.222  0.2690 -1.0388  0.2787
   44DOPE   H4X 5634   5.116   2.032   7.144  0.0330  0.0946  1.4208
   44DOPE   H4Y 5635   5.117   1.998   7.323  1.5524 -1.0406  0.3236
   44DOPE   C35 5636   5.242   1.867   7.230  0.9228 -0.4827  0.1444
   44DOPE   H5X 5637   5.257   1.817   7.132 -0.3315 -2.4957  0.9292
   44DOPE   H5Y 5638   5.229   1.792   7.311 -1.6554 -1.0677 -0.7199
   44DOPE   C36 5639   5.369   1.943   7.254  0.1778 -0.3062  0.3615
   44DOPE   H6X 5640   5.359   1.985   7.357 -2.4321  1.3894 -0.4811
   44DOPE   H6Y 5641   5.381   2.029   7.185  1.3507 -2.1318 -1.8252
   44DOPE   C37 5642   5.489   1.851   7.252 -0.1202 -0.2554  0.1903
   44DOPE   H7X 5643   5.486   1.790   7.345  0.6066  1.3763  1.3244
   44DOPE   H7Y 5644   5.482   1.784   7.163  0.7857  0.0521 -0.1146
   44DOPE   C38 5645   5.624   1.928   7.250 -0.6582 -0.0810  0.3906
   44DOPE   H8X 5646   5.606   1.998   7.165 -2.1160  1.1729  1.6568
   44DOPE   H8Y 5647   5.705   1.860   7.216 -1.7151 -2.0920  1.6708
   44DOPE   C39 5648   5.665   1.998   7.376  0.2472 -0.4207  0.3781
   44DOPE   H9X 5649   5.596   2.076   7.411 -0.8183 -0.9649 -0.4639
   44DOPE  C310 5650   5.772   1.977   7.449 -0.7508  0.0886  0.2658
   44DOPE  H10X 5651   5.803   2.042   7.532  0.9333 -0.2052 -0.0914
   44DOPE  C311 5652   5.873   1.870   7.422 -0.5420  0.4042  0.5939
   44DOPE  H11X 5653   5.825   1.770   7.414 -1.5381  0.7719  1.7365
   44DOPE  H11Y 5654   5.933   1.905   7.335  0.1206 -0.6931  0.5908
   44DOPE  C312 5655   5.979   1.867   7.535 -0.7050 -0.2098 -0.2270
   44DOPE  H12X 5656   6.046   1.781   7.516 -0.5544 -0.5549  1.6207
   44DOPE  H12Y 5657   5.930   1.842   7.631  0.7174 -0.5808  0.4292
   44DOPE  C313 5658   6.067   1.992   7.548  0.1672  0.5600 -0.5288
   44DOPE  H13X 5659   6.144   1.979   7.469 -0.8117 -2.8276 -1.1116
   44DOPE  H13Y 5660   6.016   2.089   7.532  1.6509  1.2266 -1.4001
   44DOPE  C314 5661   6.145   2.003   7.678 -0.1132 -0.1270  0.1906
   44DOPE  H14X 5662   6.203   1.913   7.705 -0.8406 -0.0386  2.2077
   44DOPE  H14Y 5663   6.076   2.019   7.764  1.4174  0.5637  1.3408
   44DOPE  C315 5664   6.236   2.127   7.687  0.8034  0.1111 -0.7931
   44DOPE  H15X 5665   6.266   2.143   7.793  1.3711 -1.8330 -0.6287
   44DOPE  H15Y 5666   6.175   2.215   7.655 -1.3203 -0.5239  1.1554
   44DOPE  C316 5667   6.361   2.111   7.599 -0.3426 -0.7613 -0.3458
   44DOPE  H16X 5668   6.335   2.109   7.491  0.4243  1.1272 -0.6120
   44DOPE  H16Y 5669   6.406   2.015   7.629 -1.6377 -1.9177 -1.9289
   44DOPE  C317 5670   6.468   2.224   7.613  0.0133 -1.1034  0.2359
   44DOPE  H17X 5671   6.565   2.195   7.567  0.9129  0.6456  0.9324
   44DOPE  H17Y 5672   6.436   2.320   7.565  1.9076 -0.4615  0.1833
   44DOPE  C318 5673   6.502   2.282   7.753  0.6216 -0.3179 -0.1126
   44DOPE  H18X 5674   6.523   2.202   7.828 -1.0421 -0.8649 -0.2005
   44DOPE  H18Y 5675   6.589   2.351   7.748  1.5167 -1.3067  1.0316
   44DOPE  H18Z 5676   6.418   2.343   7.791  1.8889  0.7711  1.0756
   45DOPE     N 5677   5.259   1.536   6.736  0.4970  0.0368  0.5162
   45DOPE   HN1 5678   5.197   1.461   6.699  0.9518 -0.7190  1.2601
   45DOPE   HN2 5679   5.351   1.530   6.689  0.0212 -0.6055 -0.3516
   45DOPE   HN3 5680   5.279   1.522   6.837 -0.5544 -0.1544  0.7092
   45DOPE   C12 5681   5.205   1.673   6.703 -0.1890 -0.0701 -0.6309
   45DOPE  H12A 5682   5.110   1.691   6.758 -0.4646  0.2296 -1.1960
   45DOPE  H12B 5683   5.196   1.685   6.593  1.2061  3.7558 -0.5031
   45DOPE   C11 5684   5.299   1.786   6.759  0.1668  0.4546  0.2192
   45DOPE  H11A 5685   5.324   1.755   6.863 -0.7896  1.0350  0.6307
   45DOPE  H11B 5686   5.240   1.879   6.771 -0.3878  0.3128 -1.1366
   45DOPE     P 5687   5.542   1.717   6.670 -0.1169 -0.0933 -0.0042
   45DOPE   O13 5688   5.637   1.789   6.589 -0.1785  0.2410  0.2496
   45DOPE   O14 5689   5.501   1.577   6.642 -0.0033 -0.4843  0.1837
   45DOPE   O11 5690   5.604   1.737   6.818  0.8896  0.1743 -0.4930
   45DOPE   O12 5691   5.411   1.804   6.673  0.2683 -0.4842 -0.3873
   45DOPE    C1 5692   5.646   1.876   6.854 -0.1717  0.3599  0.3567
   45DOPE    HA 5693   5.612   1.894   6.958 -2.1880 -2.9338  0.4281
   45DOPE    HB 5694   5.610   1.957   6.786  0.7272  0.0125 -0.5575
   45DOPE    C2 5695   5.801   1.876   6.864 -0.3191  0.2383 -0.0208
   45DOPE    HS 5696   5.838   1.842   6.764 -0.8527 -2.6630  0.6822
   45DOPE   O21 5697   5.835   1.774   6.969 -0.5825  0.0844 -0.5299
   45DOPE   C21 5698   5.927   1.680   6.946  0.0746  0.1734 -0.2454
   45DOPE   O22 5699   5.994   1.667   6.848 -0.0550  0.0418 -0.1403
   45DOPE   C22 5700   5.942   1.592   7.071  0.4266  0.3080 -1.1532
   45DOPE   H2R 5701   5.875   1.503   7.059  0.7768  0.1511 -2.0208
   45DOPE   H2S 5702   5.906   1.650   7.159  0.8833  0.4903 -1.0858
   45DOPE    C3 5703   5.859   2.017   6.907  0.1885 -0.5038  0.3468
   45DOPE    HX 5704   5.969   2.007   6.898  0.3439 -0.0121  1.5696
   45DOPE    HY 5705   5.823   2.034   7.011  0.7111  0.3248  0.4021
   45DOPE   O31 5706   5.798   2.117   6.823  0.0123  0.3265 -0.5639
   45DOPE   C31 5707   5.876   2.227   6.802 -0.2723  0.7040 -0.4111
   45DOPE   O32 5708   5.990   2.235   6.838 -0.0533  0.3754  0.1000
   45DOPE   C32 5709   5.799   2.329   6.724 -0.3748 -0.0887  0.0305
   45DOPE   H2X 5710   5.754   2.286   6.632  2.6088 -0.4388 -1.3745
   45DOPE   H2Y 5711   5.722   2.380   6.786 -2.7914 -1.8091 -1.3919
   45DOPE   C23 5712   6.084   1.545   7.114 -0.7271  0.1519 -0.4796
   45DOPE   H3R 5713   6.072   1.510   7.219 -1.5447 -0.5216 -0.7889
   45DOPE   H3S 5714   6.158   1.627   7.112 -2.8229  2.1569 -2.9675
   45DOPE   C24 5715   6.148   1.434   7.022 -0.2956 -0.4716 -0.7123
   45DOPE   H4R 5716   6.168   1.454   6.915  0.6097 -0.0375 -0.4706
   45DOPE   H4S 5717   6.077   1.349   7.035 -1.0962  0.4381  1.2044
   45DOPE   C25 5718   6.283   1.389   7.084 -0.5458  0.0189 -0.4372
   45DOPE   H5R 5719   6.283   1.399   7.194 -0.0804  0.8976 -0.5023
   45DOPE   H5S 5720   6.370   1.446   7.043 -0.4490  0.1658 -0.0325
   45DOPE   C26 5721   6.312   1.246   7.042  0.2217  0.4128  0.1393
   45DOPE   H6R 5722   6.294   1.240   6.932  0.6323  3.9475 -0.2355
   45DOPE   H6S 5723   6.231   1.178   7.077  0.9207 -0.6288 -0.2090
   45DOPE   C27 5724   6.447   1.179   7.079 -0.0392 -0.2465 -0.4416
   45DOPE   H7R 5725   6.517   1.261   7.049 -0.3253  1.3152  2.7478
   45DOPE   H7S 5726   6.455   1.086   7.019 -1.2241 -0.5819 -0.1017
   45DOPE   C28 5727   6.466   1.160   7.231  0.3266 -0.6426  0.0449
   45DOPE   H8R 5728   6.389   1.090   7.271 -2.8525  1.5938 -1.6562
   45DOPE   H8S 5729   6.447   1.252   7.289  0.6686  1.0156 -2.3084
   45DOPE   C29 5730   6.604   1.105   7.244  0.4374 -0.0766  0.7734
   45DOPE   H9R 5731   6.617   0.999   7.219 -0.0645  0.4809 -2.1397
   45DOPE  C210 5732   6.718   1.176   7.274  0.5839  0.5609 -0.0866
   45DOPE  H10R 5733   6.819   1.132   7.269 -0.7759 -2.7489 -0.2010
   45DOPE  C211 5734   6.717   1.329   7.299 -0.9919  0.2692  0.2798
   45DOPE  H11R 5735   6.794   1.347   7.377  0.5472 -0.5534 -1.0016
   45DOPE  H11S 5736   6.619   1.367   7.335 -0.7376  0.6155  0.6207
   45DOPE  C212 5737   6.753   1.408   7.176 -0.6198 -0.9512  0.6119
   45DOPE  H12R 5738   6.698   1.364   7.091  0.6319 -2.1904  0.4128
   45DOPE  H12S 5739   6.864   1.398   7.169 -0.1617  2.0653  1.7477
   45DOPE  C213 5740   6.716   1.560   7.191  0.6321 -0.0100 -0.3177
   45DOPE  H13R 5741   6.777   1.618   7.119  2.6384 -1.2114  0.3469
   45DOPE  H13S 5742   6.731   1.586   7.298 -0.7356  0.4726 -0.2204
   45DOPE  C214 5743   6.571   1.586   7.158 -0.2409 -0.3744  0.1992
   45DOPE  H14R 5744   6.505   1.537   7.234 -0.4428  0.1404  0.3587
   45DOPE  H14S 5745   6.543   1.560   7.054  1.6949 -0.3016 -0.3796
   45DOPE  C215 5746   6.545   1.735   7.172 -0.4856 -0.8860 -0.7057
   45DOPE  H15R 5747   6.605   1.803   7.108 -1.1197 -0.1898 -0.5792
   45DOPE  H15S 5748   6.578   1.768   7.273  0.9968 -0.7245 -1.2209
   45DOPE  C216 5749   6.396   1.766   7.169  0.1305 -0.4641 -0.3586
   45DOPE  H16R 5750   6.339   1.703   7.240  0.0539  0.7316  0.6714
   45DOPE  H16S 5751   6.355   1.741   7.069 -1.0170  0.4445 -0.1332
   45DOPE  C217 5752   6.363   1.907   7.202 -0.1614 -0.2093  0.1521
   45DOPE  H17R 5753   6.425   1.984   7.150 -0.3392  1.3649  2.1502
   45DOPE  H17S 5754   6.376   1.938   7.308 -1.1745 -0.6815  0.4305
   45DOPE  C218 5755   6.227   1.961   7.161  0.0519  0.8660  0.3687
   45DOPE  H18R 5756   6.150   1.918   7.229  1.1154 -0.2315  0.9177
   45DOPE  H18S 5757   6.202   1.926   7.059  0.1581 -1.1890  1.0030
   45DOPE  H18T 5758   6.222   2.071   7.178  0.3592  0.9546 -0.1068
   45DOPE   C33 5759   5.893   2.437   6.677 -0.0847  0.0497 -0.5207
   45DOPE   H3X 5760   5.847   2.510   6.607  2.0803  2.0370 -0.0003
   45DOPE   H3Y 5761   5.982   2.393   6.627  1.3934 -0.4763  2.3624
   45DOPE   C34 5762   5.951   2.535   6.786  0.1129 -0.1771 -0.0972
   45DOPE   H4X 5763   6.026   2.475   6.840 -1.5934 -1.0321  1.4190
   45DOPE   H4Y 5764   6.004   2.619   6.735  2.8188 -0.4695  2.0190
   45DOPE   C35 5765   5.853   2.613   6.875 -0.3890  0.3959 -0.3968
   45DOPE   H5X 5766   5.788   2.549   6.938 -0.9890  0.8355 -0.5518
   45DOPE   H5Y 5767   5.779   2.665   6.809 -0.2487 -1.2084 -1.8984
   45DOPE   C36 5768   5.927   2.707   6.960 -0.5260  0.0847  0.4450
   45DOPE   H6X 5769   5.970   2.783   6.892  0.5497 -0.8607  0.0330
   45DOPE   H6Y 5770   6.014   2.660   7.011  0.2949  1.3455  0.2568
   45DOPE   C37 5771   5.830   2.769   7.065 -0.1172  0.5227 -0.3516
   45DOPE   H7X 5772   5.752   2.829   7.014 -0.2300  0.2190 -0.5398
   45DOPE   H7Y 5773   5.766   2.687   7.104  1.1723  0.5906  2.0997
   45DOPE   C38 5774   5.902   2.849   7.173 -0.0723 -0.5417  0.0932
   45DOPE   H8X 5775   5.934   2.942   7.122  0.0512 -0.6315  0.0033
   45DOPE   H8Y 5776   5.998   2.803   7.207 -0.1233 -0.3440  0.5055
   45DOPE   C39 5777   5.805   2.872   7.282 -0.1043 -0.0687 -0.1545
   45DOPE   H9X 5778   5.703   2.892   7.247  0.3394  1.2687 -0.7641
   45DOPE  C310 5779   5.830   2.889   7.412  0.1519 -0.8666  0.0911
   45DOPE  H10X 5780   5.740   2.920   7.468  1.0380  1.2383  0.4204
   45DOPE  C311 5781   5.961   2.867   7.479  0.5248  0.2754 -0.2691
   45DOPE  H11X 5782   6.045   2.848   7.410  1.4357 -0.3174  0.9545
   45DOPE  H11Y 5783   5.989   2.954   7.543  0.8138 -0.9065  1.2851
   45DOPE  C312 5784   5.958   2.741   7.569 -0.7341 -0.7578  0.2458
   45DOPE  H12X 5785   5.951   2.648   7.509 -1.7141 -1.6434  1.6571
   45DOPE  H12Y 5786   5.873   2.748   7.640  0.4978 -1.1656  1.8372
   45DOPE  C313 5787   6.083   2.726   7.656 -0.7151  0.1718  0.3022
   45DOPE  H13X 5788   6.181   2.724   7.604  0.2648 -0.7734  2.0993
   45DOPE  H13Y 5789   6.068   2.817   7.718  3.0954 -0.9654  3.2735
   45DOPE  C314 5790   6.082   2.604   7.743 -0.4175  0.4693 -0.3502
   45DOPE  H14X 5791   6.127   2.525   7.678  0.7820  1.4140 -0.7032
   45DOPE  H14Y 5792   5.975   2.579   7.755  0.0306 -0.8396  1.4493
   45DOPE  C315 5793   6.152   2.608   7.879 -0.3322  0.0702 -0.3279
   45DOPE  H15X 5794   6.110   2.700   7.924  0.3869 -0.9199  2.5723
   45DOPE  H15Y 5795   6.257   2.629   7.846 -0.2862  0.8600  0.2814
   45DOPE  C316 5796   6.150   2.469   7.959  0.3035  0.1588 -0.0109
   45DOPE  H16X 5797   6.166   2.383   7.890 -0.2121  0.5071 -0.5666
   45DOPE  H16Y 5798   6.055   2.459   8.016  1.5160  3.4318  2.8934
   45DOPE  C317 5799   6.270   2.481   8.053 -0.0168 -0.2304 -0.7179
   45DOPE  H17X 5800   6.341   2.544   7.996 -1.7491  1.8504 -0.7117
   45DOPE  H17Y 5801   6.232   2.532   8.144  3.5224 -0.1323  0.8983
   45DOPE  C318 5802   6.342   2.352   8.091 -0.0667  0.0929 -0.2233
   45DOPE  H18X 5803   6.363   2.295   7.998  1.0542  0.6101 -0.3077
   45DOPE  H18Y 5804   6.438   2.375   8.143  1.5696  0.6462 -3.2466
   45DOPE  H18Z 5805   6.271   2.295   8.154 -0.0342 -0.5528 -0.7652
   46DOPE     N 5806   6.307   7.850   6.675 -0.0103 -0.0698  0.3030
   46DOPE   HN1 5807   6.398   7.898   6.663 -0.8819  1.5338 -0.3647
   46DOPE   HN2 5808   6.317   7.753   6.639 -0.8615  0.0271 -0.2567
   46DOPE   HN3 5809   6.240   7.894   6.607  2.1742  0.9434 -1.3056
   46DOPE   C12 5810   6.267   7.819   6.819  0.1830 -0.3714 -0.3154
   46DOPE  H12A 5811   6.261   7.917   6.872  2.0489 -0.7467  0.7050
   46DOPE  H12B 5812   6.351   7.762   6.865 -0.7071 -2.6068 -1.3214
   46DOPE   C11 5813   6.145   7.727   6.833 -0.3063  0.3065 -0.0678
   46DOPE  H11A 5814   6.055   7.769   6.784 -0.8722  1.9173  2.2149
   46DOPE  H11B 5815   6.121   7.704   6.939 -1.8291  1.8756 -0.0268
   46DOPE     P 5816   6.072   7.486   6.754  0.2212  0.2255  0.0891
   46DOPE   O13 5817   6.138   7.380   6.685 -0.0048  0.0043  0.3053
   46DOPE   O14 5818   5.956   7.547   6.680 -0.0989 -0.2857  0.1647
   46DOPE   O11 5819   6.022   7.430   6.897 -0.1645  0.4457  0.1355
   46DOPE   O12 5820   6.182   7.598   6.781  0.3355 -0.5838 -0.3215
   46DOPE    C1 5821   6.113   7.389   7.001  0.0396  0.2600  0.6317
   46DOPE    HA 5822   6.179   7.478   7.017 -0.2063  0.9852 -1.9083
   46DOPE    HB 5823   6.185   7.312   6.964  2.0890  2.4627 -0.2607
   46DOPE    C2 5824   6.039   7.342   7.126 -0.4785 -0.3531 -0.1182
   46DOPE    HS 5825   5.985   7.253   7.086 -1.4157  0.7874 -1.5262
   46DOPE   O21 5826   5.945   7.435   7.169  0.5766 -0.3753  0.4467
   46DOPE   C21 5827   5.847   7.394   7.245  0.9341 -0.3617  0.2966
   46DOPE   O22 5828   5.812   7.282   7.271 -0.2008  0.9382  0.9517
   46DOPE   C22 5829   5.783   7.515   7.306  0.3614 -0.2236  1.0004
   46DOPE   H2R 5830   5.709   7.557   7.234 -0.5290 -1.3708  1.2260
   46DOPE   H2S 5831   5.852   7.600   7.326  2.4671 -0.7809 -2.8528
   46DOPE    C3 5832   6.131   7.302   7.245 -0.0925  0.4056  0.1463
   46DOPE    HX 5833   6.065   7.258   7.322  0.3859 -3.2059 -1.3144
   46DOPE    HY 5834   6.178   7.395   7.284  0.9920  0.6702 -1.6739
   46DOPE   O31 5835   6.232   7.215   7.200 -0.0782  0.3993 -0.1090
   46DOPE   C31 5836   6.259   7.112   7.286  0.1709 -0.0149  0.4245
   46DOPE   O32 5837   6.197   7.093   7.390  0.0082  0.1435 -0.6258
   46DOPE   C32 5838   6.388   7.030   7.261 -0.0463 -0.1661  0.6464
   46DOPE   H2X 5839   6.365   6.967   7.172 -1.6064 -0.5826  1.3163
   46DOPE   H2Y 5840   6.472   7.098   7.235  1.7251 -1.6728  2.1002
   46DOPE   C23 5841   5.704   7.486   7.431 -0.5989 -0.3389 -0.5157
   46DOPE   H3R 5842   5.746   7.408   7.499  2.0596  0.3315 -1.2582
   46DOPE   H3S 5843   5.609   7.446   7.391  0.0136 -1.4250 -0.9142
   46DOPE   C24 5844   5.676   7.611   7.516 -0.0955 -0.6334 -0.6090
   46DOPE   H4R 5845   5.644   7.692   7.446  0.7231 -0.4584 -0.7889
   46DOPE   H4S 5846   5.769   7.649   7.563 -1.3064  1.2343  0.4225
   46DOPE   C25 5847   5.564   7.583   7.622 -0.2037  0.4646 -0.0925
   46DOPE   H5R 5848   5.475   7.549   7.564  0.5248  0.1078 -1.0195
   46DOPE   H5S 5849   5.540   7.680   7.670 -0.2766  1.0948 -1.3700
   46DOPE   C26 5850   5.602   7.495   7.741  0.5666 -0.4350  0.2635
   46DOPE   H6R 5851   5.680   7.556   7.792 -1.1046  0.6605  1.6139
   46DOPE   H6S 5852   5.653   7.404   7.701  2.3945 -0.5514  2.6098
   46DOPE   C27 5853   5.495   7.444   7.843 -0.2599  0.2635  0.3310
   46DOPE   H7R 5854   5.446   7.358   7.793 -0.6226  0.9291 -0.4845
   46DOPE   H7S 5855   5.420   7.525   7.853 -0.1852  0.2269  1.3204
   46DOPE   C28 5856   5.541   7.409   7.986  0.1393 -0.2143  0.0240
   46DOPE   H8R 5857   5.600   7.315   7.976 -0.3087 -0.4289 -0.6907
   46DOPE   H8S 5858   5.444   7.378   8.030  0.0181  1.9759  1.4602
   46DOPE   C29 5859   5.621   7.506   8.069  0.2452  0.1915 -0.4195
   46DOPE   H9R 5860   5.702   7.570   8.031 -0.4827  2.1050  1.0841
   46DOPE  C210 5861   5.604   7.527   8.202  0.5287 -0.7580  0.3162
   46DOPE  H10R 5862   5.663   7.599   8.259  0.6516 -2.1705  2.0473
   46DOPE  C211 5863   5.506   7.456   8.291 -0.1444  0.8245  0.8869
   46DOPE  H11R 5864   5.503   7.347   8.269  2.4317  0.7871  0.4838
   46DOPE  H11S 5865   5.404   7.496   8.269  0.4437  1.4347 -0.8852
   46DOPE  C212 5866   5.514   7.478   8.443  0.1103  0.6979 -0.7082
   46DOPE  H12R 5867   5.507   7.587   8.464 -1.5619  0.5810 -0.5327
   46DOPE  H12S 5868   5.611   7.448   8.488 -0.0423  2.0498  0.6088
   46DOPE  C213 5869   5.396   7.407   8.502  0.0165 -0.2568 -0.6826
   46DOPE  H13R 5870   5.407   7.296   8.500  3.2755 -0.0696  0.3959
   46DOPE  H13S 5871   5.304   7.428   8.444 -0.7504  0.0760  0.6078
   46DOPE  C214 5872   5.370   7.433   8.652  0.5382 -0.2563 -0.1406
   46DOPE  H14R 5873   5.328   7.535   8.665  3.4320  0.9265  0.7418
   46DOPE  H14S 5874   5.464   7.433   8.711  0.4919 -1.3406 -0.0462
   46DOPE  C215 5875   5.290   7.327   8.725 -0.2249  0.8587 -0.6365
   46DOPE  H15R 5876   5.345   7.231   8.738 -1.9683  0.0467  1.1758
   46DOPE  H15S 5877   5.198   7.312   8.664  0.6041 -0.5473 -1.6012
   46DOPE  C216 5878   5.248   7.370   8.867  0.2261 -0.9494  0.0619
   46DOPE  H16R 5879   5.204   7.472   8.864  1.3168 -0.4033  1.5654
   46DOPE  H16S 5880   5.333   7.382   8.937 -0.7801 -0.1575  1.1959
   46DOPE  C217 5881   5.143   7.281   8.941 -0.5337  0.3169 -0.2485
   46DOPE  H17R 5882   5.072   7.233   8.871 -0.5870 -0.0040  0.0249
   46DOPE  H17S 5883   5.083   7.347   9.006 -0.3669  0.3326 -0.1117
   46DOPE  C218 5884   5.206   7.177   9.035  0.1036  0.1377 -0.2909
   46DOPE  H18R 5885   5.271   7.114   8.971  0.5467  1.6396 -1.3728
   46DOPE  H18S 5886   5.128   7.121   9.091  0.9463 -0.8373 -0.0532
   46DOPE  H18T 5887   5.266   7.232   9.110 -0.4834  2.3305 -1.3532
   46DOPE   C33 5888   6.427   6.942   7.373 -0.5226  0.2542  0.1156
   46DOPE   H3X 5889   6.344   6.870   7.391  0.7518 -1.2502  0.2721
   46DOPE   H3Y 5890   6.451   6.995   7.467 -0.0480 -0.6968  0.5418
   46DOPE   C34 5891   6.539   6.854   7.320 -0.5043 -0.8413  0.7121
   46DOPE   H4X 5892   6.616   6.903   7.257 -0.0763 -0.4630  1.5051
   46DOPE   H4Y 5893   6.598   6.825   7.410  0.8085  1.2589  0.6021
   46DOPE   C35 5894   6.492   6.724   7.259 -0.4556  0.6671 -0.4851
   46DOPE   H5X 5895   6.554   6.702   7.170 -1.5735 -0.1036 -1.1022
   46DOPE   H5Y 5896   6.396   6.748   7.210 -1.1510  2.5050  1.5869
   46DOPE   C36 5897   6.499   6.611   7.366 -0.0868 -0.4277 -1.0266
   46DOPE   H6X 5898   6.436   6.632   7.454 -1.2364 -0.8774 -1.7233
   46DOPE   H6Y 5899   6.605   6.596   7.395 -0.5638 -0.6127  0.7065
   46DOPE   C37 5900   6.458   6.479   7.304  0.2704 -0.0469 -1.3792
   46DOPE   H7X 5901   6.350   6.490   7.283  0.1599  1.6459 -0.0706
   46DOPE   H7Y 5902   6.505   6.468   7.204  3.1273 -1.4893  0.0126
   46DOPE   C38 5903   6.487   6.348   7.384  0.4374 -0.6064  0.7028
   46DOPE   H8X 5904   6.449   6.263   7.323 -0.2466  1.1708 -1.4981
   46DOPE   H8Y 5905   6.434   6.351   7.482 -1.8937  1.3216 -0.5180
   46DOPE   C39 5906   6.638   6.333   7.403 -0.1576 -0.0453  0.2993
   46DOPE   H9X 5907   6.699   6.344   7.312 -0.8738  1.3774 -0.0434
   46DOPE  C310 5908   6.708   6.315   7.516 -0.0773 -1.3252 -0.1890
   46DOPE  H10X 5909   6.817   6.321   7.509 -0.0898  0.6009  0.6448
   46DOPE  C311 5910   6.654   6.337   7.659  0.1403 -0.1721 -0.2027
   46DOPE  H11X 5911   6.566   6.269   7.667 -0.0345  0.1912  1.2138
   46DOPE  H11Y 5912   6.725   6.315   7.742 -0.7823  2.6315  1.4559
   46DOPE  C312 5913   6.599   6.472   7.694  0.3665 -0.2506  0.0032
   46DOPE  H12X 5914   6.550   6.458   7.793  1.7807  0.3621  0.8146
   46DOPE  H12Y 5915   6.525   6.502   7.617 -1.4147  1.3623  2.2184
   46DOPE  C313 5916   6.707   6.584   7.713  0.5218  0.1798 -0.3542
   46DOPE  H13X 5917   6.786   6.545   7.781 -0.4006  1.4589  1.5328
   46DOPE  H13Y 5918   6.758   6.602   7.616  2.0991 -1.7174  0.0414
   46DOPE  C314 5919   6.656   6.713   7.791 -0.7063 -0.4464  0.4965
   46DOPE  H14X 5920   6.597   6.698   7.883  0.6755  1.0487  1.6856
   46DOPE  H14Y 5921   6.601   6.775   7.718 -0.5004  0.0609  0.7672
   46DOPE  C315 5922   6.770   6.807   7.828  0.1504  0.7060 -0.1931
   46DOPE  H15X 5923   6.817   6.844   7.734  1.3242  0.4613  0.2805
   46DOPE  H15Y 5924   6.850   6.754   7.884  0.9131  0.4397 -1.4994
   46DOPE  C316 5925   6.722   6.931   7.912 -0.1359 -0.4645  0.3528
   46DOPE  H16X 5926   6.679   6.898   8.009 -0.7763 -0.5975  0.0276
   46DOPE  H16Y 5927   6.636   6.970   7.854  2.0562  0.1710 -2.6873
   46DOPE  C317 5928   6.834   7.030   7.951  0.0005 -0.8185  0.0477
   46DOPE  H17X 5929   6.826   7.071   8.054  0.4211 -0.1509 -0.1791
   46DOPE  H17Y 5930   6.937   6.989   7.950  1.0029  1.5281  0.0743
   46DOPE  C318 5931   6.832   7.157   7.864 -0.4323 -0.1168  0.1955
   46DOPE  H18X 5932   6.774   7.134   7.773  1.5814  2.7143 -1.9679
   46DOPE  H18Y 5933   6.771   7.237   7.912 -0.2394 -0.1235  0.4564
   46DOPE  H18Z 5934   6.928   7.196   7.824 -1.2019  0.0488 -1.5358
   47DOPE     N 5935   3.920   8.194   6.315 -0.0956  0.7968  0.3243
   47DOPE   HN1 5936   3.912   8.132   6.232  1.8097  1.3797 -0.3549
   47DOPE   HN2 5937   3.893   8.288   6.278 -1.5250  0.1628 -0.3011
   47DOPE   HN3 5938   4.022   8.201   6.336 -0.1456  0.4593  0.6857
   47DOPE   C12 5939   3.852   8.150   6.434  0.3820 -0.1673  0.2927
   47DOPE  H12A 5940   3.872   8.042   6.450 -1.3540 -0.3931  1.2967
   47DOPE  H12B 5941   3.744   8.171   6.420  0.4773  0.7016  0.7828
   47DOPE   C11 5942   3.901   8.234   6.555 -0.1050  0.2127  0.2135
   47DOPE  H11A 5943   4.009   8.207   6.565 -0.1652  0.0343  0.4118
   47DOPE  H11B 5944   3.852   8.191   6.646 -0.8244 -2.1611 -1.1998
   47DOPE     P 5945   3.765   8.453   6.586  0.1454  0.0374  0.3918
   47DOPE   O13 5946   3.646   8.387   6.527  0.2296  0.3800 -0.5301
   47DOPE   O14 5947   3.771   8.596   6.577 -0.4274 -0.0421  0.5925
   47DOPE   O11 5948   3.764   8.411   6.739 -0.1186 -0.4092 -0.2036
   47DOPE   O12 5949   3.892   8.377   6.540  0.3113 -0.4163  0.2562
   47DOPE    C1 5950   3.879   8.423   6.824  0.2883 -0.1889  0.4229
   47DOPE    HA 5951   3.944   8.509   6.797  0.1672  0.8019  2.9808
   47DOPE    HB 5952   3.954   8.344   6.803  0.5604  0.1352  0.1617
   47DOPE    C2 5953   3.841   8.436   6.972 -0.2688  0.3703  0.3853
   47DOPE    HS 5954   3.938   8.434   7.026 -0.2309 -0.4123  0.3017
   47DOPE   O21 5955   3.757   8.324   7.000  0.3277  0.0168 -0.2515
   47DOPE   C21 5956   3.811   8.203   7.015  0.3085  0.0291  0.4216
   47DOPE   O22 5957   3.927   8.170   6.995 -0.5035  0.2814  0.3113
   47DOPE   C22 5958   3.705   8.106   7.058 -0.1924 -0.2626 -0.2907
   47DOPE   H2R 5959   3.746   8.003   7.052  0.8596  0.0611  0.9517
   47DOPE   H2S 5960   3.631   8.109   6.975 -1.1578  0.1578  0.5689
   47DOPE    C3 5961   3.779   8.574   7.004  0.1287  0.4384 -0.3981
   47DOPE    HX 5962   3.678   8.575   6.957 -0.4239  1.3183  0.7641
   47DOPE    HY 5963   3.845   8.646   6.952 -0.2679  2.6838  1.9768
   47DOPE   O31 5964   3.761   8.603   7.144 -0.4695  0.5138  0.1563
   47DOPE   C31 5965   3.857   8.682   7.199  0.1301  1.0855 -0.3652
   47DOPE   O32 5966   3.951   8.728   7.140 -0.4724 -0.0662 -0.1945
   47DOPE   C32 5967   3.818   8.698   7.347  0.0383  0.3193  0.0175
   47DOPE   H2X 5968   3.874   8.782   7.395  1.7909 -1.3627  1.0941
   47DOPE   H2Y 5969   3.711   8.726   7.348  0.0254  0.2699  0.0764
   47DOPE   C23 5970   3.637   8.128   7.195 -0.3348 -0.2926 -0.2028
   47DOPE   H3R 5971   3.559   8.050   7.203  0.2930 -0.9214 -0.1431
   47DOPE   H3S 5972   3.581   8.224   7.204 -1.9548 -1.2965  0.9521
   47DOPE   C24 5973   3.733   8.126   7.319 -0.7436  0.0024 -1.0045
   47DOPE   H4R 5974   3.789   8.219   7.340  1.0644 -1.2693  0.0573
   47DOPE   H4S 5975   3.819   8.056   7.312  2.7890  3.9414 -1.0657
   47DOPE   C25 5976   3.655   8.099   7.453  0.4882  0.6326  0.1201
   47DOPE   H5R 5977   3.729   8.086   7.535 -0.1289  1.2685  0.7929
   47DOPE   H5S 5978   3.592   8.008   7.447  0.5030  0.7243 -2.1105
   47DOPE   C26 5979   3.566   8.212   7.497 -0.0876 -0.4986 -0.6041
   47DOPE   H6R 5980   3.497   8.235   7.413 -2.5907 -0.1399  1.3831
   47DOPE   H6S 5981   3.633   8.292   7.535 -0.5836 -1.3806  2.4362
   47DOPE   C27 5982   3.475   8.180   7.616  0.8022  0.1025 -0.7228
   47DOPE   H7R 5983   3.542   8.167   7.704 -0.2224 -2.2981 -0.2249
   47DOPE   H7S 5984   3.420   8.086   7.593  2.1021 -0.0810 -3.3550
   47DOPE   C28 5985   3.366   8.283   7.640  0.5826 -0.2330 -0.6996
   47DOPE   H8R 5986   3.292   8.238   7.710  1.2203  0.2260  0.3064
   47DOPE   H8S 5987   3.317   8.299   7.542 -1.0862  3.1052  0.5416
   47DOPE   C29 5988   3.415   8.417   7.694  0.0530 -0.0079  0.2130
   47DOPE   H9R 5989   3.479   8.463   7.617  1.1586 -0.0715  1.0642
   47DOPE  C210 5990   3.390   8.468   7.812 -0.7702 -0.1303 -0.4990
   47DOPE  H10R 5991   3.438   8.565   7.832  1.2680 -1.3255  0.6830
   47DOPE  C211 5992   3.323   8.398   7.920  0.6742  0.3472 -0.8230
   47DOPE  H11R 5993   3.361   8.413   8.023 -3.3243  0.8728  0.7619
   47DOPE  H11S 5994   3.328   8.289   7.897  0.0052  0.4506 -1.5180
   47DOPE  C212 5995   3.171   8.430   7.930  0.1938 -0.0698 -0.0079
   47DOPE  H12R 5996   3.156   8.540   7.919 -0.6172 -0.1463  0.2140
   47DOPE  H12S 5997   3.143   8.383   8.027  0.5950 -0.7820 -0.2352
   47DOPE  C213 5998   3.088   8.357   7.831  0.7955  0.0108  0.6277
   47DOPE  H13R 5999   3.114   8.251   7.848 -2.9759 -1.0661  0.5083
   47DOPE  H13S 6000   3.103   8.387   7.725 -2.7721 -2.1411 -0.6830
   47DOPE  C214 6001   2.934   8.354   7.849 -0.0875 -0.1427 -0.3233
   47DOPE  H14R 6002   2.886   8.288   7.773 -0.0558 -1.1314  0.5023
   47DOPE  H14S 6003   2.902   8.459   7.833 -3.9633 -1.0355  0.5448
   47DOPE  C215 6004   2.896   8.306   7.993 -0.1488 -0.2256  0.1425
   47DOPE  H15R 6005   2.918   8.386   8.067  0.6723  0.6237 -0.9938
   47DOPE  H15S 6006   2.940   8.208   8.018 -0.4750 -0.2576  0.5965
   47DOPE  C216 6007   2.742   8.275   8.010 -0.5857 -0.2382  0.6017
   47DOPE  H16R 6008   2.721   8.174   7.968 -2.2157  1.0766 -2.0546
   47DOPE  H16S 6009   2.686   8.347   7.946 -0.7929 -0.0307  1.0099
   47DOPE  C217 6010   2.699   8.271   8.160  0.6709 -0.0075  0.3093
   47DOPE  H17R 6011   2.698   8.378   8.189 -0.1197  0.2478 -0.6165
   47DOPE  H17S 6012   2.775   8.212   8.216  0.3540 -1.1162 -0.3890
   47DOPE  C218 6013   2.554   8.218   8.183  0.3337 -0.3389 -0.2354
   47DOPE  H18R 6014   2.487   8.255   8.103 -0.2764  1.2361  0.9568
   47DOPE  H18S 6015   2.518   8.242   8.286  0.2401  0.2520 -0.4017
   47DOPE  H18T 6016   2.558   8.109   8.165 -1.2175 -0.0610 -2.8156
   47DOPE   C33 6017   3.837   8.575   7.436  0.1204 -0.1599 -0.1166
   47DOPE   H3X 6018   3.943   8.544   7.425  0.6318  1.0422  1.0827
   47DOPE   H3Y 6019   3.774   8.487   7.411  1.1733 -1.3783  1.3411
   47DOPE   C34 6020   3.802   8.598   7.589  0.0759  0.1864 -0.5800
   47DOPE   H4X 6021   3.853   8.694   7.613 -1.0863  1.0192 -1.2783
   47DOPE   H4Y 6022   3.692   8.607   7.606  0.0217 -0.9665 -0.2489
   47DOPE   C35 6023   3.851   8.479   7.681 -0.3226  0.0166 -0.2031
   47DOPE   H5X 6024   3.961   8.489   7.692 -0.4807  0.1400  1.7033
   47DOPE   H5Y 6025   3.826   8.378   7.644  0.4868 -0.3816  0.3097
   47DOPE   C36 6026   3.795   8.475   7.823  0.0760  0.1719  0.1297
   47DOPE   H6X 6027   3.688   8.447   7.819  0.2917 -0.7126  0.3578
   47DOPE   H6Y 6028   3.797   8.574   7.874  0.5457  1.0733 -1.5600
   47DOPE   C37 6029   3.861   8.374   7.926 -0.0408  0.6807 -0.0526
   47DOPE   H7X 6030   3.826   8.268   7.927  1.4910  0.1238  2.0569
   47DOPE   H7Y 6031   3.970   8.377   7.902 -0.0103 -1.2882 -0.3170
   47DOPE   C38 6032   3.827   8.428   8.065 -0.1944  0.6188 -0.0227
   47DOPE   H8X 6033   3.865   8.531   8.078  1.9071 -0.3867  2.8228
   47DOPE   H8Y 6034   3.888   8.368   8.135 -1.2494  0.1521  0.5309
   47DOPE   C39 6035   3.682   8.422   8.096  0.0535 -0.2198  0.0930
   47DOPE   H9X 6036   3.610   8.445   8.016  1.3645  1.4730 -0.6449
   47DOPE  C310 6037   3.632   8.402   8.222 -0.2146 -0.6140 -0.2024
   47DOPE  H10X 6038   3.523   8.411   8.226 -0.1984 -0.3767 -0.3034
   47DOPE  C311 6039   3.715   8.395   8.351 -0.0961  0.0518  0.0654
   47DOPE  H11X 6040   3.815   8.439   8.328  0.8952 -0.3344  3.1671
   47DOPE  H11Y 6041   3.671   8.464   8.426 -0.2875 -0.3730  0.3468
   47DOPE  C312 6042   3.739   8.253   8.408 -0.8542 -0.3728 -0.4603
   47DOPE  H12X 6043   3.800   8.203   8.331 -0.4162 -0.2733 -0.1792
   47DOPE  H12Y 6044   3.653   8.185   8.428 -0.9747 -0.1691 -0.2674
   47DOPE  C313 6045   3.829   8.275   8.534  0.7348 -0.7332  0.0439
   47DOPE  H13X 6046   3.907   8.354   8.528  0.6902 -0.8007 -2.3059
   47DOPE  H13Y 6047   3.758   8.319   8.608  1.2598  2.3478 -1.1042
   47DOPE  C314 6048   3.901   8.151   8.588  0.2344 -0.3875  0.4351
   47DOPE  H14X 6049   3.971   8.131   8.504 -0.8354 -1.4756 -0.2257
   47DOPE  H14Y 6050   3.837   8.061   8.591 -0.9484  0.4332  0.4941
   47DOPE  C315 6051   3.949   8.159   8.735  0.5581  0.6466  0.1005
   47DOPE  H15X 6052   3.952   8.052   8.766 -3.3780  0.8136  1.5393
   47DOPE  H15Y 6053   3.871   8.202   8.800  0.1395  1.7603 -1.0866
   47DOPE  C316 6054   4.083   8.223   8.763  0.0653  0.0273  0.4407
   47DOPE  H16X 6055   4.154   8.204   8.680 -0.3669  1.0757 -0.1936
   47DOPE  H16Y 6056   4.134   8.178   8.851 -0.5375 -0.6158  0.4744
   47DOPE  C317 6057   4.088   8.374   8.794 -0.6683  0.0776  0.1476
   47DOPE  H17X 6058   4.060   8.426   8.700 -0.1808 -1.7380 -1.0645
   47DOPE  H17Y 6059   4.002   8.382   8.864 -0.4840 -1.9813  0.6757
   47DOPE  C318 6060   4.220   8.406   8.843  0.2173  0.2681 -0.0372
   47DOPE  H18X 6061   4.252   8.347   8.931 -1.6654  1.3314  1.4359
   47DOPE  H18Y 6062   4.303   8.387   8.771 -0.1378 -1.3907 -0.0414
   47DOPE  H18Z 6063   4.218   8.508   8.887  1.7976  0.0828  0.5383
   48DOPE     N 6064   5.807   1.075   6.525 -1.6566 -0.0579  0.0945
   48DOPE   HN1 6065   5.710   1.053   6.496 -1.9073  0.5832  0.4348
   48DOPE   HN2 6066   5.833   1.165   6.480 -0.0648 -0.4571  0.1639
   48DOPE   HN3 6067   5.875   1.004   6.491 -1.2278  0.8648 -1.0641
   48DOPE   C12 6068   5.818   1.081   6.672 -0.2144 -0.4018  0.0470
   48DOPE  H12A 6069   5.843   0.981   6.712 -0.0817 -0.1522  0.5947
   48DOPE  H12B 6070   5.719   1.119   6.706 -1.2437 -2.3238 -0.6150
   48DOPE   C11 6071   5.925   1.182   6.724 -0.4869  0.2493 -0.8661
   48DOPE  H11A 6072   5.936   1.176   6.835 -0.8520 -0.7696 -0.8748
   48DOPE  H11B 6073   5.893   1.285   6.697 -3.0061  0.0781  1.0971
   48DOPE     P 6074   6.129   1.028   6.681  0.3906  0.1299  0.4728
   48DOPE   O13 6075   6.274   1.045   6.692 -0.1462 -0.1936 -0.5878
   48DOPE   O14 6076   6.080   0.955   6.564 -0.2146  0.1247  0.2641
   48DOPE   O11 6077   6.065   0.959   6.812 -0.4215 -0.3116 -0.0546
   48DOPE   O12 6078   6.058   1.167   6.672  0.1409  0.0223 -0.3504
   48DOPE    C1 6079   6.121   1.005   6.939 -0.0936  0.5908  0.2504
   48DOPE    HA 6080   6.071   1.100   6.967  0.4500  1.2696 -0.9916
   48DOPE    HB 6081   6.230   1.029   6.932  0.1811 -0.4727  0.7088
   48DOPE    C2 6082   6.107   0.884   7.042  0.3114  0.7150  0.0096
   48DOPE    HS 6083   6.027   0.817   7.002  1.1035 -1.4060  1.8160
   48DOPE   O21 6084   6.080   0.935   7.170  0.3166  0.3216 -0.0344
   48DOPE   C21 6085   5.953   0.980   7.175  0.3901 -0.2134  0.5525
   48DOPE   O22 6086   5.875   0.984   7.080 -0.5707 -0.2534 -0.2603
   48DOPE   C22 6087   5.936   1.041   7.318  0.3702 -0.3850 -0.1760
   48DOPE   H2R 6088   5.844   1.103   7.316  0.3204 -0.4796 -0.7092
   48DOPE   H2S 6089   6.024   1.103   7.348  0.9171 -0.3537 -1.7496
   48DOPE    C3 6090   6.237   0.789   7.046  0.2077 -0.4908 -0.1606
   48DOPE    HX 6091   6.315   0.827   7.116 -0.1122 -0.3627  0.1281
   48DOPE    HY 6092   6.277   0.787   6.943 -0.4401  0.3762 -0.4373
   48DOPE   O31 6093   6.195   0.661   7.098  0.0437  0.6769 -0.5038
   48DOPE   C31 6094   6.210   0.552   7.024  0.1570 -0.0302  0.2501
   48DOPE   O32 6095   6.252   0.551   6.912  0.0816  0.5057  0.2952
   48DOPE   C32 6096   6.157   0.436   7.105  0.1002  0.0887  0.0424
   48DOPE   H2X 6097   6.047   0.444   7.105 -0.0155  0.0331 -3.5388
   48DOPE   H2Y 6098   6.175   0.345   7.043 -3.2869 -1.8598  1.6833
   48DOPE   C23 6099   5.910   0.929   7.415  0.1446  0.4691  1.4400
   48DOPE   H3R 6100   5.887   0.978   7.512  1.1805  1.3705  1.2542
   48DOPE   H3S 6101   5.999   0.864   7.429 -0.4196 -0.6468  0.0975
   48DOPE   C24 6102   5.799   0.837   7.364  0.2804  0.2633  0.6462
   48DOPE   H4R 6103   5.771   0.765   7.444 -2.5341  0.0816 -0.4014
   48DOPE   H4S 6104   5.833   0.767   7.284 -0.9820  0.2020  0.1486
   48DOPE   C25 6105   5.663   0.900   7.319  0.3332  0.1814  0.1396
   48DOPE   H5R 6106   5.594   0.816   7.301  1.1116 -0.2339 -0.9845
   48DOPE   H5S 6107   5.673   0.962   7.227  0.9569 -0.5478 -0.2947
   48DOPE   C26 6108   5.605   0.995   7.422 -0.2402 -0.1119 -0.5728
   48DOPE   H6R 6109   5.689   1.066   7.438  0.5238 -0.5831 -2.2405
   48DOPE   H6S 6110   5.594   0.926   7.508 -0.2388 -0.6686 -1.0132
   48DOPE   C27 6111   5.473   1.066   7.387 -0.2552  0.3085 -0.8023
   48DOPE   H7R 6112   5.480   1.112   7.286 -1.6777 -0.9013 -1.4933
   48DOPE   H7S 6113   5.443   1.136   7.468 -0.9047 -0.3621 -0.4592
   48DOPE   C28 6114   5.351   0.969   7.381 -0.2447 -0.0813  0.0532
   48DOPE   H8R 6115   5.333   0.902   7.467 -0.3785  0.2736  0.3064
   48DOPE   H8S 6116   5.376   0.907   7.292  0.9836  1.6867 -0.9121
   48DOPE   C29 6117   5.224   1.049   7.355  0.0140 -0.4819  0.8878
   48DOPE   H9R 6118   5.228   1.108   7.262  1.2491  0.3428  1.4417
   48DOPE  C210 6119   5.111   1.049   7.422 -0.0095  0.3891 -0.5922
   48DOPE  H10R 6120   5.032   1.109   7.374 -0.5863 -1.0608 -1.5535
   48DOPE  C211 6121   5.080   0.983   7.556 -0.5013  0.2238  0.3272
   48DOPE  H11R 6122   5.030   1.053   7.626 -2.3594 -1.7007  1.0521
   48DOPE  H11S 6123   5.178   0.966   7.605 -1.0506 -1.7986  0.8290
   48DOPE  C212 6124   5.001   0.852   7.547  0.1032  0.1504  0.3589
   48DOPE  H12R 6125   5.075   0.802   7.481 -0.4752  0.6185 -0.6821
   48DOPE  H12S 6126   4.907   0.866   7.490  0.4072  0.3815 -0.0943
   48DOPE  C213 6127   4.991   0.768   7.677  0.4062  0.0089 -0.5710
   48DOPE  H13R 6128   4.946   0.834   7.754  1.9809  0.7913 -0.2831
   48DOPE  H13S 6129   5.090   0.727   7.707 -0.1406 -0.5543  0.5276
   48DOPE  C214 6130   4.879   0.654   7.669 -1.0100 -0.0865 -0.1022
   48DOPE  H14R 6131   4.912   0.580   7.593 -0.4386 -1.2723  1.2675
   48DOPE  H14S 6132   4.786   0.703   7.632 -1.6647 -1.2728 -0.0627
   48DOPE  C215 6133   4.849   0.566   7.792 -0.1782 -0.3098 -0.3451
   48DOPE  H15R 6134   4.941   0.512   7.823  0.5925  0.8495 -0.5309
   48DOPE  H15S 6135   4.774   0.488   7.769  0.9855 -1.0812 -1.6990
   48DOPE  C216 6136   4.806   0.650   7.914 -0.5087 -0.0400 -0.8315
   48DOPE  H16R 6137   4.714   0.702   7.882 -1.0473 -0.4275  0.0748
   48DOPE  H16S 6138   4.881   0.730   7.931  1.1474 -0.9238 -3.3491
   48DOPE  C217 6139   4.799   0.566   8.047  0.0385 -0.7478  0.2338
   48DOPE  H17R 6140   4.902   0.528   8.068  2.1504  2.7281 -2.7250
   48DOPE  H17S 6141   4.733   0.481   8.020 -0.0485 -0.5140 -0.2896
   48DOPE  C218 6142   4.754   0.656   8.165  0.3868  0.1770 -0.3073
   48DOPE  H18R 6143   4.762   0.607   8.265 -1.3025  3.0723  1.3952
   48DOPE  H18S 6144   4.645   0.679   8.158 -0.0534 -1.2385  1.1872
   48DOPE  H18T 6145   4.819   0.745   8.175  0.1247  0.1898  1.8796
   48DOPE   C33 6146   6.224   0.429   7.242  0.1018 -0.4389 -0.6299
   48DOPE   H3X 6147   6.191   0.340   7.300  0.9623  0.5994  1.5899
   48DOPE   H3Y 6148   6.201   0.515   7.308 -2.0636 -0.9188 -0.6838
   48DOPE   C34 6149   6.379   0.417   7.228  0.1332  0.2602 -0.0382
   48DOPE   H4X 6150   6.402   0.367   7.131  2.3837 -0.1358  0.6279
   48DOPE   H4Y 6151   6.430   0.516   7.222 -1.9797  1.4124  0.2441
   48DOPE   C35 6152   6.438   0.336   7.344 -0.6250 -0.0176  0.0130
   48DOPE   H5X 6153   6.376   0.246   7.363 -0.0860 -0.5277 -0.6192
   48DOPE   H5Y 6154   6.424   0.407   7.429 -0.4521  2.4621 -1.9220
   48DOPE   C36 6155   6.582   0.289   7.323 -0.7466 -0.5361  0.0535
   48DOPE   H6X 6156   6.649   0.377   7.330  0.0999 -1.2878  2.1997
   48DOPE   H6Y 6157   6.601   0.242   7.225 -0.4792 -0.3665  0.0225
   48DOPE   C37 6158   6.627   0.193   7.434 -0.1238 -0.2925 -0.3112
   48DOPE   H7X 6159   6.599   0.248   7.527  2.5677  1.4152 -0.4124
   48DOPE   H7Y 6160   6.565   0.102   7.447 -1.5850  1.0090  3.3207
   48DOPE   C38 6161   6.776   0.154   7.438  0.2879 -0.0961 -0.1790
   48DOPE   H8X 6162   6.814   0.144   7.334  1.2507 -0.2919  0.1842
   48DOPE   H8Y 6163   6.783   0.058   7.494 -0.5362  0.7096  1.3897
   48DOPE   C39 6164   6.861   0.256   7.513 -0.6946 -0.1183 -0.2109
   48DOPE   H9X 6165   6.893   0.344   7.454 -1.5984  0.3374 -0.0324
   48DOPE  C310 6166   6.910   0.249   7.632  0.1186  0.1875  0.0631
   48DOPE  H10X 6167   6.955   0.340   7.674  0.2408  0.7082 -1.1425
   48DOPE  C311 6168   6.893   0.123   7.721 -0.8156 -0.0311  0.5717
   48DOPE  H11X 6169   6.791   0.080   7.716 -0.4029 -0.9533 -0.7974
   48DOPE  H11Y 6170   6.965   0.044   7.688  1.2507  2.0077 -0.1112
   48DOPE  C312 6171   6.931   0.140   7.861  0.6995 -0.2760 -0.4512
   48DOPE  H12X 6172   7.040   0.162   7.871  0.6037 -0.0436  0.1104
   48DOPE  H12Y 6173   6.919   0.038   7.903 -1.1678  0.0482 -0.1171
   48DOPE  C313 6174   6.845   0.234   7.950 -0.5480  0.8690 -0.1144
   48DOPE  H13X 6175   6.840   0.336   7.907  1.4254  0.9766 -0.1396
   48DOPE  H13Y 6176   6.739   0.198   7.948 -0.0232 -0.7435 -0.7643
   48DOPE  C314 6177   6.904   0.243   8.087 -0.0630 -0.0157  0.3579
   48DOPE  H14X 6178   7.014   0.257   8.076 -0.1985 -0.5012 -2.5028
   48DOPE  H14Y 6179   6.898   0.148   8.144  2.8127  1.0551  2.7345
   48DOPE  C315 6180   6.832   0.343   8.179  0.0912 -0.5762  0.2913
   48DOPE  H15X 6181   6.817   0.440   8.128  0.0263 -0.5962  0.2722
   48DOPE  H15Y 6182   6.894   0.361   8.269 -2.5787  2.7602  1.6534
   48DOPE  C316 6183   6.697   0.298   8.229 -0.4413 -0.5590 -0.0438
   48DOPE  H16X 6184   6.712   0.202   8.282 -1.0833 -0.5710  0.1293
   48DOPE  H16Y 6185   6.631   0.272   8.143 -1.5250  0.4381  0.4572
   48DOPE  C317 6186   6.625   0.403   8.319  0.5220 -0.1848  0.2766
   48DOPE  H17X 6187   6.694   0.451   8.391 -0.8154  0.0549  1.4466
   48DOPE  H17Y 6188   6.584   0.489   8.262  0.0257  0.9069  2.2085
   48DOPE  C318 6189   6.507   0.341   8.400 -0.5028  0.6467  0.2846
   48DOPE  H18X 6190   6.428   0.305   8.331  0.0876  0.4228 -0.2888
   48DOPE  H18Y 6191   6.554   0.260   8.458  2.9141  1.6076 -0.8949
   48DOPE  H18Z 6192   6.471   0.423   8.466  1.4798  1.3656  0.5473
   49DOPE     N 6193   3.089   7.654   6.486  0.0780  0.4812  0.2643
   49DOPE   HN1 6194   3.087   7.605   6.395 -1.1743  0.5699  0.2296
   49DOPE   HN2 6195   3.016   7.610   6.545 -0.5690  0.2667 -0.6765
   49DOPE   HN3 6196   3.068   7.754   6.464 -0.3255  0.3393  0.0057
   49DOPE   C12 6197   3.228   7.648   6.548  0.3449  0.3779  0.1918
   49DOPE  H12A 6198   3.227   7.709   6.640 -0.0590 -0.0074  0.4504
   49DOPE  H12B 6199   3.302   7.697   6.481 -4.1760  2.2893 -4.0987
   49DOPE   C11 6200   3.269   7.510   6.599 -0.0323  0.2605 -0.6254
   49DOPE  H11A 6201   3.370   7.498   6.642  0.6606  1.3101 -1.8678
   49DOPE  H11B 6202   3.268   7.452   6.504 -2.4393 -0.7732 -0.0410
   49DOPE     P 6203   3.072   7.342   6.656 -0.0105  0.4496 -0.5766
   49DOPE   O13 6204   3.134   7.216   6.699  0.4650 -0.4112 -0.1262
   49DOPE   O14 6205   3.022   7.358   6.521  0.1634  0.1121  0.1362
   49DOPE   O11 6206   2.951   7.375   6.750  0.3014 -0.0200  0.0773
   49DOPE   O12 6207   3.172   7.460   6.685  0.4642  0.3117  0.1488
   49DOPE    C1 6208   2.956   7.458   6.863 -0.3935  0.0567 -0.0355
   49DOPE    HA 6209   2.875   7.530   6.842 -0.4341  0.0250  0.0111
   49DOPE    HB 6210   3.052   7.512   6.879 -0.6192  1.0607 -1.8740
   49DOPE    C2 6211   2.905   7.386   6.992  0.2120 -0.7168  0.3409
   49DOPE    HS 6212   2.826   7.452   7.033 -0.8231 -0.8640 -1.3298
   49DOPE   O21 6213   3.011   7.374   7.088  0.0486  0.0844 -0.0761
   49DOPE   C21 6214   3.050   7.488   7.152  0.5815  0.0257  0.1886
   49DOPE   O22 6215   2.989   7.592   7.149 -0.0617  0.2835 -0.2427
   49DOPE   C22 6216   3.176   7.456   7.231  0.1927 -0.9259  0.5861
   49DOPE   H2R 6217   3.187   7.346   7.230 -0.4737 -1.0022  0.8115
   49DOPE   H2S 6218   3.164   7.494   7.334  0.8068 -0.8542  0.6307
   49DOPE    C3 6219   2.831   7.253   6.964  0.3029  0.3962  0.1817
   49DOPE    HX 6220   2.906   7.174   6.942  0.9313  1.2028 -0.6615
   49DOPE    HY 6221   2.767   7.263   6.874 -1.0339  0.1873  1.0882
   49DOPE   O31 6222   2.747   7.213   7.072 -0.2856  0.0419  0.1958
   49DOPE   C31 6223   2.715   7.089   7.081 -0.1774  0.4233  0.1475
   49DOPE   O32 6224   2.747   6.997   7.009 -0.1636  0.1672  0.0695
   49DOPE   C32 6225   2.612   7.083   7.194 -0.0943  0.2608  0.3401
   49DOPE   H2X 6226   2.667   7.114   7.285 -0.4918 -1.1676  1.1104
   49DOPE   H2Y 6227   2.528   7.152   7.173  0.6367  0.5132 -2.0435
   49DOPE   C23 6228   3.307   7.522   7.170  0.0220 -0.8108 -0.2181
   49DOPE   H3R 6229   3.293   7.631   7.184 -0.0277 -0.5177 -2.1817
   49DOPE   H3S 6230   3.302   7.498   7.061 -2.1698 -2.4454  0.1687
   49DOPE   C24 6231   3.440   7.460   7.226  0.8827  0.1236 -0.0235
   49DOPE   H4R 6232   3.463   7.357   7.190  3.1488  0.2940  0.7833
   49DOPE   H4S 6233   3.436   7.471   7.336 -0.9903  2.2451 -0.2439
   49DOPE   C25 6234   3.559   7.552   7.196  0.4491  0.7444  0.0793
   49DOPE   H5R 6235   3.533   7.659   7.208 -2.7537  0.4806 -2.9825
   49DOPE   H5S 6236   3.580   7.541   7.088 -0.7475  2.1410 -0.3226
   49DOPE   C26 6237   3.680   7.518   7.288  0.0036  0.0653 -0.1046
   49DOPE   H6R 6238   3.650   7.543   7.392 -1.1162 -0.6963 -0.2252
   49DOPE   H6S 6239   3.771   7.574   7.255  0.2279  0.3393  0.9266
   49DOPE   C27 6240   3.727   7.377   7.277  0.2921 -0.5342  0.5833
   49DOPE   H7R 6241   3.748   7.352   7.171  0.4106 -1.1538  0.7479
   49DOPE   H7S 6242   3.647   7.303   7.302 -1.3686 -0.0131 -2.6661
   49DOPE   C28 6243   3.847   7.348   7.363  0.0955 -0.4456 -0.0033
   49DOPE   H8R 6244   3.860   7.238   7.362  0.9906 -0.3883  1.8748
   49DOPE   H8S 6245   3.834   7.374   7.470 -0.8191 -0.0367 -0.2003
   49DOPE   C29 6246   3.976   7.400   7.305 -0.5004 -0.3052 -1.0780
   49DOPE   H9R 6247   3.959   7.480   7.231  2.7850  1.4633 -0.1105
   49DOPE  C210 6248   4.097   7.357   7.333 -0.5324 -0.0255 -0.4430
   49DOPE  H10R 6249   4.189   7.398   7.290  1.0660 -0.3276  2.3928
   49DOPE  C211 6250   4.135   7.256   7.438 -0.2015 -0.1253 -0.4579
   49DOPE  H11R 6251   4.219   7.195   7.398 -0.2826  1.2604 -2.9789
   49DOPE  H11S 6252   4.057   7.178   7.447 -1.3965  0.8587 -1.9294
   49DOPE  C212 6253   4.167   7.316   7.581  0.4111  0.2926  0.4335
   49DOPE  H12R 6254   4.181   7.240   7.661  1.1455 -0.3644 -0.3012
   49DOPE  H12S 6255   4.084   7.386   7.603 -1.7528 -2.1834  0.6291
   49DOPE  C213 6256   4.304   7.382   7.579 -0.1612 -1.3947 -0.0556
   49DOPE  H13R 6257   4.319   7.451   7.493 -0.9547 -0.5611  0.4503
   49DOPE  H13S 6258   4.380   7.304   7.561  1.5800  0.1960  0.0648
   49DOPE  C214 6259   4.324   7.456   7.714  0.5109  0.5529  0.0384
   49DOPE  H14R 6260   4.297   7.379   7.789  0.7493 -0.3539 -0.7810
   49DOPE  H14S 6261   4.251   7.539   7.727  0.2504  0.2988  0.2067
   49DOPE  C215 6262   4.464   7.505   7.747 -0.1064 -0.3979 -0.2169
   49DOPE  H15R 6263   4.490   7.588   7.677 -0.3633  0.3243  0.5379
   49DOPE  H15S 6264   4.528   7.415   7.736 -1.4712 -1.6841  1.7378
   49DOPE  C216 6265   4.465   7.568   7.890  0.1791  0.1907  0.4642
   49DOPE  H16R 6266   4.569   7.561   7.929  1.2354  0.1788 -2.1353
   49DOPE  H16S 6267   4.396   7.514   7.958 -2.3394  0.4624 -1.6999
   49DOPE  C217 6268   4.440   7.725   7.882  0.4283 -0.1238  0.6528
   49DOPE  H17R 6269   4.349   7.744   7.822  2.0952  1.7809 -1.4401
   49DOPE  H17S 6270   4.523   7.768   7.823  1.3323 -0.6573  1.5047
   49DOPE  C218 6271   4.418   7.782   8.021 -0.0634 -0.1942 -0.5480
   49DOPE  H18R 6272   4.385   7.888   8.020 -0.2430 -0.1877  1.4757
   49DOPE  H18S 6273   4.507   7.763   8.086 -0.6107  0.0128  0.2827
   49DOPE  H18T 6274   4.327   7.733   8.060 -0.6045  0.1642 -1.3437
   49DOPE   C33 6275   2.554   6.938   7.223  0.4221  0.3899 -0.5681
   49DOPE   H3X 6276   2.633   6.861   7.208  0.3745 -0.3044  2.2405
   49DOPE   H3Y 6277   2.479   6.914   7.145 -1.3695 -0.3506  1.2734
   49DOPE   C34 6278   2.487   6.930   7.356 -0.3594 -0.4482 -0.0920
   49DOPE   H4X 6279   2.421   7.019   7.363  0.6277  0.3563 -0.7714
   49DOPE   H4Y 6280   2.427   6.836   7.353 -1.0759  0.0056 -0.4325
   49DOPE   C35 6281   2.579   6.928   7.473 -0.4618 -0.1058  0.1713
   49DOPE   H5X 6282   2.673   6.980   7.443  1.0254 -2.6805  0.1136
   49DOPE   H5Y 6283   2.610   6.823   7.488  1.1212  0.1767 -0.7805
   49DOPE   C36 6284   2.526   6.995   7.598 -0.8931 -0.1758 -0.1075
   49DOPE   H6X 6285   2.440   6.930   7.626 -0.8129 -0.5889 -0.7947
   49DOPE   H6Y 6286   2.496   7.100   7.577  1.3295  0.4886 -0.2563
   49DOPE   C37 6287   2.630   6.989   7.708  0.4242 -0.3689  0.2910
   49DOPE   H7X 6288   2.683   6.892   7.714  1.7778  0.4356  2.2428
   49DOPE   H7Y 6289   2.706   7.064   7.677 -0.4183 -0.4422 -2.1469
   49DOPE   C38 6290   2.564   7.003   7.845 -0.1241  0.4568  0.0227
   49DOPE   H8X 6291   2.477   6.939   7.869 -1.3325  2.1211  0.2005
   49DOPE   H8Y 6292   2.528   7.106   7.826  0.1655  0.4902 -0.3677
   49DOPE   C39 6293   2.649   7.001   7.971 -1.1162 -0.0711 -0.0276
   49DOPE   H9X 6294   2.702   6.909   8.002  1.0364  1.4808  1.1654
   49DOPE  C310 6295   2.656   7.105   8.057  0.5287  0.4978 -0.2360
   49DOPE  H10X 6296   2.722   7.099   8.145 -0.7875 -3.5925  0.6595
   49DOPE  C311 6297   2.569   7.229   8.045 -0.2786  0.2180 -0.7121
   49DOPE  H11X 6298   2.611   7.304   8.114  0.6957  0.0139 -1.0586
   49DOPE  H11Y 6299   2.588   7.279   7.947 -0.0387  1.1393 -0.2016
   49DOPE  C312 6300   2.414   7.219   8.066 -0.8202  0.9159 -0.0381
   49DOPE  H12X 6301   2.414   7.163   8.162  3.8962  1.6726  0.6224
   49DOPE  H12Y 6302   2.379   7.154   7.983  1.8679 -3.1999  1.7469
   49DOPE  C313 6303   2.339   7.349   8.068 -0.3167  0.4847 -0.1429
   49DOPE  H13X 6304   2.401   7.426   8.119  2.2437 -0.5685 -1.4963
   49DOPE  H13Y 6305   2.326   7.375   7.961 -0.3296 -0.4395 -0.3690
   49DOPE  C314 6306   2.189   7.343   8.130 -0.1680  0.1837  0.7790
   49DOPE  H14X 6307   2.180   7.317   8.237  0.7350 -0.7005  0.6575
   49DOPE  H14Y 6308   2.147   7.266   8.062  0.9919  0.4876 -0.3340
   49DOPE  C315 6309   2.126   7.482   8.107  0.1363 -0.1330 -0.3090
   49DOPE  H15X 6310   2.213   7.548   8.127 -0.1491  0.3851 -0.7460
   49DOPE  H15Y 6311   2.053   7.500   8.189 -0.7871 -0.1722 -1.0967
   49DOPE  C316 6312   2.071   7.514   7.964  0.5811 -0.1545  0.2118
   49DOPE  H16X 6313   1.984   7.451   7.938  0.1448  0.7984 -0.7140
   49DOPE  H16Y 6314   2.146   7.489   7.885  1.1136  4.7822 -1.1719
   49DOPE  C317 6315   2.030   7.660   7.954  0.1271  0.1838 -0.0225
   49DOPE  H17X 6316   1.937   7.667   8.015  0.2635 -0.2268  0.2429
   49DOPE  H17Y 6317   2.109   7.724   8.000  0.3017 -0.6078  0.8215
   49DOPE  C318 6318   1.992   7.704   7.818 -0.5986  0.3900  0.3947
   49DOPE  H18X 6319   1.913   7.637   7.778  0.9926 -1.3888  0.1276
   49DOPE  H18Y 6320   1.956   7.809   7.806  1.7759  1.1208 -1.1444
   49DOPE  H18Z 6321   2.076   7.705   7.745 -0.9883  3.5254 -0.1903
   50DOPE     N 6322   0.079   5.521   6.385 -0.2614  0.7432  0.8381
   50DOPE   HN1 6323   0.169   5.543   6.336 -0.7714 -0.4706 -0.7534
   50DOPE   HN2 6324   0.056   5.420   6.378 -1.3872  0.9725  1.1354
   50DOPE   HN3 6325   0.007   5.570   6.328  0.4439  0.4918 -0.3247
   50DOPE   C12 6326   0.101   5.578   6.524 -0.1731  0.3892  0.3360
   50DOPE  H12A 6327   0.037   5.523   6.596 -0.5766 -1.0487 -1.0659
   50DOPE  H12B 6328   0.075   5.686   6.515  1.2782  0.6888 -0.5594
   50DOPE   C11 6329   0.245   5.557   6.560 -0.0958  0.3820 -0.5932
   50DOPE  H11A 6330   0.280   5.452   6.555  0.1604  0.4615 -0.4760
   50DOPE  H11B 6331   0.253   5.595   6.664  2.4674  0.7147 -0.8268
   50DOPE     P 6332   0.420   5.747   6.519  0.5792  0.0414  0.5011
   50DOPE   O13 6333   0.446   5.840   6.410 -0.0530  0.1656  0.4947
   50DOPE   O14 6334   0.542   5.689   6.571 -0.8688 -1.3618 -0.7200
   50DOPE   O11 6335   0.330   5.806   6.630 -0.3334 -0.1774 -0.2531
   50DOPE   O12 6336   0.330   5.629   6.472  0.6841 -0.1643  0.6985
   50DOPE    C1 6337   0.377   5.904   6.721  0.1683 -0.1927  0.1497
   50DOPE    HA 6338   0.291   5.956   6.768  2.6673  1.9590  2.7333
   50DOPE    HB 6339   0.435   5.979   6.662 -1.4719 -1.2838 -3.0566
   50DOPE    C2 6340   0.468   5.840   6.834  0.2668 -0.7118  0.9810
   50DOPE    HS 6341   0.566   5.826   6.782 -0.0588 -0.5689  0.3065
   50DOPE   O21 6342   0.413   5.707   6.870 -0.1617  0.2756 -0.4373
   50DOPE   C21 6343   0.509   5.618   6.905  0.4206  0.0394 -0.0629
   50DOPE   O22 6344   0.629   5.631   6.893  0.1917  0.2104  0.3503
   50DOPE   C22 6345   0.440   5.496   6.970  0.4077 -0.2054  0.3031
   50DOPE   H2R 6346   0.519   5.446   7.030  1.3869  1.4356  0.4287
   50DOPE   H2S 6347   0.389   5.433   6.894  1.8399  0.3074 -1.1450
   50DOPE    C3 6348   0.491   5.925   6.961 -0.6224 -1.1432 -0.5430
   50DOPE    HX 6349   0.389   5.919   7.006 -0.6748 -2.8090 -0.8024
   50DOPE    HY 6350   0.503   6.034   6.944 -1.8273 -1.0383 -0.8413
   50DOPE   O31 6351   0.591   5.871   7.055 -0.9036 -0.0481  0.0664
   50DOPE   C31 6352   0.712   5.893   7.021 -0.3492 -0.2965 -0.4393
   50DOPE   O32 6353   0.753   5.968   6.934 -0.4687  1.0539 -0.0481
   50DOPE   C32 6354   0.811   5.824   7.120  0.0375 -0.1232  0.0391
   50DOPE   H2X 6355   0.803   5.715   7.102 -0.9746  0.1344 -1.2948
   50DOPE   H2Y 6356   0.918   5.846   7.103  0.2014 -0.5331  0.5363
   50DOPE   C23 6357   0.340   5.530   7.083 -0.7481 -0.2715 -0.4874
   50DOPE   H3R 6358   0.307   5.440   7.140 -0.5049  0.4242  0.8038
   50DOPE   H3S 6359   0.257   5.593   7.045  0.3684  0.0501 -2.5513
   50DOPE   C24 6360   0.422   5.607   7.195 -0.3115  0.0602 -0.1438
   50DOPE   H4R 6361   0.451   5.710   7.166 -1.8316 -0.0522 -2.3740
   50DOPE   H4S 6362   0.514   5.550   7.224  0.2689  0.6354 -0.8087
   50DOPE   C25 6363   0.342   5.619   7.324 -0.4430  0.2990  0.1519
   50DOPE   H5R 6364   0.233   5.638   7.313 -0.4867  0.4952  0.9141
   50DOPE   H5S 6365   0.377   5.700   7.391 -1.0318 -0.5482  1.5297
   50DOPE   C26 6366   0.365   5.489   7.403  0.3231 -0.6236 -0.7834
   50DOPE   H6R 6367   0.472   5.468   7.426  0.2698  0.0018  0.0932
   50DOPE   H6S 6368   0.315   5.402   7.356 -0.5319 -1.1821  1.0520
   50DOPE   C27 6369   0.298   5.500   7.539 -0.1362  0.0390  0.3279
   50DOPE   H7R 6370   0.187   5.512   7.540  0.0357  3.0395 -1.5320
   50DOPE   H7S 6371   0.322   5.599   7.585 -1.3664  0.0482  0.9861
   50DOPE   C28 6372   0.334   5.390   7.635  0.6436  0.0028 -0.8275
   50DOPE   H8R 6373   0.437   5.351   7.617  0.7294 -1.6029  2.5100
   50DOPE   H8S 6374   0.269   5.302   7.616  1.0092 -0.7453  1.1914
   50DOPE   C29 6375   0.314   5.423   7.781  0.1739 -0.2390  0.8365
   50DOPE   H9R 6376   0.238   5.359   7.827  1.2903 -3.5304 -1.5406
   50DOPE  C210 6377   0.383   5.508   7.858  0.0855 -0.5266 -0.2739
   50DOPE  H10R 6378   0.347   5.518   7.961 -0.2458 -1.1162 -0.3232
   50DOPE  C211 6379   0.497   5.604   7.819 -0.1662 -0.2226  0.4243
   50DOPE  H11R 6380   0.549   5.568   7.728 -0.0180 -0.0825  0.4540
   50DOPE  H11S 6381   0.581   5.596   7.891  1.7293 -0.8816 -1.7396
   50DOPE  C212 6382   0.460   5.750   7.789  0.1304 -0.2534 -0.4779
   50DOPE  H12R 6383   0.366   5.753   7.730 -0.1398  0.4384 -0.0402
   50DOPE  H12S 6384   0.538   5.805   7.732  0.6151  0.4243  0.8006
   50DOPE  C213 6385   0.441   5.845   7.912 -0.6650 -0.5582 -0.1123
   50DOPE  H13R 6386   0.540   5.843   7.960  0.9357 -3.5331 -3.1158
   50DOPE  H13S 6387   0.367   5.795   7.978 -1.7984 -1.1086 -1.7331
   50DOPE  C214 6388   0.392   5.986   7.876 -0.7097  0.2089  0.4536
   50DOPE  H14R 6389   0.287   5.979   7.839 -1.2529 -0.0969  1.9575
   50DOPE  H14S 6390   0.459   6.017   7.794  0.1223 -1.1935  0.5618
   50DOPE  C215 6391   0.398   6.079   7.995  0.6366  0.2300  0.6667
   50DOPE  H15R 6392   0.334   6.169   7.981 -0.5919 -0.3589  2.1092
   50DOPE  H15S 6393   0.501   6.114   8.017  0.3631 -0.4254  3.3209
   50DOPE  C216 6394   0.343   6.016   8.128  0.6940  0.2676 -0.8520
   50DOPE  H16R 6395   0.418   5.943   8.167 -0.5891  1.3091  4.3881
   50DOPE  H16S 6396   0.254   5.957   8.099  1.1458 -1.2498  0.6881
   50DOPE  C217 6397   0.303   6.119   8.226 -0.4177 -0.0976 -0.2129
   50DOPE  H17R 6398   0.257   6.057   8.307  0.5159  0.1989  0.5585
   50DOPE  H17S 6399   0.216   6.181   8.194 -1.0329 -0.6902  0.2660
   50DOPE  C218 6400   0.423   6.207   8.278  0.2929  0.8433 -0.5199
   50DOPE  H18R 6401   0.400   6.285   8.354 -1.2559  0.1940 -0.2834
   50DOPE  H18S 6402   0.459   6.263   8.189 -1.1701 -0.4019 -1.9583
   50DOPE  H18T 6403   0.494   6.135   8.324  0.0821  0.8202 -0.2295
   50DOPE   C33 6404   0.780   5.842   7.269 -0.4557 -0.8191 -0.1535
   50DOPE   H3X 6405   0.858   5.786   7.325 -0.3257  0.5565  1.0833
   50DOPE   H3Y 6406   0.684   5.792   7.296 -1.0701  0.9002  1.0221
   50DOPE   C34 6407   0.791   5.985   7.323  0.1675  0.3597 -0.2331
   50DOPE   H4X 6408   0.814   5.972   7.431 -1.8566 -0.8762  0.0928
   50DOPE   H4Y 6409   0.864   6.044   7.264 -0.9723  1.3484 -0.6957
   50DOPE   C35 6410   0.656   6.067   7.315 -0.2319  0.0632  0.4721
   50DOPE   H5X 6411   0.607   6.053   7.217 -0.7822 -1.1559  0.9075
   50DOPE   H5Y 6412   0.679   6.176   7.324  2.7709 -0.1397 -2.5661
   50DOPE   C36 6413   0.561   6.027   7.422  0.1504 -0.0908 -0.2478
   50DOPE   H6X 6414   0.608   6.052   7.519 -0.5988  2.6356 -0.4998
   50DOPE   H6Y 6415   0.556   5.916   7.434  0.1021 -0.0882 -0.2473
   50DOPE   C37 6416   0.416   6.078   7.407  0.3051 -0.0348 -0.5131
   50DOPE   H7X 6417   0.402   6.186   7.388  0.6645  0.9739  3.9970
   50DOPE   H7Y 6418   0.366   6.015   7.330  0.7441 -1.8802  0.6547
   50DOPE   C38 6419   0.340   6.049   7.537  0.7535  0.5565  0.0455
   50DOPE   H8X 6420   0.401   6.086   7.621  0.7890 -0.4763  0.4945
   50DOPE   H8Y 6421   0.338   5.939   7.556  1.6427  0.9575  2.8192
   50DOPE   C39 6422   0.195   6.099   7.540  0.2270  0.7722  0.1847
   50DOPE   H9X 6423   0.120   6.018   7.547  1.1786 -0.1984 -0.4885
   50DOPE  C310 6424   0.158   6.228   7.552  0.2298  0.0416 -0.6764
   50DOPE  H10X 6425   0.051   6.253   7.555 -0.4476 -2.6347 -0.0528
   50DOPE  C311 6426   0.247   6.349   7.554 -0.3977 -0.4849 -0.1621
   50DOPE  H11X 6427   0.351   6.328   7.586 -0.3965 -2.2070 -1.1803
   50DOPE  H11Y 6428   0.256   6.386   7.450  0.7287 -0.9602 -0.2455
   50DOPE  C312 6429   0.175   6.449   7.653 -0.8342 -0.1213 -0.1442
   50DOPE  H12X 6430   0.250   6.528   7.674  0.3762 -1.0250 -0.9960
   50DOPE  H12Y 6431   0.153   6.413   7.756  0.6251  3.0025  1.4183
   50DOPE  C313 6432   0.056   6.530   7.611  0.0843  0.0197 -0.4720
   50DOPE  H13X 6433   0.052   6.575   7.509 -2.1185  1.6346  0.2481
   50DOPE  H13Y 6434  -0.035   6.468   7.619 -0.4970  0.9086 -0.0962
   50DOPE  C314 6435   0.013   6.646   7.698  0.9405  0.7467 -0.2987
   50DOPE  H14X 6436   0.024   6.613   7.803  0.9509 -2.8351 -1.2675
   50DOPE  H14Y 6437  -0.094   6.671   7.683  1.0165  1.1457 -0.1680
   50DOPE  C315 6438   0.093   6.768   7.670  0.3579  0.1721  0.8997
   50DOPE  H15X 6439   0.064   6.804   7.569  0.0137 -0.1431  0.8847
   50DOPE  H15Y 6440   0.202   6.752   7.686  0.7058  3.2611  2.3455
   50DOPE  C316 6441   0.064   6.888   7.766 -0.5213  0.6740  0.2993
   50DOPE  H16X 6442   0.161   6.901   7.819 -0.8822  0.0653  1.1384
   50DOPE  H16Y 6443  -0.016   6.869   7.841 -0.6265  0.3725  0.1085
   50DOPE  C317 6444   0.019   7.013   7.694  0.0139  0.4920  0.0859
   50DOPE  H17X 6445   0.108   7.048   7.638  1.3566  0.2914  2.0031
   50DOPE  H17Y 6446  -0.062   6.967   7.633  1.0287 -1.6164  0.2389
   50DOPE  C318 6447  -0.033   7.120   7.778 -0.5347  0.6327 -0.0385
   50DOPE  H18X 6448   0.046   7.160   7.845  0.2560 -0.7245 -0.1330
   50DOPE  H18Y 6449  -0.053   7.209   7.713  0.9823 -0.2384 -1.7896
   50DOPE  H18Z 6450  -0.123   7.093   7.837 -0.0719  3.0124  1.9245
   51DOPE     N 6451   4.168   8.810   6.376 -0.6511  0.4365 -0.1332
   51DOPE   HN1 6452   4.145   8.710   6.391  1.8409 -0.3218 -0.8520
   51DOPE   HN2 6453   4.252   8.799   6.316 -1.7145 -0.1855 -1.5838
   51DOPE   HN3 6454   4.188   8.854   6.468 -3.5237  2.1059 -0.1571
   51DOPE   C12 6455   4.065   8.884   6.296 -0.0653 -0.2755 -0.1244
   51DOPE  H12A 6456   4.044   8.833   6.199 -1.4594  1.1494 -0.6242
   51DOPE  H12B 6457   4.107   8.985   6.276 -0.6984  0.3789  1.6216
   51DOPE   C11 6458   3.932   8.884   6.362  0.1704  0.2219  0.2026
   51DOPE  H11A 6459   3.899   8.781   6.386  0.3192  0.3963  1.2155
   51DOPE  H11B 6460   3.858   8.929   6.292 -0.2652  1.6927  1.5477
   51DOPE     P 6461   3.861   9.086   6.515 -0.2782 -0.2680 -0.2224
   51DOPE   O13 6462   3.723   9.063   6.563  0.1027  0.2056  0.3798
   51DOPE   O14 6463   3.879   9.177   6.398  0.4606 -0.2945  0.4161
   51DOPE   O11 6464   3.944   9.148   6.641  0.0369  0.3312 -0.1230
   51DOPE   O12 6465   3.934   8.952   6.492 -0.1633  0.2173 -0.0081
   51DOPE    C1 6466   3.941   9.073   6.771  0.0616  0.0523 -0.2781
   51DOPE    HA 6467   4.047   9.066   6.805  0.3221 -1.0770 -1.2518
   51DOPE    HB 6468   3.897   8.971   6.772  0.6950 -0.2415  1.7843
   51DOPE    C2 6469   3.873   9.159   6.872  0.8626 -0.0382 -0.1711
   51DOPE    HS 6470   3.909   9.264   6.871 -0.4042  0.5148 -3.9083
   51DOPE   O21 6471   3.885   9.092   6.993 -0.1248  0.5776 -0.3187
   51DOPE   C21 6472   3.877   9.174   7.101 -1.0320  0.3914  0.0577
   51DOPE   O22 6473   3.874   9.296   7.099 -0.3874  0.1688 -0.2636
   51DOPE   C22 6474   3.857   9.077   7.227  0.0118  0.2477  0.0243
   51DOPE   H2R 6475   3.947   9.012   7.233  0.0904  0.4509  1.4977
   51DOPE   H2S 6476   3.770   9.015   7.197  0.1253  0.1232 -0.0478
   51DOPE    C3 6477   3.721   9.178   6.834 -0.2116 -0.0782 -0.3155
   51DOPE    HX 6478   3.667   9.081   6.828  0.0784 -0.1976 -1.1168
   51DOPE    HY 6479   3.719   9.224   6.733 -1.6879 -1.2770 -0.8615
   51DOPE   O31 6480   3.664   9.270   6.927 -0.0531  0.2188  0.4903
   51DOPE   C31 6481   3.546   9.324   6.894 -0.2522 -0.7193  0.5454
   51DOPE   O32 6482   3.483   9.299   6.793  0.2495 -0.0935  0.0269
   51DOPE   C32 6483   3.515   9.421   7.012 -1.0908 -0.1602 -0.3554
   51DOPE   H2X 6484   3.486   9.375   7.109  2.0453  0.9217  1.2410
   51DOPE   H2Y 6485   3.616   9.465   7.022 -0.6646 -1.2704  0.3714
   51DOPE   C23 6486   3.831   9.162   7.354  0.4091 -0.0525  0.1851
   51DOPE   H3R 6487   3.909   9.240   7.358 -0.4700  0.8180  1.0186
   51DOPE   H3S 6488   3.832   9.098   7.445 -0.1857  0.3418  0.4744
   51DOPE   C24 6489   3.690   9.226   7.342  0.4242 -0.2109  0.3164
   51DOPE   H4R 6490   3.609   9.151   7.354  0.3799  0.0115  1.6040
   51DOPE   H4S 6491   3.669   9.279   7.247  1.0648 -0.9901 -0.2731
   51DOPE   C25 6492   3.672   9.334   7.450  0.0713  0.1251 -0.6201
   51DOPE   H5R 6493   3.762   9.398   7.437  0.6356 -0.9783 -2.5259
   51DOPE   H5S 6494   3.688   9.284   7.547 -0.9836  0.6964 -0.1369
   51DOPE   C26 6495   3.542   9.412   7.428 -0.1935  0.3768 -0.5215
   51DOPE   H6R 6496   3.458   9.339   7.427  2.0210 -2.3644  0.4489
   51DOPE   H6S 6497   3.571   9.460   7.332  5.0238  1.6896  1.3446
   51DOPE   C27 6498   3.513   9.511   7.543  0.1711 -0.5638 -0.0441
   51DOPE   H7R 6499   3.438   9.586   7.510 -0.6363 -0.2520  2.3187
   51DOPE   H7S 6500   3.612   9.553   7.570  0.9316 -0.7518 -2.3234
   51DOPE   C28 6501   3.456   9.438   7.662 -0.6957 -0.3027 -0.0457
   51DOPE   H8R 6502   3.472   9.506   7.748 -1.6342 -0.4521  0.2545
   51DOPE   H8S 6503   3.516   9.345   7.672  0.6668  0.6782  1.5751
   51DOPE   C29 6504   3.312   9.414   7.651  0.5217  0.3078 -0.3075
   51DOPE   H9R 6505   3.255   9.502   7.616 -2.6469 -0.2835  2.7362
   51DOPE  C210 6506   3.245   9.308   7.690 -0.0231  0.6671  0.6051
   51DOPE  H10R 6507   3.135   9.309   7.697 -0.0410  0.6691  0.3432
   51DOPE  C211 6508   3.309   9.183   7.756 -0.7296  0.1844  0.2305
   51DOPE  H11R 6509   3.408   9.200   7.804 -1.5670  2.0714  1.4211
   51DOPE  H11S 6510   3.322   9.101   7.682 -1.7779  0.0440  0.1864
   51DOPE  C212 6511   3.223   9.114   7.870  0.1065 -0.2191  0.1033
   51DOPE  H12R 6512   3.203   9.189   7.949 -0.9110 -0.4641  0.0909
   51DOPE  H12S 6513   3.295   9.037   7.905 -0.6736 -0.3641  1.4707
   51DOPE  C213 6514   3.095   9.045   7.826  0.4013  0.9020 -0.1453
   51DOPE  H13R 6515   3.038   9.126   7.776  1.5892  1.4353 -0.6936
   51DOPE  H13S 6516   3.034   9.011   7.912 -1.3904 -1.1118 -2.0800
   51DOPE  C214 6517   3.114   8.943   7.723  0.2205  0.2034  0.3857
   51DOPE  H14R 6518   3.172   8.852   7.752 -0.2506 -0.4134 -0.5457
   51DOPE  H14S 6519   3.170   8.981   7.635 -0.9348  3.4368  0.9188
   51DOPE  C215 6520   2.982   8.891   7.656  0.1290 -0.2414  1.2380
   51DOPE  H15R 6521   3.016   8.803   7.597  1.0659 -0.0799  1.5213
   51DOPE  H15S 6522   2.931   8.953   7.578 -0.3731 -2.7338 -0.5353
   51DOPE  C216 6523   2.881   8.839   7.761  0.0185 -0.6511  0.2959
   51DOPE  H16R 6524   2.844   8.919   7.829 -0.0498 -0.4841  0.0640
   51DOPE  H16S 6525   2.929   8.758   7.821  0.6061 -0.1558  0.4971
   51DOPE  C217 6526   2.757   8.777   7.694  0.5178 -0.6933 -0.8691
   51DOPE  H17R 6527   2.780   8.701   7.617  0.8919 -2.0108  0.5053
   51DOPE  H17S 6528   2.693   8.858   7.653 -0.5117 -0.2645  1.4210
   51DOPE  C218 6529   2.669   8.706   7.794  1.1044 -0.1765  0.3060
   51DOPE  H18R 6530   2.616   8.786   7.851  2.3822  0.5373  0.5126
   51DOPE  H18S 6531   2.729   8.643   7.863 -0.0584  0.5296  2.0433
   51DOPE  H18T 6532   2.584   8.648   7.751  1.1162  1.0010 -1.4160
   51DOPE   C33 6533   3.431   9.540   6.963 -0.2098  0.1241  0.3056
   51DOPE   H3X 6534   3.464   9.584   6.866  0.8975  0.6772  0.9075
   51DOPE   H3Y 6535   3.462   9.622   7.031  4.1653 -0.4582 -0.6582
   51DOPE   C34 6536   3.278   9.523   6.974  0.3590  0.3561  0.0893
   51DOPE   H4X 6537   3.236   9.626   6.963  2.0814  1.1729  0.9069
   51DOPE   H4Y 6538   3.236   9.468   6.887 -0.2573  0.4555  0.3165
   51DOPE   C35 6539   3.214   9.455   7.094 -0.6726 -0.2644 -1.1281
   51DOPE   H5X 6540   3.254   9.351   7.093  0.8176  0.2862 -0.9872
   51DOPE   H5Y 6541   3.105   9.444   7.071 -0.6179  1.0860 -2.0852
   51DOPE   C36 6542   3.225   9.521   7.233  0.4665  0.4453 -0.4050
   51DOPE   H6X 6543   3.329   9.523   7.270  1.5255 -4.3478 -2.2994
   51DOPE   H6Y 6544   3.176   9.443   7.295 -0.0857  0.7601 -0.4411
   51DOPE   C37 6545   3.157   9.658   7.232  0.7144  0.0502 -0.3231
   51DOPE   H7X 6546   3.226   9.718   7.168 -1.1137  0.4510 -2.0280
   51DOPE   H7Y 6547   3.057   9.660   7.183 -1.0900  0.5028  3.1244
   51DOPE   C38 6548   3.151   9.738   7.361 -0.1787 -0.2146 -1.0629
   51DOPE   H8X 6549   3.138   9.844   7.330  1.1352  1.0037  2.1190
   51DOPE   H8Y 6550   3.253   9.738   7.406 -0.4306  1.7894 -0.4248
   51DOPE   C39 6551   3.046   9.683   7.461  0.4770 -0.9255  0.8255
   51DOPE   H9X 6552   3.075   9.597   7.523 -1.1262 -1.9250  0.2642
   51DOPE  C310 6553   2.939   9.751   7.495  0.3382 -0.3711  0.4939
   51DOPE  H10X 6554   2.864   9.706   7.561 -0.9807  1.3073  0.2447
   51DOPE  C311 6555   2.908   9.887   7.432  0.6242 -0.1870  0.4532
   51DOPE  H11X 6556   2.937   9.886   7.324  2.0858 -1.3389  0.8136
   51DOPE  H11Y 6557   2.799   9.906   7.435  0.4998 -0.1448 -1.9057
   51DOPE  C312 6558   2.987   9.998   7.494 -0.1329 -0.0462  0.1498
   51DOPE  H12X 6559   3.092   9.985   7.462 -0.2227 -0.6935  0.1091
   51DOPE  H12Y 6560   2.987   9.993   7.605 -2.0660 -2.6804  0.1274
   51DOPE  C313 6561   2.954  10.138   7.447 -0.2421  0.1002 -0.2188
   51DOPE  H13X 6562   3.015  10.210   7.506 -0.6318 -0.3331  0.7426
   51DOPE  H13Y 6563   2.990  10.154   7.343 -3.2890 -2.1851 -1.7740
   51DOPE  C314 6564   2.808  10.176   7.454  0.1546 -0.9174 -0.5351
   51DOPE  H14X 6565   2.772  10.158   7.557  3.8518 -0.1637  1.0307
   51DOPE  H14Y 6566   2.759  10.126   7.367 -0.9855  2.0943 -1.7596
   51DOPE  C315 6567   2.789  10.327   7.425  0.1877 -0.4022  0.1273
   51DOPE  H15X 6568   2.848  10.340   7.331 -1.9653  1.8402 -1.0314
   51DOPE  H15Y 6569   2.821  10.397   7.505  0.1194  1.0895 -1.0863
   51DOPE  C316 6570   2.647  10.366   7.401  0.1098 -0.5539  0.3072
   51DOPE  H16X 6571   2.600  10.371   7.501 -0.2822 -2.4276  0.2594
   51DOPE  H16Y 6572   2.588  10.288   7.348  0.6842 -0.6351 -0.2310
   51DOPE  C317 6573   2.632  10.497   7.319 -0.0340 -0.4615  0.1169
   51DOPE  H17X 6574   2.681  10.580   7.375  1.4442 -1.6247  0.6144
   51DOPE  H17Y 6575   2.685  10.485   7.222  0.4542 -1.1945  0.4617
   51DOPE  C318 6576   2.483  10.536   7.292  0.2623 -0.8281 -0.5848
   51DOPE  H18X 6577   2.437  10.466   7.218 -0.3280 -1.0940  0.0235
   51DOPE  H18Y 6578   2.429  10.521   7.387  1.3063 -1.0708 -0.0131
   51DOPE  H18Z 6579   2.480  10.638   7.248  3.0293  0.4428  1.8453
   52DOPE     N 6580   0.421   3.774   6.090  0.6845  0.2151 -0.2892
   52DOPE   HN1 6581   0.342   3.812   6.033  1.5133  1.4216 -0.6713
   52DOPE   HN2 6582   0.471   3.857   6.129 -0.4555 -0.2001  2.2376
   52DOPE   HN3 6583   0.482   3.715   6.030 -0.2886 -1.0986 -0.0315
   52DOPE   C12 6584   0.376   3.699   6.219  1.4785  0.5590 -0.2487
   52DOPE  H12A 6585   0.467   3.667   6.274  0.6408 -1.0536  0.2743
   52DOPE  H12B 6586   0.313   3.611   6.194  0.2146  1.3749 -0.0533
   52DOPE   C11 6587   0.285   3.795   6.306  0.4996 -0.0482  0.4241
   52DOPE  H11A 6588   0.307   3.903   6.290 -1.8573  0.1552 -2.1391
   52DOPE  H11B 6589   0.323   3.779   6.410  1.2350  0.3777  0.2281
   52DOPE     P 6590   0.049   3.722   6.390  0.1392 -0.1815 -0.0421
   52DOPE   O13 6591   0.107   3.586   6.427  0.1838 -0.8959  0.0279
   52DOPE   O14 6592  -0.090   3.718   6.342  0.2109  0.7611 -0.1080
   52DOPE   O11 6593   0.050   3.814   6.513 -0.2496 -0.1333  0.1467
   52DOPE   O12 6594   0.143   3.781   6.285  0.0196  0.8472 -0.2396
   52DOPE    C1 6595   0.074   3.955   6.507 -0.0971  0.3438 -0.4397
   52DOPE    HA 6596   0.096   3.989   6.404  1.4396 -0.3582 -0.3690
   52DOPE    HB 6597   0.167   3.967   6.567 -1.0153 -3.0549  1.9852
   52DOPE    C2 6598  -0.040   4.039   6.556  0.7050 -0.0146 -0.0115
   52DOPE    HS 6599  -0.125   4.024   6.487 -1.3615  1.0412  2.1293
   52DOPE   O21 6600  -0.000   4.177   6.543  0.1553 -0.0981  0.0352
   52DOPE   C21 6601  -0.108   4.267   6.542  0.1271  0.5410  0.1906
   52DOPE   O22 6602  -0.223   4.233   6.541  0.4826  0.1256 -0.1203
   52DOPE   C22 6603  -0.037   4.403   6.527 -0.5339 -0.3554 -0.0004
   52DOPE   H2R 6604  -0.070   4.433   6.424 -0.8220 -0.9286 -0.0786
   52DOPE   H2S 6605   0.073   4.396   6.527 -0.2852  2.2245 -0.8469
   52DOPE    C3 6606  -0.082   4.009   6.706  0.6394  0.4312  0.3999
   52DOPE    HX 6607  -0.061   3.900   6.709 -1.4292 -0.0836 -1.2079
   52DOPE    HY 6608  -0.190   4.026   6.722  0.3490 -1.3039  0.5134
   52DOPE   O31 6609  -0.013   4.097   6.798  0.4288 -0.5590 -0.6150
   52DOPE   C31 6610   0.089   4.051   6.862 -0.1078  0.3705  0.2766
   52DOPE   O32 6611   0.122   3.936   6.871  0.0093  0.0658 -0.0654
   52DOPE   C32 6612   0.143   4.159   6.955 -0.2635 -0.0728  0.1853
   52DOPE   H2X 6613   0.179   4.245   6.893 -0.6078 -1.1513 -1.5869
   52DOPE   H2Y 6614   0.060   4.187   7.023 -1.7046 -0.4250 -1.3657
   52DOPE   C23 6615  -0.091   4.527   6.612  0.4015  1.3789  0.8908
   52DOPE   H3R 6616  -0.201   4.523   6.596  0.5571 -0.3636  0.0003
   52DOPE   H3S 6617  -0.047   4.612   6.557 -1.0028  2.8376  1.9205
   52DOPE   C24 6618  -0.038   4.525   6.749 -0.0617 -0.0095 -0.1188
   52DOPE   H4R 6619  -0.076   4.438   6.809 -0.7316  0.1900 -0.2453
   52DOPE   H4S 6620  -0.081   4.616   6.796 -0.1521  0.5204 -1.1962
   52DOPE   C25 6621   0.116   4.535   6.750 -0.1184  0.4689 -0.1087
   52DOPE   H5R 6622   0.141   4.630   6.698 -2.2819  1.4534  0.5142
   52DOPE   H5S 6623   0.160   4.447   6.699 -1.6180  0.4715 -1.5014
   52DOPE   C26 6624   0.183   4.545   6.891  0.2164 -0.7324 -0.7007
   52DOPE   H6R 6625   0.293   4.541   6.879  0.1481  1.0072 -2.3566
   52DOPE   H6S 6626   0.147   4.458   6.950  0.4105 -0.3821 -0.0583
   52DOPE   C27 6627   0.147   4.672   6.972  0.5064 -0.1928  0.1363
   52DOPE   H7R 6628   0.055   4.649   7.029  0.0468  0.7204 -0.2139
   52DOPE   H7S 6629   0.119   4.755   6.904 -0.3404 -0.3694  0.2658
   52DOPE   C28 6630   0.239   4.720   7.079  0.2788  0.4944  0.3308
   52DOPE   H8R 6631   0.185   4.810   7.116 -1.5791  0.3190 -1.7145
   52DOPE   H8S 6632   0.335   4.751   7.034 -1.3830  1.3618 -2.9609
   52DOPE   C29 6633   0.252   4.616   7.187  0.8844  0.0455 -0.3012
   52DOPE   H9R 6634   0.310   4.529   7.154  0.4826 -1.1822  2.0199
   52DOPE  C210 6635   0.210   4.610   7.310  0.4198 -0.2332 -0.3173
   52DOPE  H10R 6636   0.224   4.516   7.364 -1.3617  0.1103  0.8522
   52DOPE  C211 6637   0.132   4.707   7.391  0.5922 -0.3366  0.1709
   52DOPE  H11R 6638   0.084   4.648   7.472  0.2333 -0.2971 -0.0110
   52DOPE  H11S 6639   0.056   4.768   7.337 -1.6803 -2.2270  1.1129
   52DOPE  C212 6640   0.224   4.809   7.470  0.3648 -0.5118  1.0229
   52DOPE  H12R 6641   0.261   4.881   7.394 -2.3265 -0.0805 -0.0006
   52DOPE  H12S 6642   0.306   4.753   7.519 -0.9385 -3.1949  0.3745
   52DOPE  C213 6643   0.150   4.892   7.578  0.2273  0.8815 -0.1561
   52DOPE  H13R 6644   0.042   4.897   7.553 -0.9238 -0.8403  3.6849
   52DOPE  H13S 6645   0.202   4.989   7.583 -1.3361  1.8583 -1.6556
   52DOPE  C214 6646   0.154   4.819   7.716  0.1154 -0.0260 -0.1793
   52DOPE  H14R 6647   0.262   4.810   7.738 -0.3113 -1.2757  1.6445
   52DOPE  H14S 6648   0.110   4.718   7.705 -0.1604  0.2334 -1.6391
   52DOPE  C215 6649   0.082   4.892   7.827  0.3425 -0.1993  0.2808
   52DOPE  H15R 6650  -0.028   4.884   7.812  0.3538 -0.3764  0.2934
   52DOPE  H15S 6651   0.105   5.001   7.831 -1.2116  0.2469 -1.4522
   52DOPE  C216 6652   0.107   4.819   7.960  0.8201 -0.3797 -0.0040
   52DOPE  H16R 6653   0.212   4.836   7.994  0.4517 -1.2590  1.7040
   52DOPE  H16S 6654   0.094   4.712   7.933  0.5405  0.0334 -1.6294
   52DOPE  C217 6655   0.006   4.865   8.062  0.9234 -0.0115 -1.0658
   52DOPE  H17R 6656  -0.089   4.810   8.043  0.1657 -0.0209  2.1272
   52DOPE  H17S 6657  -0.004   4.974   8.043  1.3581 -0.1915 -2.4065
   52DOPE  C218 6658   0.042   4.838   8.210 -0.0068 -0.8791  0.1760
   52DOPE  H18R 6659   0.090   4.739   8.221 -0.8673 -1.6318 -2.2391
   52DOPE  H18S 6660   0.105   4.919   8.253  0.5354 -0.6946 -0.9459
   52DOPE  H18T 6661  -0.046   4.837   8.278  0.9278  1.1581  1.5130
   52DOPE   C33 6662   0.251   4.120   7.056 -0.1018  0.5665  0.6175
   52DOPE   H3X 6663   0.345   4.091   7.004 -0.9344 -0.8964 -0.1387
   52DOPE   H3Y 6664   0.227   4.033   7.120  0.0225  1.1836  1.5218
   52DOPE   C34 6665   0.281   4.235   7.156  0.5971  0.1111  0.5066
   52DOPE   H4X 6666   0.330   4.316   7.098  0.3201 -0.1444 -0.0834
   52DOPE   H4Y 6667   0.191   4.277   7.205  1.2817  0.7889  1.2125
   52DOPE   C35 6668   0.384   4.186   7.268  0.2349  0.2062 -0.1344
   52DOPE   H5X 6669   0.473   4.139   7.220 -0.8076  0.9618 -2.9397
   52DOPE   H5Y 6670   0.337   4.099   7.320  0.3933 -0.4139 -1.0071
   52DOPE   C36 6671   0.419   4.293   7.371  1.0952  0.3376  0.1391
   52DOPE   H6X 6672   0.325   4.329   7.420  0.3881 -0.3021 -0.7199
   52DOPE   H6Y 6673   0.459   4.385   7.323 -0.8884  1.6651  0.8928
   52DOPE   C37 6674   0.518   4.255   7.483 -0.3478  0.0337 -0.4018
   52DOPE   H7X 6675   0.531   4.145   7.494  0.1357  0.1889  0.6238
   52DOPE   H7Y 6676   0.616   4.301   7.459 -0.2140  0.6383  1.2054
   52DOPE   C38 6677   0.502   4.310   7.626 -0.2331 -0.2337  0.6797
   52DOPE   H8X 6678   0.503   4.421   7.626  0.9980 -0.2323  0.0633
   52DOPE   H8Y 6679   0.591   4.276   7.684 -0.1932 -0.1126  0.6894
   52DOPE   C39 6680   0.378   4.240   7.685  0.6934 -0.4358 -0.6611
   52DOPE   H9X 6681   0.349   4.146   7.635 -2.1721  0.2198 -0.4235
   52DOPE  C310 6682   0.292   4.302   7.773  0.0431  0.0298  0.2388
   52DOPE  H10X 6683   0.205   4.247   7.813  0.4422  0.1937  1.3697
   52DOPE  C311 6684   0.308   4.440   7.828  0.5637  0.2916  0.1502
   52DOPE  H11X 6685   0.359   4.508   7.756  1.1607  0.1685  0.4562
   52DOPE  H11Y 6686   0.212   4.487   7.857 -0.0812 -1.6409  1.3297
   52DOPE  C312 6687   0.389   4.438   7.961 -0.6060 -0.3229 -0.4175
   52DOPE  H12X 6688   0.427   4.538   7.991  1.4793 -1.4760  1.0301
   52DOPE  H12Y 6689   0.485   4.392   7.931  0.3747  0.5872  1.1684
   52DOPE  C313 6690   0.327   4.365   8.079  0.3040 -0.1505  0.0011
   52DOPE  H13X 6691   0.236   4.417   8.118 -1.6004 -2.7111 -0.7530
   52DOPE  H13Y 6692   0.293   4.267   8.041  1.9036 -2.0883  3.1373
   52DOPE  C314 6693   0.430   4.352   8.190 -0.0357  0.1298 -0.2785
   52DOPE  H14X 6694   0.470   4.449   8.226 -1.6595  0.9242 -0.5047
   52DOPE  H14Y 6695   0.523   4.304   8.155 -0.2008  0.6771 -1.5208
   52DOPE  C315 6696   0.378   4.274   8.316 -0.6409  0.2132 -0.8216
   52DOPE  H15X 6697   0.355   4.167   8.298 -1.3401 -0.2224  2.1317
   52DOPE  H15Y 6698   0.281   4.321   8.340 -1.1512 -1.1795 -0.0177
   52DOPE  C316 6699   0.469   4.277   8.438 -0.4665 -0.4267 -0.3364
   52DOPE  H16X 6700   0.506   4.381   8.453 -1.9067 -0.3256  3.5837
   52DOPE  H16Y 6701   0.556   4.208   8.437  0.7535  0.9881  1.5126
   52DOPE  C317 6702   0.380   4.236   8.563 -0.0807  0.2577  0.4050
   52DOPE  H17X 6703   0.303   4.315   8.578 -0.3181  0.0609  0.2150
   52DOPE  H17Y 6704   0.333   4.142   8.525 -0.1095  0.4332 -0.0016
   52DOPE  C318 6705   0.457   4.217   8.695 -0.0590  0.6415  0.7460
   52DOPE  H18X 6706   0.383   4.191   8.774 -2.0664  2.8047 -0.3145
   52DOPE  H18Y 6707   0.528   4.132   8.687 -0.5939  0.1680  0.9521
   52DOPE  H18Z 6708   0.520   4.307   8.713 -1.5720  1.7391  0.7487
   53DOPE     N 6709   6.667   7.064   6.451 -0.2571 -0.0787 -0.1156
   53DOPE   HN1 6710   6.590   7.093   6.388 -2.2800 -0.6234  1.9662
   53DOPE   HN2 6711   6.707   7.148   6.497  2.5706 -1.6199  0.4555
   53DOPE   HN3 6712   6.744   7.024   6.393 -0.1146 -0.0847  0.0782
   53DOPE   C12 6713   6.616   6.970   6.555 -0.2491  0.1485  0.3116
   53DOPE  H12A 6714   6.595   6.871   6.509  0.0243 -0.1097  0.7374
   53DOPE  H12B 6715   6.529   7.027   6.594  0.9287  1.7052  0.7812
   53DOPE   C11 6716   6.716   6.956   6.662  0.2424 -0.0684  0.5957
   53DOPE  H11A 6717   6.664   6.891   6.735  0.8338 -1.1409  0.0855
   53DOPE  H11B 6718   6.751   7.041   6.724  0.3802 -0.9015  1.6783
   53DOPE     P 6719   6.888   6.761   6.673 -0.0614 -0.0578 -0.3307
   53DOPE   O13 6720   7.005   6.733   6.586 -0.6202  0.1951 -0.2392
   53DOPE   O14 6721   6.784   6.660   6.679  0.7554 -0.1603 -0.0772
   53DOPE   O11 6722   6.926   6.814   6.815  0.0763  0.4127  0.1972
   53DOPE   O12 6723   6.837   6.896   6.612 -0.2666 -0.1214 -0.5647
   53DOPE    C1 6724   6.944   6.716   6.921  0.1980 -0.5921 -0.3454
   53DOPE    HA 6725   7.054   6.706   6.932  0.4274 -0.4755 -2.2673
   53DOPE    HB 6726   6.908   6.616   6.889  0.4335 -0.5813 -0.6491
   53DOPE    C2 6727   6.882   6.757   7.055 -0.0825 -0.2218  0.5155
   53DOPE    HS 6728   6.773   6.744   7.045 -0.4875  1.5198  2.0852
   53DOPE   O21 6729   6.921   6.894   7.086  0.3767 -0.2287  0.3347
   53DOPE   C21 6730   6.825   6.983   7.051 -0.2817  0.2706  0.9274
   53DOPE   O22 6731   6.715   6.957   7.004  0.1118 -0.4739 -0.1547
   53DOPE   C22 6732   6.882   7.127   7.062  0.5350 -0.1521 -0.0326
   53DOPE   H2R 6733   6.956   7.141   6.981 -0.0984 -1.9566 -0.9803
   53DOPE   H2S 6734   6.949   7.123   7.151  2.5019 -1.7884 -1.4997
   53DOPE    C3 6735   6.921   6.667   7.170  0.5594 -0.2727  0.1533
   53DOPE    HX 6736   6.843   6.688   7.246 -1.8824 -0.8605 -2.0437
   53DOPE    HY 6737   7.020   6.700   7.209  0.2371  2.2827 -0.9486
   53DOPE   O31 6738   6.904   6.531   7.136  0.2074 -0.0790  0.0726
   53DOPE   C31 6739   6.958   6.445   7.228 -0.8152  0.5566 -0.1933
   53DOPE   O32 6740   6.998   6.475   7.336  0.9455  0.2917 -0.1225
   53DOPE   C32 6741   6.969   6.298   7.167  0.1369 -0.6574 -0.2833
   53DOPE   H2X 6742   6.864   6.263   7.161  0.0782 -0.2290 -3.0390
   53DOPE   H2Y 6743   6.996   6.309   7.060  0.0236 -1.3928 -0.3890
   53DOPE   C23 6744   6.776   7.240   7.064  0.1413 -0.2672 -0.6262
   53DOPE   H3R 6745   6.699   7.227   7.143 -0.1552 -0.7443 -0.9890
   53DOPE   H3S 6746   6.731   7.252   6.964 -0.8999 -4.7986 -0.8891
   53DOPE   C24 6747   6.857   7.375   7.101  0.0949  0.4475  0.0553
   53DOPE   H4R 6748   6.902   7.407   7.004 -1.5003  0.1321 -0.8233
   53DOPE   H4S 6749   6.936   7.357   7.177 -0.0688  0.5075  0.2420
   53DOPE   C25 6750   6.767   7.490   7.155  0.1121 -0.8859 -0.5453
   53DOPE   H5R 6751   6.829   7.575   7.191 -0.8664 -0.7075  0.8026
   53DOPE   H5S 6752   6.685   7.465   7.226 -0.8747  1.6486 -0.6657
   53DOPE   C26 6753   6.686   7.544   7.035  0.2808  0.9320  0.1023
   53DOPE   H6R 6754   6.623   7.462   6.994  1.0702  1.1044 -1.5507
   53DOPE   H6S 6755   6.753   7.579   6.953  0.4651  1.2326  0.3809
   53DOPE   C27 6756   6.595   7.661   7.067 -0.2102 -0.1379 -0.4260
   53DOPE   H7R 6757   6.599   7.725   6.976  2.4992 -1.0457 -1.0449
   53DOPE   H7S 6758   6.641   7.716   7.151  2.0680 -0.3065 -1.4997
   53DOPE   C28 6759   6.455   7.611   7.091  0.3483 -0.1782  0.6641
   53DOPE   H8R 6760   6.475   7.514   7.142  1.2516  0.9543  2.5916
   53DOPE   H8S 6761   6.400   7.588   6.997  0.6252 -0.0410  0.4685
   53DOPE   C29 6762   6.378   7.702   7.181 -0.8382  0.9432  0.7955
   53DOPE   H9R 6763   6.359   7.798   7.131  1.1072  1.2185  0.5262
   53DOPE  C210 6764   6.343   7.684   7.305 -0.3905 -0.5567 -0.1988
   53DOPE  H10R 6765   6.282   7.765   7.348  0.6279  0.4826 -0.6492
   53DOPE  C211 6766   6.373   7.565   7.393  0.2610 -0.3980  0.1229
   53DOPE  H11R 6767   6.390   7.470   7.339 -0.5642 -0.3238 -0.2833
   53DOPE  H11S 6768   6.277   7.543   7.445  0.1110 -1.4035 -0.5670
   53DOPE  C212 6769   6.488   7.592   7.491  0.0066  0.1570 -0.3055
   53DOPE  H12R 6770   6.471   7.684   7.552  0.0815  0.8524 -1.3151
   53DOPE  H12S 6771   6.582   7.596   7.432 -0.1651 -1.9216 -0.7878
   53DOPE  C213 6772   6.497   7.479   7.596  0.0999 -0.1907 -0.3175
   53DOPE  H13R 6773   6.400   7.469   7.648 -0.1211  1.5874 -0.3290
   53DOPE  H13S 6774   6.573   7.504   7.674 -0.4242  2.1120 -0.4551
   53DOPE  C214 6775   6.534   7.336   7.549  0.1193  0.1342  0.6700
   53DOPE  H14R 6776   6.476   7.307   7.459 -2.2888 -1.3143  2.5685
   53DOPE  H14S 6777   6.491   7.261   7.619 -2.1739 -0.2566 -1.0421
   53DOPE  C215 6778   6.683   7.307   7.520  0.0623 -0.3192 -0.1371
   53DOPE  H15R 6779   6.732   7.319   7.619  0.6600 -0.2534 -0.4357
   53DOPE  H15S 6780   6.725   7.390   7.459 -2.0979  0.2586 -0.9157
   53DOPE  C216 6781   6.707   7.160   7.473  0.1554 -0.0950 -0.0618
   53DOPE  H16R 6782   6.695   7.142   7.364 -0.2962  0.0255 -0.0349
   53DOPE  H16S 6783   6.655   7.083   7.532  0.1789  0.4936  0.7411
   53DOPE  C217 6784   6.854   7.127   7.483 -0.5840  0.0642  0.6369
   53DOPE  H17R 6785   6.876   7.138   7.591  1.0267  0.9681  0.2346
   53DOPE  H17S 6786   6.908   7.210   7.434  0.8642 -0.6675  0.9455
   53DOPE  C218 6787   6.896   6.990   7.430  0.2871 -0.3191  0.5479
   53DOPE  H18R 6788   7.003   6.963   7.448  1.5874  3.6614 -0.1421
   53DOPE  H18S 6789   6.888   6.997   7.320 -0.9091 -2.1182  0.4772
   53DOPE  H18T 6790   6.823   6.915   7.467 -1.6671  1.1907 -0.1154
   53DOPE   C33 6791   7.046   6.210   7.267 -0.4116  0.6621 -0.2033
   53DOPE   H3X 6792   6.985   6.189   7.358  0.5597 -1.8779 -0.0741
   53DOPE   H3Y 6793   7.140   6.260   7.298 -1.4212  2.7736 -0.3900
   53DOPE   C34 6794   7.071   6.072   7.196  0.2752 -0.3521 -0.5573
   53DOPE   H4X 6795   7.133   6.098   7.107 -0.7738  2.0783 -0.6418
   53DOPE   H4Y 6796   7.126   6.011   7.272 -1.2616  0.7252  1.5055
   53DOPE   C35 6797   6.950   6.003   7.142  0.4213  0.1835  0.2885
   53DOPE   H5X 6798   6.984   5.916   7.082 -0.2135  0.2844 -0.2289
   53DOPE   H5Y 6799   6.897   6.056   7.060  0.4389 -0.5809 -0.2296
   53DOPE   C36 6800   6.855   5.959   7.256 -0.1800  0.1662  0.3483
   53DOPE   H6X 6801   6.823   6.047   7.316  1.8123  3.0762 -2.5118
   53DOPE   H6Y 6802   6.918   5.899   7.326  1.3509  2.8179  1.4128
   53DOPE   C37 6803   6.720   5.899   7.211 -1.0708 -0.3845  0.3863
   53DOPE   H7X 6804   6.673   5.971   7.140 -1.1966 -0.6296  0.2180
   53DOPE   H7Y 6805   6.754   5.807   7.158  2.2953  1.4846 -1.0000
   53DOPE   C38 6806   6.619   5.869   7.312  0.5845  0.1891  0.2535
   53DOPE   H8X 6807   6.520   5.841   7.269  1.5935 -0.2776 -1.8844
   53DOPE   H8Y 6808   6.612   5.967   7.363  1.8180 -0.0773  0.9654
   53DOPE   C39 6809   6.659   5.761   7.412 -0.6553 -0.2436 -0.2615
   53DOPE   H9X 6810   6.684   5.668   7.359  0.8161 -0.2695  0.4327
   53DOPE  C310 6811   6.682   5.774   7.540 -0.2073 -1.0124  0.3134
   53DOPE  H10X 6812   6.710   5.688   7.602 -0.7870 -1.1024  0.4562
   53DOPE  C311 6813   6.677   5.905   7.613 -0.2030 -0.1116 -0.4980
   53DOPE  H11X 6814   6.758   5.977   7.589 -1.3168  0.8659 -1.4666
   53DOPE  H11Y 6815   6.583   5.958   7.585  0.1223  0.9268  0.3202
   53DOPE  C312 6816   6.670   5.875   7.770 -0.1700  0.9205  0.5411
   53DOPE  H12X 6817   6.769   5.828   7.789  0.1150 -0.5271 -3.5173
   53DOPE  H12Y 6818   6.580   5.819   7.802 -0.1291  1.5295  1.7594
   53DOPE  C313 6819   6.671   6.007   7.846  0.3354 -0.5849  0.0340
   53DOPE  H13X 6820   6.764   6.064   7.827 -0.4820  0.6040 -0.4734
   53DOPE  H13Y 6821   6.582   6.064   7.812  0.6108  0.7832  1.5121
   53DOPE  C314 6822   6.667   5.995   8.001 -0.5878 -0.4705 -0.1295
   53DOPE  H14X 6823   6.691   6.098   8.033  0.8131 -0.7450 -0.2503
   53DOPE  H14Y 6824   6.749   5.927   8.033  2.2257  2.6113 -0.2512
   53DOPE  C315 6825   6.531   5.961   8.053 -0.4328  0.4557  0.2756
   53DOPE  H15X 6826   6.510   5.861   8.008  0.6102  2.1199 -4.5068
   53DOPE  H15Y 6827   6.457   6.034   8.016  0.4585  1.0878 -0.2751
   53DOPE  C316 6828   6.527   5.959   8.205  0.0864 -0.2784 -0.3855
   53DOPE  H16X 6829   6.569   6.058   8.235 -2.5199  1.1977 -1.2396
   53DOPE  H16Y 6830   6.592   5.876   8.239  0.1357  0.3961  1.2960
   53DOPE  C317 6831   6.391   5.956   8.263  0.4576 -0.2898 -0.2474
   53DOPE  H17X 6832   6.336   6.046   8.226 -0.2651 -0.0956  1.2131
   53DOPE  H17Y 6833   6.327   5.870   8.235 -1.3763  1.1424 -0.6637
   53DOPE  C318 6834   6.389   5.949   8.411  0.6257 -0.2590 -0.1195
   53DOPE  H18X 6835   6.430   5.852   8.445 -0.9520 -0.2733  1.9498
   53DOPE  H18Y 6836   6.435   6.028   8.475 -1.3040 -0.1575  1.2129
   53DOPE  H18Z 6837   6.281   5.947   8.438  0.6346  0.2599 -0.0333
   54DOPE     N 6838   2.177   3.502   6.121  0.2274 -0.7219  0.0113
   54DOPE   HN1 6839   2.115   3.419   6.128  0.4465 -0.8757  0.1643
   54DOPE   HN2 6840   2.259   3.474   6.063  0.2971 -0.2422 -0.1257
   54DOPE   HN3 6841   2.221   3.547   6.205  4.4195  1.7610 -3.1002
   54DOPE   C12 6842   2.123   3.617   6.044 -0.6405 -0.4435 -0.5902
   54DOPE  H12A 6843   2.067   3.579   5.956 -0.1703  2.2869 -2.1503
   54DOPE  H12B 6844   2.213   3.671   6.009 -0.3764  0.2851  1.1304
   54DOPE   C11 6845   2.032   3.700   6.139 -0.4979 -0.0229 -0.0640
   54DOPE  H11A 6846   1.983   3.778   6.076 -2.5436 -0.1215  1.3125
   54DOPE  H11B 6847   2.104   3.750   6.208  0.7034 -1.3091 -0.3579
   54DOPE     P 6848   1.786   3.643   6.201 -0.4640 -0.2455  0.2127
   54DOPE   O13 6849   1.717   3.550   6.295 -0.1826 -0.7498  0.2508
   54DOPE   O14 6850   1.739   3.642   6.057 -0.9856  0.2840 -0.3177
   54DOPE   O11 6851   1.774   3.794   6.250  0.0660  0.2560 -0.3157
   54DOPE   O12 6852   1.941   3.619   6.208  0.7628  0.0343  0.0391
   54DOPE    C1 6853   1.849   3.837   6.368  0.5383 -0.4098  0.1199
   54DOPE    HA 6854   1.880   3.942   6.349  0.8112 -0.6582 -0.8265
   54DOPE    HB 6855   1.942   3.786   6.401  1.0431  1.5192  1.8616
   54DOPE    C2 6856   1.763   3.853   6.494  0.7576  0.2649  0.3069
   54DOPE    HS 6857   1.718   3.753   6.511  2.4462 -0.2187  2.2361
   54DOPE   O21 6858   1.669   3.961   6.466  0.1080 -0.1809 -0.8438
   54DOPE   C21 6859   1.558   3.933   6.535  0.8335 -0.5452  1.1028
   54DOPE   O22 6860   1.524   3.838   6.595  0.0158  0.3874 -0.4338
   54DOPE   C22 6861   1.461   4.059   6.523 -0.3145  0.5924  0.7728
   54DOPE   H2R 6862   1.364   4.012   6.550 -0.7855  1.2956  0.3258
   54DOPE   H2S 6863   1.446   4.082   6.416 -0.0198  0.8276  0.7825
   54DOPE    C3 6864   1.844   3.892   6.625 -0.1985  0.3043 -0.0017
   54DOPE    HX 6865   1.864   4.001   6.617 -0.4684  0.3547  0.0085
   54DOPE    HY 6866   1.940   3.837   6.617 -0.2735  0.4492 -4.1150
   54DOPE   O31 6867   1.764   3.868   6.741  0.4393  0.0878 -0.0525
   54DOPE   C31 6868   1.777   3.749   6.798  0.0805  0.3401  0.5709
   54DOPE   O32 6869   1.855   3.661   6.756 -0.4253 -0.0398  0.4147
   54DOPE   C32 6870   1.679   3.726   6.918 -0.7433  0.4037 -0.8894
   54DOPE   H2X 6871   1.734   3.769   7.004  1.8809 -1.7509 -1.3334
   54DOPE   H2Y 6872   1.592   3.792   6.896  1.0443  2.6591 -1.6559
   54DOPE   C23 6873   1.482   4.180   6.613 -0.7127 -0.4552 -0.2123
   54DOPE   H3R 6874   1.405   4.255   6.584 -2.3476 -2.2812 -0.8477
   54DOPE   H3S 6875   1.580   4.229   6.600 -1.5095  1.2545  0.0438
   54DOPE   C24 6876   1.477   4.149   6.768  0.0991  0.3359 -0.0798
   54DOPE   H4R 6877   1.508   4.240   6.824  0.6718  0.4051 -0.4927
   54DOPE   H4S 6878   1.548   4.068   6.793  1.7341  0.9598 -2.3887
   54DOPE   C25 6879   1.343   4.102   6.827 -0.2245 -0.0581 -0.0030
   54DOPE   H5R 6880   1.298   4.004   6.800 -2.1812  0.2642  1.8054
   54DOPE   H5S 6881   1.256   4.170   6.825 -0.0513  0.3596  2.5580
   54DOPE   C26 6882   1.360   4.084   6.982 -0.1041  1.2884  0.6203
   54DOPE   H6R 6883   1.378   4.189   7.012  1.9911  1.9785 -2.6014
   54DOPE   H6S 6884   1.444   4.014   7.004 -2.1839 -2.2262 -1.6743
   54DOPE   C27 6885   1.229   4.037   7.053 -0.1264 -0.2427 -0.4232
   54DOPE   H7R 6886   1.143   4.085   7.001 -2.5156 -0.8218  2.6682
   54DOPE   H7S 6887   1.237   4.068   7.160 -1.5339 -0.6444 -0.1757
   54DOPE   C28 6888   1.225   3.887   7.038  0.6984 -0.0904 -0.0613
   54DOPE   H8R 6889   1.326   3.842   7.048  1.1479  0.7097 -0.8195
   54DOPE   H8S 6890   1.205   3.862   6.931 -0.1782  0.3028 -0.0002
   54DOPE   C29 6891   1.111   3.815   7.114 -0.2181 -0.5522  0.3108
   54DOPE   H9R 6892   1.014   3.819   7.062  1.0467 -1.5950 -2.2898
   54DOPE  C210 6893   1.124   3.745   7.229  0.2425  0.1452 -0.2251
   54DOPE  H10R 6894   1.034   3.690   7.262  1.0490 -0.7185  0.6176
   54DOPE  C211 6895   1.246   3.725   7.317  0.1783 -0.9317  0.1227
   54DOPE  H11R 6896   1.327   3.793   7.283 -1.6947  0.8846 -0.9360
   54DOPE  H11S 6897   1.293   3.625   7.311  1.5354 -0.2971 -0.3999
   54DOPE  C212 6898   1.211   3.776   7.460  0.2985  0.8673  0.4553
   54DOPE  H12R 6899   1.115   3.730   7.489  1.1158 -3.6000 -2.8094
   54DOPE  H12S 6900   1.196   3.886   7.457  1.3354  1.0121 -1.9571
   54DOPE  C213 6901   1.320   3.740   7.561  0.6936 -0.3143 -0.2773
   54DOPE  H13R 6902   1.412   3.791   7.527  1.0521 -0.3393  0.6110
   54DOPE  H13S 6903   1.331   3.629   7.554 -2.7452 -0.6837 -1.3951
   54DOPE  C214 6904   1.289   3.776   7.712 -0.0301 -0.4999 -0.0540
   54DOPE  H14R 6905   1.257   3.881   7.726 -2.4157 -1.0904 -0.5697
   54DOPE  H14S 6906   1.376   3.757   7.779 -1.1174 -0.2748  1.4891
   54DOPE  C215 6907   1.192   3.687   7.788 -0.4108  0.2198  0.4705
   54DOPE  H15R 6908   1.231   3.583   7.774  0.3811  0.7224 -1.3247
   54DOPE  H15S 6909   1.096   3.703   7.734 -1.1936  0.7305  1.9567
   54DOPE  C216 6910   1.171   3.720   7.935 -1.0128  0.3446 -0.9237
   54DOPE  H16R 6911   1.154   3.829   7.950 -1.4465  0.3897 -1.7020
   54DOPE  H16S 6912   1.258   3.686   7.995 -2.5846 -1.0487  0.6706
   54DOPE  C217 6913   1.043   3.653   7.990 -0.1469  0.0232 -0.2238
   54DOPE  H17R 6914   1.060   3.546   8.017  0.8465 -0.1980 -1.6464
   54DOPE  H17S 6915   0.969   3.653   7.908 -1.3389 -0.7027  0.8119
   54DOPE  C218 6916   0.986   3.714   8.118  0.0463 -0.0127 -0.1207
   54DOPE  H18R 6917   0.897   3.656   8.150 -0.5835  0.9078 -0.1519
   54DOPE  H18S 6918   0.947   3.816   8.098 -0.2743 -0.2629 -0.8025
   54DOPE  H18T 6919   1.070   3.719   8.189 -0.4874  0.5894  0.4821
   54DOPE   C33 6920   1.643   3.583   6.938 -0.4036 -0.3864 -0.7657
   54DOPE   H3X 6921   1.736   3.530   6.968 -0.7643 -0.2580  0.6400
   54DOPE   H3Y 6922   1.600   3.533   6.848 -0.0766  0.7730 -1.5846
   54DOPE   C34 6923   1.546   3.553   7.052 -0.3108  0.4624 -0.3918
   54DOPE   H4X 6924   1.578   3.600   7.147 -1.9649 -0.1693  0.5211
   54DOPE   H4Y 6925   1.448   3.600   7.031 -0.4725  0.6753  0.7709
   54DOPE   C35 6926   1.530   3.400   7.062 -0.1647 -0.7649 -0.0220
   54DOPE   H5X 6927   1.629   3.355   7.086 -1.1667 -3.1393 -0.0367
   54DOPE   H5Y 6928   1.510   3.355   6.962  3.1132  0.2318 -1.2432
   54DOPE   C36 6929   1.419   3.366   7.169 -0.6845  0.1152  0.7028
   54DOPE   H6X 6930   1.441   3.412   7.267 -0.1378 -0.3102  0.7869
   54DOPE   H6Y 6931   1.422   3.255   7.177  1.2805  0.1600  1.0408
   54DOPE   C37 6932   1.278   3.396   7.103 -0.9573  0.4829  0.3601
   54DOPE   H7X 6933   1.247   3.503   7.098 -0.6687  0.5441 -0.2228
   54DOPE   H7Y 6934   1.296   3.357   7.001 -0.5168  0.7320  0.3403
   54DOPE   C38 6935   1.163   3.306   7.142  0.3020 -0.4639  0.1710
   54DOPE   H8X 6936   1.206   3.207   7.114 -0.4237 -0.5456 -0.7079
   54DOPE   H8Y 6937   1.071   3.315   7.081  0.8202 -0.7046 -0.6782
   54DOPE   C39 6938   1.137   3.320   7.292 -0.0869 -0.5840 -0.0083
   54DOPE   H9X 6939   1.119   3.426   7.314  1.3051 -0.2394 -0.4807
   54DOPE  C310 6940   1.141   3.229   7.387  0.4894 -0.0696  0.0275
   54DOPE  H10X 6941   1.122   3.261   7.491  1.0830 -1.8687  0.7272
   54DOPE  C311 6942   1.154   3.085   7.364  0.1231 -0.4221  0.4441
   54DOPE  H11X 6943   1.104   3.032   7.448  1.8404 -0.2474  1.6271
   54DOPE  H11Y 6944   1.122   3.060   7.261  1.5980  0.5145 -0.2626
   54DOPE  C312 6945   1.289   3.018   7.381  0.6620  0.9140 -0.8178
   54DOPE  H12X 6946   1.359   3.067   7.310  1.5979  0.2133 -0.3889
   54DOPE  H12Y 6947   1.292   2.911   7.351 -1.6223  1.2364 -2.4903
   54DOPE  C313 6948   1.346   3.032   7.523 -0.3468  0.8844 -0.8431
   54DOPE  H13X 6949   1.365   3.140   7.538  0.3903  0.9572 -2.0920
   54DOPE  H13Y 6950   1.285   2.987   7.604  0.0897  0.6853 -0.6266
   54DOPE  C314 6951   1.483   2.963   7.529 -0.8704  0.0913  1.3777
   54DOPE  H14X 6952   1.550   2.995   7.446  0.1636 -2.4619  1.1187
   54DOPE  H14Y 6953   1.457   2.855   7.524  1.5257 -0.6050  2.3100
   54DOPE  C315 6954   1.561   2.993   7.659  0.2876  0.0229 -0.1293
   54DOPE  H15X 6955   1.501   2.987   7.752  1.4282 -2.9106  0.5391
   54DOPE  H15Y 6956   1.595   3.098   7.645  0.2113 -0.1473 -1.7557
   54DOPE  C316 6957   1.686   2.908   7.679  0.3563  0.9027 -0.4489
   54DOPE  H16X 6958   1.729   2.892   7.578 -1.2138 -3.0759 -0.6494
   54DOPE  H16Y 6959   1.654   2.813   7.727 -1.8654  0.4710 -2.5803
   54DOPE  C317 6960   1.792   2.972   7.768 -0.5004 -0.5255 -0.6455
   54DOPE  H17X 6961   1.884   2.916   7.740 -1.0481 -1.9034  0.2583
   54DOPE  H17Y 6962   1.809   3.076   7.732 -1.2818 -0.5171 -1.0039
   54DOPE  C318 6963   1.764   2.973   7.917 -0.5876 -0.2384 -0.1008
   54DOPE  H18X 6964   1.848   3.008   7.981 -1.4026 -0.1847  0.9569
   54DOPE  H18Y 6965   1.666   3.013   7.950  0.4039  0.5001  2.1420
   54DOPE  H18Z 6966   1.760   2.865   7.940 -2.9553 -0.3160 -0.6101
   55DOPE     N 6967   3.247   7.092   6.894 -0.2370 -0.2018  0.2904
   55DOPE   HN1 6968   3.183   7.116   6.815  0.7368 -1.9090 -1.0792
   55DOPE   HN2 6969   3.301   7.180   6.906  0.3531 -0.7482  1.9182
   55DOPE   HN3 6970   3.310   7.019   6.855 -0.9058 -0.8358  0.3847
   55DOPE   C12 6971   3.163   7.038   7.012  0.0809  0.5185  0.0625
   55DOPE  H12A 6972   3.108   7.122   7.059  1.7798  1.9166 -0.3090
   55DOPE  H12B 6973   3.243   7.020   7.088  0.5240 -0.9866 -0.7097
   55DOPE   C11 6974   3.082   6.910   6.969  0.3885 -0.3409 -0.3882
   55DOPE  H11A 6975   3.010   6.890   7.052 -1.6431  1.8912 -1.4930
   55DOPE  H11B 6976   3.154   6.825   6.970  0.9137  0.0990  0.1640
   55DOPE     P 6977   2.987   6.799   6.764 -0.3968 -0.0152  0.0080
   55DOPE   O13 6978   3.095   6.776   6.669 -0.5008 -0.5016 -0.2441
   55DOPE   O14 6979   2.855   6.803   6.692 -0.8546 -0.1795  0.3812
   55DOPE   O11 6980   2.982   6.678   6.867 -0.7737  0.7178 -0.5610
   55DOPE   O12 6981   3.008   6.926   6.849 -0.0495  0.3114 -0.2552
   55DOPE    C1 6982   2.867   6.647   6.944  0.2380  0.2025  0.8248
   55DOPE    HA 6983   2.826   6.737   6.996  0.6236  0.7260  0.2280
   55DOPE    HB 6984   2.908   6.593   7.033  2.2902 -1.1213 -0.8415
   55DOPE    C2 6985   2.757   6.567   6.865  0.1102  0.1617 -0.2275
   55DOPE    HS 6986   2.734   6.637   6.781  0.9376 -0.0704 -0.6587
   55DOPE   O21 6987   2.637   6.565   6.940 -0.1666 -0.3386 -0.2223
   55DOPE   C21 6988   2.529   6.526   6.865  0.1993  0.0005 -0.0979
   55DOPE   O22 6989   2.532   6.515   6.743 -0.6696  0.3305  0.2548
   55DOPE   C22 6990   2.402   6.507   6.947  0.1338 -0.0097  0.0602
   55DOPE   H2R 6991   2.430   6.427   7.018  2.7224 -1.8818 -2.7797
   55DOPE   H2S 6992   2.312   6.472   6.893 -0.0134 -2.0399  1.5188
   55DOPE    C3 6993   2.798   6.432   6.806  0.9345 -0.8407  0.2680
   55DOPE    HX 6994   2.889   6.464   6.751 -0.5707  0.9690 -1.2741
   55DOPE    HY 6995   2.736   6.382   6.728  2.1331  0.5982 -1.6873
   55DOPE   O31 6996   2.839   6.339   6.905  0.1949  0.2577 -0.0596
   55DOPE   C31 6997   2.764   6.229   6.915  0.3071 -0.1152  0.5652
   55DOPE   O32 6998   2.663   6.205   6.853 -0.1720 -0.4977 -0.4772
   55DOPE   C32 6999   2.816   6.141   7.027  0.3804  0.0855  0.0577
   55DOPE   H2X 7000   2.780   6.040   7.000 -0.7732  1.2212 -3.1005
   55DOPE   H2Y 7001   2.927   6.144   7.031  0.5593 -2.5909 -1.0686
   55DOPE   C23 7002   2.367   6.637   7.022  0.5441  0.2102  0.0271
   55DOPE   H3R 7003   2.386   6.725   6.958  0.7543  0.5185  0.5011
   55DOPE   H3S 7004   2.429   6.651   7.114 -0.2769  0.6572  0.5284
   55DOPE   C24 7005   2.221   6.646   7.066  1.0281 -0.0284 -0.1439
   55DOPE   H4R 7006   2.197   6.559   7.131  0.0577 -0.3172 -0.8705
   55DOPE   H4S 7007   2.164   6.618   6.975  0.3366  0.0227  0.2708
   55DOPE   C25 7008   2.168   6.778   7.131  0.1093 -0.1996  0.0520
   55DOPE   H5R 7009   2.209   6.869   7.083 -1.3027 -0.0758 -0.9854
   55DOPE   H5S 7010   2.205   6.779   7.236 -0.0673 -1.7714  0.1569
   55DOPE   C26 7011   2.018   6.801   7.125  0.2760 -0.4021  0.6711
   55DOPE   H6R 7012   1.958   6.728   7.183  0.6729 -1.4126 -0.1453
   55DOPE   H6S 7013   1.968   6.772   7.030 -2.6517 -0.5474  2.1466
   55DOPE   C27 7014   1.970   6.941   7.164 -0.2096 -0.3226 -0.3549
   55DOPE   H7R 7015   1.861   6.936   7.142 -0.2804 -2.4162  0.2545
   55DOPE   H7S 7016   2.011   7.006   7.084 -0.9536 -0.1975 -0.6448
   55DOPE   C28 7017   2.012   6.990   7.305 -0.4191  0.2001 -0.0620
   55DOPE   H8R 7018   1.991   7.099   7.311  0.0631  0.2313  2.0592
   55DOPE   H8S 7019   2.122   6.976   7.312 -0.3343  0.9666  0.2473
   55DOPE   C29 7020   1.941   6.907   7.410  0.2632  0.3035  1.0160
   55DOPE   H9R 7021   1.832   6.907   7.397  0.4581  2.7107 -1.7545
   55DOPE  C210 7022   1.979   6.831   7.514 -1.0402  0.0618 -0.1419
   55DOPE  H10R 7023   1.908   6.765   7.566  1.2616 -1.3238  1.4242
   55DOPE  C211 7024   2.126   6.808   7.546 -0.5483  0.8132  0.2559
   55DOPE  H11R 7025   2.131   6.818   7.657  0.9927  0.8437  0.2051
   55DOPE  H11S 7026   2.196   6.885   7.508 -0.8075  1.3445  0.8370
   55DOPE  C212 7027   2.173   6.664   7.505 -0.4655  0.1176 -0.1445
   55DOPE  H12R 7028   2.282   6.656   7.525 -0.6090 -0.8907  0.2653
   55DOPE  H12S 7029   2.156   6.639   7.398 -0.1465 -1.4458  0.1510
   55DOPE  C213 7030   2.101   6.549   7.573  0.4121 -0.1563 -0.0357
   55DOPE  H13R 7031   1.991   6.546   7.558  0.5330 -0.6423 -0.8669
   55DOPE  H13S 7032   2.108   6.575   7.681  2.8412 -0.4029 -0.0677
   55DOPE  C214 7033   2.153   6.408   7.544  0.2246  0.3398  0.6618
   55DOPE  H14R 7034   2.089   6.337   7.599 -0.1420 -1.0244 -1.4230
   55DOPE  H14S 7035   2.254   6.394   7.587  0.7282  2.1290  0.1729
   55DOPE  C215 7036   2.153   6.368   7.397 -0.0945 -0.4041  0.1625
   55DOPE  H15R 7037   2.155   6.257   7.401 -0.7700 -0.5438 -1.9457
   55DOPE  H15S 7038   2.244   6.417   7.357 -1.1399  0.5541 -1.1327
   55DOPE  C216 7039   2.025   6.406   7.321  0.1975  0.9380  0.4900
   55DOPE  H16R 7040   2.020   6.516   7.303  1.2730  0.8577 -0.3414
   55DOPE  H16S 7041   1.938   6.380   7.385  0.4580 -1.2553  0.0195
   55DOPE  C217 7042   2.003   6.343   7.183  0.1315  0.3981 -0.1902
   55DOPE  H17R 7043   1.994   6.232   7.188 -1.8647  0.5635  1.6317
   55DOPE  H17S 7044   2.088   6.366   7.116  0.3141  0.3266  0.0146
   55DOPE  C218 7045   1.883   6.395   7.115 -0.4796  0.1608 -0.1730
   55DOPE  H18R 7046   1.877   6.505   7.101  1.4090  0.1496 -1.3553
   55DOPE  H18S 7047   1.791   6.377   7.175  0.4387  1.2082  1.6229
   55DOPE  H18T 7048   1.863   6.346   7.017  0.6538 -1.0232  0.1642
   55DOPE   C33 7049   2.755   6.169   7.161 -0.4827  0.0922  0.0199
   55DOPE   H3X 7050   2.792   6.093   7.233 -2.1894 -0.0537  0.8017
   55DOPE   H3Y 7051   2.646   6.147   7.159 -0.3536 -0.7206  0.8373
   55DOPE   C34 7052   2.775   6.308   7.218  0.1796 -0.1578 -0.6048
   55DOPE   H4X 7053   2.875   6.307   7.265  0.1183  0.5829 -0.4356
   55DOPE   H4Y 7054   2.778   6.383   7.136  0.6301  1.0048  0.4466
   55DOPE   C35 7055   2.664   6.346   7.316 -0.0492 -0.5587 -0.3176
   55DOPE   H5X 7056   2.568   6.341   7.261  0.9190  1.5969 -2.4099
   55DOPE   H5Y 7057   2.679   6.450   7.351 -1.7576 -0.9507  1.7687
   55DOPE   C36 7058   2.663   6.261   7.443 -0.0543  0.6172 -0.3192
   55DOPE   H6X 7059   2.769   6.257   7.476  0.5609  1.5789 -2.0661
   55DOPE   H6Y 7060   2.635   6.157   7.415  1.5944  0.2547 -0.7326
   55DOPE   C37 7061   2.571   6.328   7.552 -1.0777  0.2260  0.0042
   55DOPE   H7X 7062   2.476   6.356   7.501  0.0536  2.8164 -0.7914
   55DOPE   H7Y 7063   2.555   6.246   7.626  0.1697  0.9451  1.1100
   55DOPE   C38 7064   2.650   6.446   7.630  0.2854 -0.6266 -0.3763
   55DOPE   H8X 7065   2.724   6.486   7.557  0.3691 -0.4544 -0.1997
   55DOPE   H8Y 7066   2.694   6.410   7.726  0.8992 -0.4719 -0.5949
   55DOPE   C39 7067   2.555   6.560   7.654  0.5351  0.7021 -0.1828
   55DOPE   H9X 7068   2.556   6.632   7.571  0.7099 -0.2276 -1.0140
   55DOPE  C310 7069   2.479   6.588   7.763 -0.6528  0.0626  0.2145
   55DOPE  H10X 7070   2.400   6.665   7.760 -0.6175  0.0780 -0.7798
   55DOPE  C311 7071   2.495   6.506   7.890  0.2405 -0.4021 -0.0326
   55DOPE  H11X 7072   2.510   6.400   7.862  0.7293 -0.1422 -0.7812
   55DOPE  H11Y 7073   2.579   6.540   7.955  1.3309  1.7073 -2.3739
   55DOPE  C312 7074   2.356   6.505   7.961 -0.1066 -0.8216  0.0554
   55DOPE  H12X 7075   2.362   6.446   8.055  0.7101 -2.2706 -0.8727
   55DOPE  H12Y 7076   2.278   6.456   7.899  1.0421  0.7671 -2.8848
   55DOPE  C313 7077   2.307   6.649   7.998  1.8065  0.6298 -0.0927
   55DOPE  H13X 7078   2.386   6.718   8.035  2.0733  1.1725 -1.6006
   55DOPE  H13Y 7079   2.270   6.698   7.905 -1.6916  1.6987  1.6599
   55DOPE  C314 7080   2.179   6.636   8.083 -0.1422 -0.3366 -0.0022
   55DOPE  H14X 7081   2.212   6.590   8.179 -0.1142  0.3158  0.3065
   55DOPE  H14Y 7082   2.097   6.576   8.039 -0.1148  0.1317 -0.7048
   55DOPE  C315 7083   2.118   6.774   8.119 -0.0126 -0.8841  0.0690
   55DOPE  H15X 7084   2.032   6.770   8.189 -1.5322 -0.2513 -1.6535
   55DOPE  H15Y 7085   2.070   6.813   8.026  1.8753  1.1340 -0.1488
   55DOPE  C316 7086   2.227   6.883   8.151  0.5023  0.2293  0.8034
   55DOPE  H16X 7087   2.168   6.977   8.145  0.3053  0.2269  2.2924
   55DOPE  H16Y 7088   2.296   6.897   8.065 -1.3617  1.7569 -0.5226
   55DOPE  C317 7089   2.296   6.866   8.291  0.0123 -0.2898  0.0074
   55DOPE  H17X 7090   2.324   6.759   8.304 -1.8579 -0.7017  0.8783
   55DOPE  H17Y 7091   2.397   6.912   8.298 -0.2067  0.0122  1.7039
   55DOPE  C318 7092   2.207   6.904   8.409  0.2091  0.1775  0.3325
   55DOPE  H18X 7093   2.099   6.892   8.384  0.1932  1.3908 -0.2490
   55DOPE  H18Y 7094   2.234   6.837   8.493  0.1872  0.2609  0.4060
   55DOPE  H18Z 7095   2.218   7.010   8.439  1.9705 -0.3186  1.5895
   56DOPE     N 7096   8.377   8.673   6.533 -0.4027  0.2835  0.0835
   56DOPE   HN1 7097   8.445   8.620   6.475 -0.0639  0.6902  0.1052
   56DOPE   HN2 7098   8.291   8.710   6.486 -0.1611  1.3465  0.4437
   56DOPE   HN3 7099   8.426   8.748   6.586 -1.8144  2.1290 -1.0861
   56DOPE   C12 7100   8.309   8.594   6.640  0.2621 -0.1396 -0.5771
   56DOPE  H12A 7101   8.248   8.509   6.601 -0.8113 -0.9429  2.4867
   56DOPE  H12B 7102   8.233   8.653   6.697  0.6666 -1.9224  2.0128
   56DOPE   C11 7103   8.410   8.550   6.749 -0.2422  0.5643 -0.2132
   56DOPE  H11A 7104   8.456   8.453   6.720 -2.0769 -0.5233  0.3205
   56DOPE  H11B 7105   8.341   8.525   6.832 -0.1801 -0.2355 -0.3972
   56DOPE     P 7106   8.643   8.626   6.832 -0.1793  0.6378  0.2461
   56DOPE   O13 7107   8.712   8.755   6.841 -0.1024  0.6465 -0.3519
   56DOPE   O14 7108   8.689   8.524   6.738 -0.7164 -0.0549  0.4598
   56DOPE   O11 7109   8.616   8.570   6.978 -0.6016  0.1914  0.3153
   56DOPE   O12 7110   8.497   8.658   6.784  0.9074  0.0435 -0.0079
   56DOPE    C1 7111   8.576   8.657   7.081 -0.3754 -0.5527 -0.5021
   56DOPE    HA 7112   8.466   8.648   7.093  0.0694 -3.9809  3.1235
   56DOPE    HB 7113   8.604   8.763   7.066 -1.2233 -0.1308  0.7804
   56DOPE    C2 7114   8.643   8.621   7.212 -0.2065  0.2164 -0.5411
   56DOPE    HS 7115   8.748   8.621   7.175  0.1482 -1.1324  0.4269
   56DOPE   O21 7116   8.602   8.492   7.244 -0.1495  0.8804  0.4652
   56DOPE   C21 7117   8.665   8.430   7.344  0.2966 -0.3230 -0.1122
   56DOPE   O22 7118   8.764   8.477   7.404 -0.2160  0.5045  0.0718
   56DOPE   C22 7119   8.592   8.298   7.378 -0.4868 -0.1646 -0.1758
   56DOPE   H2R 7120   8.531   8.266   7.290 -2.3485  2.6578 -0.0176
   56DOPE   H2S 7121   8.518   8.325   7.455  0.3781  2.4982 -0.1893
   56DOPE    C3 7122   8.635   8.725   7.322  0.3352 -0.1158 -0.0956
   56DOPE    HX 7123   8.703   8.809   7.296 -0.2736 -0.0265 -1.4564
   56DOPE    HY 7124   8.682   8.676   7.410 -0.0213 -1.8396 -0.8328
   56DOPE   O31 7125   8.493   8.747   7.355  0.2890  0.1952  0.1184
   56DOPE   C31 7126   8.456   8.873   7.333  0.9001  0.6899 -0.2152
   56DOPE   O32 7127   8.514   8.954   7.268 -0.2930 -0.5934  0.0197
   56DOPE   C32 7128   8.322   8.894   7.415  0.3264 -0.0471 -0.2360
   56DOPE   H2X 7129   8.246   8.844   7.351 -1.4710  0.1050  1.6716
   56DOPE   H2Y 7130   8.333   8.835   7.509  0.2373 -0.6480 -0.5973
   56DOPE   C23 7131   8.688   8.192   7.423 -0.3049  0.3227  0.2832
   56DOPE   H3R 7132   8.745   8.231   7.510  0.3036 -0.9301  0.4677
   56DOPE   H3S 7133   8.764   8.175   7.343  0.2253  1.2410  0.5732
   56DOPE   C24 7134   8.613   8.061   7.457  0.3507 -0.4362 -0.4177
   56DOPE   H4R 7135   8.542   8.034   7.376 -1.9037  2.2585  0.4995
   56DOPE   H4S 7136   8.559   8.085   7.551 -0.3739 -0.2969 -0.8594
   56DOPE   C25 7137   8.708   7.945   7.479 -0.3265  0.1865 -0.1250
   56DOPE   H5R 7138   8.773   7.968   7.566  1.7680 -1.8607 -1.0554
   56DOPE   H5S 7139   8.762   7.926   7.384 -1.4471 -1.1750 -0.5290
   56DOPE   C26 7140   8.622   7.826   7.518 -0.1205 -0.3667  0.1082
   56DOPE   H6R 7141   8.690   7.743   7.549  1.5706  0.1128 -2.0721
   56DOPE   H6S 7142   8.557   7.800   7.432  1.9363 -3.1930 -0.7392
   56DOPE   C27 7143   8.523   7.844   7.631 -0.2568 -0.8810  0.3734
   56DOPE   H7R 7144   8.441   7.903   7.584 -1.1116 -2.8624 -0.7597
   56DOPE   H7S 7145   8.575   7.898   7.713 -1.1261  1.7107 -0.6942
   56DOPE   C28 7146   8.450   7.716   7.684  0.0735 -0.6724 -0.6951
   56DOPE   H8R 7147   8.407   7.657   7.600  0.2306 -3.2350  0.9094
   56DOPE   H8S 7148   8.360   7.748   7.740  0.9350  0.3614  0.1217
   56DOPE   C29 7149   8.544   7.624   7.760 -0.0544 -0.7780  0.0021
   56DOPE   H9R 7150   8.645   7.663   7.779  0.0585 -0.5341 -1.0389
   56DOPE  C210 7151   8.519   7.497   7.793  0.5157  0.4614 -0.2836
   56DOPE  H10R 7152   8.595   7.431   7.838  0.1135  0.4591  0.4165
   56DOPE  C211 7153   8.389   7.417   7.790  0.3083  0.4143 -0.2692
   56DOPE  H11R 7154   8.407   7.308   7.782  2.1847  0.6940 -0.4076
   56DOPE  H11S 7155   8.335   7.446   7.697 -2.4527 -0.7804  0.8697
   56DOPE  C212 7156   8.284   7.449   7.901 -0.1076 -0.0221  0.4761
   56DOPE  H12R 7157   8.187   7.405   7.872  0.0827  0.6441 -1.3531
   56DOPE  H12S 7158   8.274   7.560   7.910 -3.1570 -0.3492  2.4007
   56DOPE  C213 7159   8.322   7.397   8.042  0.0458 -0.2697  0.1620
   56DOPE  H13R 7160   8.424   7.436   8.064 -0.3668  1.0760 -0.2444
   56DOPE  H13S 7161   8.337   7.287   8.033 -1.9673 -0.6915  1.3456
   56DOPE  C214 7162   8.223   7.430   8.153 -0.4155  0.7963 -1.2223
   56DOPE  H14R 7163   8.121   7.406   8.116 -1.0444  0.4696  0.5999
   56DOPE  H14S 7164   8.227   7.538   8.178 -4.1381  0.8097 -0.1176
   56DOPE  C215 7165   8.231   7.341   8.280 -0.6220 -0.0801  0.0725
   56DOPE  H15R 7166   8.219   7.231   8.263  1.5803 -0.5929  1.3898
   56DOPE  H15S 7167   8.160   7.382   8.356  0.0125  0.7059  0.2458
   56DOPE  C216 7168   8.370   7.349   8.345 -0.6130 -0.1795 -0.3922
   56DOPE  H16R 7169   8.391   7.455   8.367  1.1763 -0.0001 -2.6478
   56DOPE  H16S 7170   8.453   7.312   8.281 -0.1280  1.4903 -0.7634
   56DOPE  C217 7171   8.387   7.258   8.472 -1.1646 -0.5401  0.1597
   56DOPE  H17R 7172   8.330   7.167   8.445 -2.8154  0.9809 -1.8936
   56DOPE  H17S 7173   8.330   7.301   8.557 -0.6163 -1.5108  1.0289
   56DOPE  C218 7174   8.541   7.239   8.508  0.2885  0.1124 -0.5229
   56DOPE  H18R 7175   8.589   7.187   8.423 -0.9256 -0.9423 -0.5983
   56DOPE  H18S 7176   8.562   7.181   8.600  0.1712  1.3862  0.3387
   56DOPE  H18T 7177   8.592   7.337   8.522  2.5535 -1.3569  2.8003
   56DOPE   C33 7178   8.299   9.041   7.456 -0.2206  0.3005 -0.2785
   56DOPE   H3X 7179   8.249   9.103   7.378  0.4120 -0.1448 -1.0478
   56DOPE   H3Y 7180   8.388   9.099   7.487 -1.2937  1.2636  1.1350
   56DOPE   C34 7181   8.208   9.046   7.581 -0.1148  0.8493 -0.4906
   56DOPE   H4X 7182   8.150   8.951   7.581 -0.8895  1.3142 -0.7514
   56DOPE   H4Y 7183   8.264   9.048   7.677 -1.4678 -0.2514  0.3540
   56DOPE   C35 7184   8.103   9.159   7.582  0.2772  0.4050 -0.2631
   56DOPE   H5X 7185   8.060   9.169   7.480 -1.5855  1.1522  0.5573
   56DOPE   H5Y 7186   8.159   9.250   7.613 -2.7840  1.4271  2.9932
   56DOPE   C36 7187   7.980   9.140   7.676  0.6008 -0.1449  0.1576
   56DOPE   H6X 7188   7.933   9.241   7.678 -0.3283 -0.5604  0.0230
   56DOPE   H6Y 7189   8.021   9.124   7.778  0.3814  2.2308  0.6755
   56DOPE   C37 7190   7.880   9.032   7.635 -0.1519 -0.6480 -0.1896
   56DOPE   H7X 7191   7.832   9.056   7.538  1.7793  1.2847 -0.7375
   56DOPE   H7Y 7192   7.934   8.935   7.636 -0.5350 -0.8911  1.8359
   56DOPE   C38 7193   7.771   9.027   7.743  0.9582  0.2417  0.4813
   56DOPE   H8X 7194   7.733   9.131   7.753 -0.6537 -0.4022  1.5667
   56DOPE   H8Y 7195   7.807   8.988   7.841  1.8903 -1.8611 -0.6218
   56DOPE   C39 7196   7.673   8.926   7.694  0.4808 -0.0166  0.7200
   56DOPE   H9X 7197   7.687   8.820   7.719 -0.3684 -0.9228 -2.2821
   56DOPE  C310 7198   7.554   8.959   7.627 -0.3709 -0.4241 -0.5973
   56DOPE  H10X 7199   7.486   8.875   7.604  1.0080 -1.2942 -1.6650
   56DOPE  C311 7200   7.507   9.093   7.590 -0.0391  0.0463 -0.5364
   56DOPE  H11X 7201   7.575   9.181   7.593  1.4225 -1.0640  1.4472
   56DOPE  H11Y 7202   7.473   9.088   7.485  0.7415  0.1683 -0.7982
   56DOPE  C312 7203   7.389   9.136   7.676 -0.0443  0.3770  0.6574
   56DOPE  H12X 7204   7.314   9.054   7.685  0.5410 -0.4072 -1.0727
   56DOPE  H12Y 7205   7.336   9.229   7.647  2.1777  0.7585 -2.6889
   56DOPE  C313 7206   7.417   9.171   7.822  0.2322 -0.3078 -0.3346
   56DOPE  H13X 7207   7.482   9.091   7.864 -0.0105 -0.0330  0.5935
   56DOPE  H13Y 7208   7.474   9.267   7.825  1.3413 -0.9253 -1.0407
   56DOPE  C314 7209   7.291   9.180   7.916  0.0600 -0.1102  0.2099
   56DOPE  H14X 7210   7.229   9.094   7.882  0.3922 -0.8708  1.4644
   56DOPE  H14Y 7211   7.230   9.272   7.906 -0.8944 -0.4880  2.0855
   56DOPE  C315 7212   7.332   9.161   8.065 -0.0355 -0.0475 -0.2379
   56DOPE  H15X 7213   7.423   9.220   8.089 -1.6280  1.8035  1.6025
   56DOPE  H15Y 7214   7.360   9.055   8.086 -1.9778 -0.7089 -0.7872
   56DOPE  C316 7215   7.212   9.197   8.164  0.0827 -0.0833  0.2427
   56DOPE  H16X 7216   7.119   9.159   8.117  0.0475  2.3598 -1.9084
   56DOPE  H16Y 7217   7.197   9.307   8.166  1.1575  0.2108 -2.8354
   56DOPE  C317 7218   7.240   9.138   8.299  0.3838 -0.0448 -0.1228
   56DOPE  H17X 7219   7.265   9.030   8.294  2.6694  0.3727  0.7373
   56DOPE  H17Y 7220   7.339   9.178   8.332  0.4352 -1.0599  1.0049
   56DOPE  C318 7221   7.140   9.172   8.408  0.0107 -0.1012  0.2268
   56DOPE  H18X 7222   7.042   9.129   8.380  0.3854  0.2253 -1.7475
   56DOPE  H18Y 7223   7.169   9.126   8.505 -0.1851  1.6273  1.1587
   56DOPE  H18Z 7224   7.140   9.283   8.418  5.0771  0.1178  0.2487
   57DOPE     N 7225   0.192   2.060   6.218 -0.1596  0.4404 -0.3985
   57DOPE   HN1 7226   0.158   2.079   6.122  0.7755 -1.8341 -1.2284
   57DOPE   HN2 7227   0.292   2.084   6.228  0.2309 -1.5491  1.0925
   57DOPE   HN3 7228   0.197   1.960   6.245  0.3095  0.2422 -1.2123
   57DOPE   C12 7229   0.128   2.126   6.334  0.1206 -0.3187 -0.1958
   57DOPE  H12A 7230   0.181   2.101   6.428  3.1911  2.4034 -1.0299
   57DOPE  H12B 7231   0.023   2.090   6.330 -0.2365  0.7131 -0.4599
   57DOPE   C11 7232   0.127   2.283   6.320 -0.1259 -0.2396 -0.1963
   57DOPE  H11A 7233   0.050   2.320   6.392  0.1251  1.2330 -0.6524
   57DOPE  H11B 7234   0.095   2.312   6.217  0.5317 -0.0808 -0.3574
   57DOPE     P 7235   0.341   2.450   6.307  0.0141  0.2193  0.2366
   57DOPE   O13 7236   0.260   2.575   6.323  0.6171  0.3261 -0.2235
   57DOPE   O14 7237   0.396   2.422   6.177  0.2720 -0.5447 -0.3604
   57DOPE   O11 7238   0.458   2.462   6.416 -0.0049  0.9402 -0.0838
   57DOPE   O12 7239   0.260   2.320   6.360 -0.6305 -0.0594  0.3861
   57DOPE    C1 7240   0.500   2.345   6.496  0.4420 -0.1269  0.5845
   57DOPE    HA 7241   0.606   2.364   6.523  0.5145  2.2832 -1.0845
   57DOPE    HB 7242   0.496   2.249   6.440  0.5519  0.0908  0.2051
   57DOPE    C2 7243   0.415   2.336   6.631 -0.5157  0.1553  0.3045
   57DOPE    HS 7244   0.305   2.330   6.614 -0.8095 -0.1683  2.1543
   57DOPE   O21 7245   0.464   2.454   6.699 -0.2719 -0.0358  0.4116
   57DOPE   C21 7246   0.370   2.493   6.791  0.5935 -0.1098  0.7420
   57DOPE   O22 7247   0.267   2.432   6.809  0.4599  0.1718  0.9474
   57DOPE   C22 7248   0.424   2.598   6.888 -0.6092  0.0650 -0.0460
   57DOPE   H2R 7249   0.519   2.632   6.842  0.6640 -2.6533  0.3730
   57DOPE   H2S 7250   0.464   2.539   6.973  2.3514  0.8570 -0.7840
   57DOPE    C3 7251   0.433   2.210   6.720  0.3205 -0.3019  0.1530
   57DOPE    HX 7252   0.403   2.133   6.646 -2.9979  0.2366  0.7710
   57DOPE    HY 7253   0.356   2.191   6.798 -2.0256 -3.3045 -2.6018
   57DOPE   O31 7254   0.571   2.195   6.757 -0.0630 -0.7116 -0.2206
   57DOPE   C31 7255   0.600   2.096   6.840 -0.2456  0.0888  0.5058
   57DOPE   O32 7256   0.522   2.005   6.878 -0.0375 -0.2933  0.1941
   57DOPE   C32 7257   0.744   2.113   6.871 -0.8237  0.0206  0.0648
   57DOPE   H2X 7258   0.791   2.040   6.802 -2.6921  0.2207 -1.5073
   57DOPE   H2Y 7259   0.774   2.216   6.841 -2.5920  0.1357 -1.4817
   57DOPE   C23 7260   0.332   2.719   6.924  0.1504 -0.3277 -0.1615
   57DOPE   H3R 7261   0.240   2.674   6.967  1.6178 -2.5377  0.8375
   57DOPE   H3S 7262   0.308   2.781   6.835 -0.7491  1.4998  1.2794
   57DOPE   C24 7263   0.394   2.815   7.031  0.8272 -0.4134 -0.4691
   57DOPE   H4R 7264   0.478   2.875   6.990  0.6197  0.4676  0.3636
   57DOPE   H4S 7265   0.443   2.753   7.109 -0.4921  0.5120  1.1683
   57DOPE   C25 7266   0.290   2.907   7.102  0.1310 -0.6606  0.4419
   57DOPE   H5R 7267   0.206   2.855   7.153 -0.1325  0.0810  0.7908
   57DOPE   H5S 7268   0.236   2.976   7.033 -2.5498 -2.9288  0.1012
   57DOPE   C26 7269   0.369   2.985   7.210 -0.8678 -0.1051 -0.3186
   57DOPE   H6R 7270   0.302   3.067   7.244  0.9022  3.3826 -4.3131
   57DOPE   H6S 7271   0.450   3.032   7.150 -1.5264 -1.0842 -2.0397
   57DOPE   C27 7272   0.412   2.907   7.332  0.0157 -0.1520  0.6032
   57DOPE   H7R 7273   0.448   2.975   7.413  1.5445 -2.1527  1.6990
   57DOPE   H7S 7274   0.495   2.836   7.317 -0.9409 -1.5079  1.5065
   57DOPE   C28 7275   0.299   2.827   7.404  0.5418 -0.2993  0.6283
   57DOPE   H8R 7276   0.287   2.740   7.337  0.8140 -1.0494  1.5335
   57DOPE   H8S 7277   0.209   2.892   7.394  1.3029  1.1704  2.5890
   57DOPE   C29 7278   0.319   2.789   7.551  0.5117 -0.1111  0.6999
   57DOPE   H9R 7279   0.415   2.738   7.570  1.1039 -0.0258 -1.7194
   57DOPE  C210 7280   0.236   2.806   7.653  0.2568  0.1054 -0.7785
   57DOPE  H10R 7281   0.252   2.753   7.748 -0.5911  1.4795  0.1730
   57DOPE  C211 7282   0.108   2.873   7.656 -0.0292  0.2772  0.4628
   57DOPE  H11R 7283   0.063   2.898   7.557 -0.9292 -2.3865  0.1430
   57DOPE  H11S 7284   0.117   2.971   7.708 -1.0731  0.5494  0.1647
   57DOPE  C212 7285  -0.003   2.796   7.732 -0.6403  0.2933  0.3929
   57DOPE  H12R 7286  -0.083   2.864   7.770 -1.0039  0.4274 -0.5824
   57DOPE  H12S 7287   0.047   2.755   7.822 -1.4507  0.1539  0.7856
   57DOPE  C213 7288  -0.070   2.685   7.651 -0.6180 -0.0746  0.1142
   57DOPE  H13R 7289  -0.010   2.592   7.647 -1.0048 -0.3345  0.3865
   57DOPE  H13S 7290  -0.077   2.729   7.549  1.2232 -1.4534 -0.6788
   57DOPE  C214 7291  -0.206   2.641   7.709 -0.4804 -0.4914 -0.6335
   57DOPE  H14R 7292  -0.254   2.738   7.734  3.3344  1.5920 -0.6890
   57DOPE  H14S 7293  -0.195   2.592   7.809 -0.6973  0.5118 -0.1014
   57DOPE  C215 7294  -0.293   2.577   7.606 -0.5789  0.0110  0.0758
   57DOPE  H15R 7295  -0.250   2.476   7.588 -0.0380  0.5269 -1.7405
   57DOPE  H15S 7296  -0.277   2.626   7.507 -1.6122  0.7008  0.2366
   57DOPE  C216 7297  -0.439   2.557   7.646  0.4095  0.7343 -0.0215
   57DOPE  H16R 7298  -0.479   2.660   7.660 -0.6710  0.2402  0.5805
   57DOPE  H16S 7299  -0.449   2.515   7.749  0.8162  0.0446 -0.2619
   57DOPE  C217 7300  -0.511   2.467   7.541 -0.4501 -0.1606  0.2271
   57DOPE  H17R 7301  -0.454   2.372   7.537  3.4058  1.9029 -3.7721
   57DOPE  H17S 7302  -0.495   2.505   7.437 -2.7037  1.2414  0.3366
   57DOPE  C218 7303  -0.658   2.456   7.562 -0.1829 -0.3578  0.1566
   57DOPE  H18R 7304  -0.700   2.555   7.535  0.7489  0.3089  1.1299
   57DOPE  H18S 7305  -0.697   2.429   7.662  1.1210 -1.8245  0.3093
   57DOPE  H18T 7306  -0.702   2.383   7.490 -1.0473 -1.0641  1.3678
   57DOPE   C33 7307   0.799   2.092   7.016 -0.0641  0.0611 -0.6258
   57DOPE   H3X 7308   0.740   2.156   7.085  0.8694  1.5454 -1.1590
   57DOPE   H3Y 7309   0.899   2.139   7.023 -0.2557  0.5305 -0.9665
   57DOPE   C34 7310   0.794   1.941   7.055 -0.4402 -0.1510 -0.1235
   57DOPE   H4X 7311   0.691   1.909   7.026 -0.8774  1.2815 -0.2421
   57DOPE   H4Y 7312   0.867   1.896   6.984 -1.1027  0.0660 -0.9698
   57DOPE   C35 7313   0.826   1.907   7.200  0.1010  0.9979 -0.0837
   57DOPE   H5X 7314   0.935   1.924   7.181  0.3113 -1.5829 -1.6739
   57DOPE   H5Y 7315   0.800   1.803   7.230  2.8846  0.0383 -0.6163
   57DOPE   C36 7316   0.776   2.005   7.308  0.4694 -0.0744  0.0044
   57DOPE   H6X 7317   0.665   2.010   7.304  0.4777 -0.3331 -0.7512
   57DOPE   H6Y 7318   0.817   2.105   7.283  2.3839  0.5914  4.7170
   57DOPE   C37 7319   0.819   1.981   7.454  0.3607 -0.4827  0.1122
   57DOPE   H7X 7320   0.921   1.938   7.446  1.5191  1.7834  1.6012
   57DOPE   H7Y 7321   0.830   2.073   7.515 -0.7654 -1.1513  1.4062
   57DOPE   C38 7322   0.719   1.894   7.531  0.1912 -0.3126 -0.2837
   57DOPE   H8X 7323   0.721   1.797   7.479 -0.2103  0.0300 -0.9452
   57DOPE   H8Y 7324   0.615   1.932   7.515 -0.0971 -1.2728 -0.7771
   57DOPE   C39 7325   0.753   1.884   7.682  1.0153  0.2014  0.0267
   57DOPE   H9X 7326   0.832   1.814   7.714  0.2149 -0.2666  1.0384
   57DOPE  C310 7327   0.688   1.954   7.778 -0.6156  0.4230  0.5513
   57DOPE  H10X 7328   0.698   1.939   7.886 -3.4061 -2.0130  0.5970
   57DOPE  C311 7329   0.576   2.053   7.758  0.5171  0.2622  0.2588
   57DOPE  H11X 7330   0.561   2.075   7.650 -1.7384 -1.5875  0.1067
   57DOPE  H11Y 7331   0.479   2.018   7.798  1.0062  0.2032  1.4079
   57DOPE  C312 7332   0.612   2.181   7.838  0.6879  0.0409  0.1772
   57DOPE  H12X 7333   0.669   2.145   7.927 -0.1637 -0.9695  0.3350
   57DOPE  H12Y 7334   0.511   2.221   7.864  0.5458 -0.1520 -0.0765
   57DOPE  C313 7335   0.685   2.290   7.753  0.7167 -0.2364  0.5081
   57DOPE  H13X 7336   0.780   2.240   7.722  0.0978 -0.4710 -1.1210
   57DOPE  H13Y 7337   0.614   2.312   7.670  0.2400  2.0313  1.4534
   57DOPE  C314 7338   0.717   2.417   7.838  0.3887 -0.5791  0.3289
   57DOPE  H14X 7339   0.824   2.405   7.868  0.5461  1.4036  0.6614
   57DOPE  H14Y 7340   0.660   2.417   7.934  1.4829  1.3868  1.0458
   57DOPE  C315 7341   0.710   2.555   7.771  0.5779  0.0003 -0.4496
   57DOPE  H15X 7342   0.606   2.592   7.763  0.3500 -0.8460 -1.6206
   57DOPE  H15Y 7343   0.745   2.550   7.666 -2.2504  0.3428 -1.5040
   57DOPE  C316 7344   0.793   2.659   7.849  0.1801  0.1128  0.3780
   57DOPE  H16X 7345   0.887   2.621   7.895 -0.4999 -0.3497  1.4176
   57DOPE  H16Y 7346   0.726   2.685   7.934  0.6505 -0.0522  0.8023
   57DOPE  C317 7347   0.807   2.791   7.774 -0.2938 -0.0150  1.1200
   57DOPE  H17X 7348   0.721   2.807   7.705  0.7747 -4.7439 -1.8112
   57DOPE  H17Y 7349   0.807   2.868   7.853 -0.0713  3.3295 -1.8907
   57DOPE  C318 7350   0.942   2.804   7.690  0.4359  0.2764 -0.2242
   57DOPE  H18X 7351   0.952   2.720   7.619 -0.1425 -0.4326  0.5159
   57DOPE  H18Y 7352   0.950   2.899   7.633 -1.2654  0.5754 -0.0014
   57DOPE  H18Z 7353   1.023   2.777   7.762 -0.7509 -0.9653  0.7056
   58DOPE     N 7354   1.919   7.751   6.738  0.0365  0.6445 -0.1790
   58DOPE   HN1 7355   1.923   7.852   6.711 -1.9302  1.3536  1.9195
   58DOPE   HN2 7356   2.013   7.729   6.777  1.0493  0.6422 -2.4322
   58DOPE   HN3 7357   1.909   7.691   6.654  1.7333  0.2506 -0.1285
   58DOPE   C12 7358   1.810   7.714   6.840  0.1054  0.3107  0.7436
   58DOPE  H12A 7359   1.860   7.683   6.934  0.1464  2.9391  1.6709
   58DOPE  H12B 7360   1.756   7.625   6.799  1.5781 -0.4648  0.4203
   58DOPE   C11 7361   1.722   7.829   6.871 -0.3403 -0.1113  0.4867
   58DOPE  H11A 7362   1.785   7.915   6.902 -0.5153 -0.0856  0.7782
   58DOPE  H11B 7363   1.652   7.811   6.956 -2.7548 -1.9294 -1.7036
   58DOPE     P 7364   1.528   7.804   6.696  0.0405  0.0401  0.2216
   58DOPE   O13 7365   1.566   7.754   6.567  0.1187 -0.0048 -0.0522
   58DOPE   O14 7366   1.406   7.884   6.702 -0.6932 -0.1037  0.3645
   58DOPE   O11 7367   1.507   7.674   6.785 -0.1596  0.4474  0.1267
   58DOPE   O12 7368   1.649   7.874   6.757  0.4014 -0.1020  0.0768
   58DOPE    C1 7369   1.424   7.683   6.895  0.2959 -0.6351  0.2856
   58DOPE    HA 7370   1.403   7.784   6.937  1.1735 -1.1548  2.0530
   58DOPE    HB 7371   1.470   7.629   6.981 -1.2469  0.6235  2.0026
   58DOPE    C2 7372   1.279   7.631   6.882 -0.4576  0.6313 -0.2025
   58DOPE    HS 7373   1.214   7.701   6.826 -1.4928  0.1304  0.3456
   58DOPE   O21 7374   1.224   7.624   7.018  0.2620 -0.2711 -0.4027
   58DOPE   C21 7375   1.088   7.626   7.020  0.1020 -0.1101  0.2808
   58DOPE   O22 7376   1.016   7.619   6.920 -0.3171  0.0960 -0.7446
   58DOPE   C22 7377   1.045   7.612   7.162  0.5676  0.3050 -0.4616
   58DOPE   H2R 7378   1.106   7.561   7.240  2.6693  3.4355  0.1304
   58DOPE   H2S 7379   0.952   7.552   7.153  0.2747  0.8910 -1.4330
   58DOPE    C3 7380   1.259   7.498   6.806 -0.4286 -0.5458  0.0520
   58DOPE    HX 7381   1.286   7.525   6.702  0.0624  0.3971  0.4123
   58DOPE    HY 7382   1.152   7.469   6.795 -0.6234  0.2459 -0.1622
   58DOPE   O31 7383   1.344   7.387   6.855 -0.3474 -0.0538  0.2628
   58DOPE   C31 7384   1.283   7.294   6.926 -0.2603 -0.0441  0.0026
   58DOPE   O32 7385   1.170   7.295   6.969  0.3426 -0.1276 -0.3999
   58DOPE   C32 7386   1.381   7.178   6.930 -0.2748  0.1329  0.5806
   58DOPE   H2X 7387   1.341   7.111   6.852 -2.0186  1.6965  0.0747
   58DOPE   H2Y 7388   1.485   7.210   6.905  0.4787 -2.7189 -0.2675
   58DOPE   C23 7389   0.993   7.745   7.216 -0.8518 -0.8887 -0.1097
   58DOPE   H3R 7390   0.919   7.721   7.295 -0.0033  0.1144  1.0287
   58DOPE   H3S 7391   0.936   7.791   7.132  2.0068 -1.1613 -2.3552
   58DOPE   C24 7392   1.102   7.835   7.278 -0.1781  0.1219  0.4830
   58DOPE   H4R 7393   1.158   7.886   7.197  0.0580 -2.3690 -1.0275
   58DOPE   H4S 7394   1.182   7.776   7.328  0.7278  0.2703 -0.7465
   58DOPE   C25 7395   1.047   7.941   7.378  0.7783 -0.4128 -0.8672
   58DOPE   H5R 7396   0.964   7.889   7.430  1.5084 -0.0818  0.6681
   58DOPE   H5S 7397   1.007   8.021   7.313 -0.5573  1.2894  1.8893
   58DOPE   C26 7398   1.141   7.993   7.488  0.4006 -0.4289  0.2484
   58DOPE   H6R 7399   1.228   8.036   7.433 -1.4498  0.4416 -2.1236
   58DOPE   H6S 7400   1.177   7.909   7.551  1.1324  0.4624  1.0540
   58DOPE   C27 7401   1.080   8.109   7.569 -0.9842 -0.4865 -0.2092
   58DOPE   H7R 7402   0.992   8.067   7.624 -0.8409  1.9870  2.1012
   58DOPE   H7S 7403   1.039   8.177   7.492 -0.2326  1.7051  1.2385
   58DOPE   C28 7404   1.176   8.191   7.659 -0.8306 -0.4559  0.3417
   58DOPE   H8R 7405   1.118   8.281   7.689  0.5408  0.0563  1.6179
   58DOPE   H8S 7406   1.264   8.229   7.602 -0.2170 -1.1523  0.7960
   58DOPE   C29 7407   1.230   8.104   7.771  0.2614  0.0357 -0.5489
   58DOPE   H9R 7408   1.157   8.071   7.846  0.8677 -1.6333 -0.6364
   58DOPE  C210 7409   1.356   8.061   7.796 -0.9580  0.3293 -0.0847
   58DOPE  H10R 7410   1.375   8.008   7.891  0.7735 -1.1682 -1.2124
   58DOPE  C211 7411   1.472   8.065   7.697 -0.7007 -0.1623 -1.1430
   58DOPE  H11R 7412   1.457   8.134   7.611  2.9187  0.4317 -1.4479
   58DOPE  H11S 7413   1.486   7.964   7.654 -0.0380 -0.3331 -0.5382
   58DOPE  C212 7414   1.612   8.113   7.758 -0.5953  0.0364  0.0107
   58DOPE  H12R 7415   1.590   8.221   7.771 -0.2055  0.1137  0.0331
   58DOPE  H12S 7416   1.692   8.092   7.683 -1.7820 -2.3381 -0.6561
   58DOPE  C213 7417   1.648   8.064   7.899  0.2805  0.2777 -0.4975
   58DOPE  H13R 7418   1.645   7.953   7.901  1.7972  0.2104 -0.6518
   58DOPE  H13S 7419   1.571   8.106   7.967  0.1653 -0.5447 -0.1091
   58DOPE  C214 7420   1.792   8.111   7.936 -0.7595  0.4004  0.0223
   58DOPE  H14R 7421   1.870   8.043   7.895  0.8058  2.5723 -0.7988
   58DOPE  H14S 7422   1.808   8.107   8.046 -1.7998 -1.2833  0.1464
   58DOPE  C215 7423   1.821   8.257   7.899  0.1671 -0.5208  0.3762
   58DOPE  H15R 7424   1.755   8.336   7.940 -0.3317  0.0071 -1.3394
   58DOPE  H15S 7425   1.815   8.279   7.790 -1.0841  2.4445  0.9649
   58DOPE  C216 7426   1.968   8.307   7.912 -0.3745 -0.1427  0.0557
   58DOPE  H16R 7427   2.038   8.246   7.851  2.0546  2.9763 -0.5409
   58DOPE  H16S 7428   1.999   8.288   8.017 -1.8854 -0.6972  0.4173
   58DOPE  C217 7429   1.980   8.450   7.864  0.2869  1.0220 -0.1799
   58DOPE  H17R 7430   1.907   8.500   7.932  0.5409  1.1298  0.0143
   58DOPE  H17S 7431   1.954   8.469   7.758 -1.8235  0.7145  0.2315
   58DOPE  C218 7432   2.116   8.502   7.880  0.5965 -0.3875 -0.3862
   58DOPE  H18R 7433   2.194   8.433   7.839 -0.4409 -2.5887  1.1787
   58DOPE  H18S 7434   2.134   8.512   7.989 -1.0403  0.1935 -0.1514
   58DOPE  H18T 7435   2.113   8.604   7.836  1.8838 -0.1249  0.0762
   58DOPE   C33 7436   1.388   7.108   7.071  0.2109  0.7954  0.3756
   58DOPE   H3X 7437   1.410   6.999   7.060 -2.9430  0.0515  0.6104
   58DOPE   H3Y 7438   1.290   7.105   7.123  0.2451  0.1640  0.4191
   58DOPE   C34 7439   1.490   7.176   7.160  0.8460  0.3659  0.0790
   58DOPE   H4X 7440   1.486   7.135   7.263 -0.0559  0.8342  0.2354
   58DOPE   H4Y 7441   1.589   7.153   7.114  0.6132  1.1970 -0.8745
   58DOPE   C35 7442   1.484   7.328   7.181  0.1732 -0.3121  0.0525
   58DOPE   H5X 7443   1.376   7.349   7.198 -0.0328 -1.0060 -0.3821
   58DOPE   H5Y 7444   1.519   7.378   7.088 -3.5533  1.0453 -0.8176
   58DOPE   C36 7445   1.572   7.375   7.305  0.7146  0.2918  0.2372
   58DOPE   H6X 7446   1.549   7.324   7.401 -1.7058  1.6588  0.4583
   58DOPE   H6Y 7447   1.555   7.483   7.323  1.3719  0.6796 -1.3177
   58DOPE   C37 7448   1.725   7.365   7.270 -0.8225 -0.0209 -0.5343
   58DOPE   H7X 7449   1.778   7.352   7.367 -1.7654 -1.3195 -0.1647
   58DOPE   H7Y 7450   1.749   7.277   7.206  0.1382  0.4244 -0.8074
   58DOPE   C38 7451   1.771   7.488   7.187  0.0158  0.1007 -0.2300
   58DOPE   H8X 7452   1.739   7.573   7.249  3.5030  0.6465  1.0757
   58DOPE   H8Y 7453   1.699   7.496   7.103 -1.4450 -2.5025  0.6611
   58DOPE   C39 7454   1.911   7.472   7.130  0.3793  1.3212  0.6002
   58DOPE   H9X 7455   1.928   7.379   7.074  0.5496  1.4282  0.4708
   58DOPE  C310 7456   2.007   7.560   7.146  0.0881 -0.0010  0.1431
   58DOPE  H10X 7457   2.107   7.534   7.106  0.8684  1.4357  1.0732
   58DOPE  C311 7458   1.996   7.699   7.205 -0.6396  0.3660  0.4877
   58DOPE  H11X 7459   2.051   7.775   7.144  0.4414  0.4352  1.5045
   58DOPE  H11Y 7460   1.890   7.732   7.206 -0.3726  1.2855 -0.0552
   58DOPE  C312 7461   2.046   7.698   7.353 -0.0001 -0.7245  0.5219
   58DOPE  H12X 7462   2.154   7.672   7.353  0.1958 -0.0086  2.1960
   58DOPE  H12Y 7463   1.992   7.624   7.415 -0.3493 -0.3719  0.6427
   58DOPE  C313 7464   2.026   7.837   7.429  0.0002  0.2210  0.0184
   58DOPE  H13X 7465   1.920   7.869   7.420 -0.2139 -0.3903  0.3172
   58DOPE  H13Y 7466   2.064   7.826   7.533  0.6666 -1.3086 -0.3548
   58DOPE  C314 7467   2.109   7.953   7.379 -0.4068  0.0331 -0.4077
   58DOPE  H14X 7468   2.095   7.970   7.270 -3.4060  0.2611 -0.0813
   58DOPE  H14Y 7469   2.214   7.926   7.401  0.3410  2.9726  0.0044
   58DOPE  C315 7470   2.069   8.080   7.456  0.3840 -0.3765  0.0710
   58DOPE  H15X 7471   2.095   8.067   7.563 -2.1600  0.7171  0.8908
   58DOPE  H15Y 7472   1.959   8.090   7.441  0.2766 -1.6998 -0.2022
   58DOPE  C316 7473   2.133   8.207   7.401 -0.1913  0.4001 -0.4145
   58DOPE  H16X 7474   2.113   8.216   7.292  2.4526  1.3138 -0.9005
   58DOPE  H16Y 7475   2.242   8.189   7.411 -0.2034  0.0036 -0.9311
   58DOPE  C317 7476   2.085   8.333   7.475  0.4116 -0.4744  0.1545
   58DOPE  H17X 7477   2.134   8.332   7.574  1.6478  0.1039 -0.4316
   58DOPE  H17Y 7478   2.118   8.419   7.413  0.5279 -1.9701 -1.9594
   58DOPE  C318 7479   1.930   8.332   7.490 -0.0364 -0.1098  0.6541
   58DOPE  H18X 7480   1.900   8.276   7.582  0.1335 -1.2565  0.0196
   58DOPE  H18Y 7481   1.881   8.431   7.504 -0.5540 -0.3663  0.6947
   58DOPE  H18Z 7482   1.877   8.295   7.400 -0.8764  0.7562  0.7732
   59DOPE     N 7483   7.959   1.173   6.697  1.0108 -0.5626 -0.7040
   59DOPE   HN1 7484   7.926   1.108   6.624 -1.6883 -0.2135  0.0935
   59DOPE   HN2 7485   8.053   1.211   6.675  0.7572  0.8133  0.4081
   59DOPE   HN3 7486   7.965   1.109   6.779 -2.2113 -0.1475 -0.0294
   59DOPE   C12 7487   7.846   1.267   6.731  0.2962  0.4143  0.2224
   59DOPE  H12A 7488   7.858   1.349   6.656  0.4609 -0.0199 -0.2263
   59DOPE  H12B 7489   7.868   1.304   6.833  0.1296 -3.6783  1.9135
   59DOPE   C11 7490   7.709   1.198   6.717 -0.0590 -0.9398 -0.0486
   59DOPE  H11A 7491   7.699   1.156   6.614  0.4098 -1.4548  0.1131
   59DOPE  H11B 7492   7.623   1.268   6.720 -0.4943 -1.5048  2.4875
   59DOPE     P 7493   7.624   1.111   6.947 -0.0635  0.0042  0.4546
   59DOPE   O13 7494   7.633   0.985   7.021  0.3848  0.2741  0.4190
   59DOPE   O14 7495   7.488   1.168   6.923  0.5058 -0.1263  0.6255
   59DOPE   O11 7496   7.706   1.224   7.010  0.4367  0.5919 -0.3030
   59DOPE   O12 7497   7.690   1.092   6.804  0.6173  0.4587 -0.5806
   59DOPE    C1 7498   7.773   1.192   7.135 -0.2240  0.0632 -1.1056
   59DOPE    HA 7499   7.855   1.264   7.152  0.2185 -0.6554 -0.1178
   59DOPE    HB 7500   7.829   1.097   7.122 -0.2328  0.0576 -1.1024
   59DOPE    C2 7501   7.684   1.204   7.258  0.2926 -0.1824 -0.1853
   59DOPE    HS 7502   7.593   1.141   7.245  1.5085 -2.2396  0.6628
   59DOPE   O21 7503   7.646   1.341   7.272  0.3115  0.0976  0.5811
   59DOPE   C21 7504   7.545   1.366   7.351 -0.5271 -0.5701 -0.4896
   59DOPE   O22 7505   7.483   1.279   7.416 -0.4547 -0.2847 -0.2088
   59DOPE   C22 7506   7.509   1.518   7.361  0.2077 -0.3661  0.2522
   59DOPE   H2R 7507   7.402   1.517   7.390  0.3609 -1.5029  0.8353
   59DOPE   H2S 7508   7.524   1.569   7.264 -0.2617 -0.1355  0.3003
   59DOPE    C3 7509   7.761   1.151   7.384 -0.0789 -0.5744 -0.1131
   59DOPE    HX 7510   7.780   1.051   7.339  2.1963  0.0155 -0.5947
   59DOPE    HY 7511   7.696   1.152   7.473  2.5567 -0.2325  1.9390
   59DOPE   O31 7512   7.878   1.225   7.420 -0.0908  0.0219 -0.1664
   59DOPE   C31 7513   7.991   1.158   7.423  0.6176 -0.1366  0.2310
   59DOPE   O32 7514   8.007   1.041   7.395 -0.1369 -0.5792 -0.0246
   59DOPE   C32 7515   8.099   1.267   7.457  1.3913 -0.5389  0.1707
   59DOPE   H2X 7516   8.096   1.338   7.372 -0.5455 -0.4315  0.2961
   59DOPE   H2Y 7517   8.077   1.322   7.550 -3.0631 -2.5236  0.5324
   59DOPE   C23 7518   7.599   1.582   7.468  0.3914 -0.0355 -0.7531
   59DOPE   H3R 7519   7.603   1.690   7.442  1.9134  0.5336  1.5974
   59DOPE   H3S 7520   7.704   1.549   7.457  0.1321 -0.6688 -1.4037
   59DOPE   C24 7521   7.547   1.568   7.609 -0.2117  0.1815  0.3496
   59DOPE   H4R 7522   7.533   1.458   7.620  1.6526  0.0593  2.1076
   59DOPE   H4S 7523   7.447   1.615   7.622  0.4759  1.9066 -0.3731
   59DOPE   C25 7524   7.645   1.633   7.708  0.1563  0.0731  0.5949
   59DOPE   H5R 7525   7.747   1.588   7.699 -0.3832 -1.3629  1.2171
   59DOPE   H5S 7526   7.620   1.618   7.816 -1.7695 -0.2789  0.1305
   59DOPE   C26 7527   7.647   1.785   7.686 -0.1907 -0.0481  0.5995
   59DOPE   H6R 7528   7.547   1.831   7.696 -0.3566 -0.5992  1.5781
   59DOPE   H6S 7529   7.703   1.811   7.593  0.3126 -1.0479  0.6036
   59DOPE   C27 7530   7.726   1.853   7.798 -0.9045 -0.2853  0.0837
   59DOPE   H7R 7531   7.829   1.811   7.806  0.3410  2.8721  2.8681
   59DOPE   H7S 7532   7.688   1.822   7.898 -0.6941 -1.5661 -0.2170
   59DOPE   C28 7533   7.724   1.999   7.789 -0.1841  0.3126 -0.2977
   59DOPE   H8R 7534   7.616   2.022   7.803 -0.8162 -3.3413  2.3273
   59DOPE   H8S 7535   7.754   2.027   7.685 -0.3975 -1.5405 -0.9043
   59DOPE   C29 7536   7.813   2.068   7.892  0.1301 -0.1679 -0.8846
   59DOPE   H9R 7537   7.771   2.076   7.994  0.5431 -0.7760 -0.6636
   59DOPE  C210 7538   7.934   2.120   7.860  0.3326  0.2953  0.5769
   59DOPE  H10R 7539   7.994   2.149   7.947  0.0051 -0.8457  1.2010
   59DOPE  C211 7540   7.996   2.136   7.722 -0.0294 -0.1730 -0.8719
   59DOPE  H11R 7541   7.918   2.120   7.645 -0.4729  0.0393 -0.4723
   59DOPE  H11S 7542   8.076   2.060   7.710 -0.0434 -0.2687 -0.3632
   59DOPE  C212 7543   8.067   2.272   7.701 -0.2719 -0.3844 -0.0175
   59DOPE  H12R 7544   8.120   2.275   7.604  1.9730 -1.8209  1.0663
   59DOPE  H12S 7545   8.157   2.282   7.766 -0.1442  1.9856 -0.4931
   59DOPE  C213 7546   7.975   2.391   7.710  0.1347 -0.2756 -0.3743
   59DOPE  H13R 7547   7.902   2.384   7.793 -1.2936 -0.3022 -1.6063
   59DOPE  H13S 7548   7.905   2.393   7.624  0.7620  2.1370 -0.9190
   59DOPE  C214 7549   8.045   2.528   7.716  0.0203  0.3516  0.2921
   59DOPE  H14R 7550   7.968   2.605   7.738  1.2144  1.9203 -0.8634
   59DOPE  H14S 7551   8.105   2.531   7.623 -0.8809 -2.8547 -0.5192
   59DOPE  C215 7552   8.146   2.546   7.834 -0.4669  0.5237 -0.3154
   59DOPE  H15R 7553   8.242   2.491   7.826 -0.6352 -0.3046  2.3376
   59DOPE  H15S 7554   8.102   2.501   7.925  0.1647 -0.8449 -0.6608
   59DOPE  C216 7555   8.190   2.692   7.844 -0.5561 -0.0737 -0.3886
   59DOPE  H16R 7556   8.188   2.741   7.744 -0.0236  0.5401 -0.1085
   59DOPE  H16S 7557   8.298   2.691   7.871 -0.4242 -0.8693 -0.9159
   59DOPE  C217 7558   8.099   2.765   7.939  0.7256 -0.7486  0.0240
   59DOPE  H17R 7559   7.992   2.739   7.923 -0.3977  3.4524 -0.5277
   59DOPE  H17S 7560   8.094   2.873   7.916 -0.7652 -1.0958 -1.5113
   59DOPE  C218 7561   8.126   2.765   8.090 -0.7764 -0.0808  0.4122
   59DOPE  H18R 7562   8.210   2.835   8.109  0.7780 -0.9267 -2.7262
   59DOPE  H18S 7563   8.150   2.663   8.129 -0.0509  0.3047  0.9953
   59DOPE  H18T 7564   8.033   2.801   8.139 -1.1198 -0.9694  0.4358
   59DOPE   C33 7565   8.247   1.207   7.462  0.0394 -0.0935 -0.0253
   59DOPE   H3X 7566   8.257   1.138   7.375  1.6986  0.1258 -0.0407
   59DOPE   H3Y 7567   8.252   1.152   7.558 -2.4339 -0.5026 -0.0721
   59DOPE   C34 7568   8.353   1.316   7.467  0.3922 -0.0447  0.2490
   59DOPE   H4X 7569   8.321   1.395   7.538 -0.2102  1.1700 -1.2986
   59DOPE   H4Y 7570   8.443   1.259   7.499 -0.4307 -2.2527 -1.1380
   59DOPE   C35 7571   8.383   1.373   7.323 -0.3404 -0.5702 -0.1578
   59DOPE   H5X 7572   8.289   1.422   7.290 -0.7932  1.4427  3.5754
   59DOPE   H5Y 7573   8.425   1.297   7.254  0.6822  1.6965 -2.1550
   59DOPE   C36 7574   8.482   1.489   7.333 -0.1917 -0.2897 -0.0579
   59DOPE   H6X 7575   8.588   1.464   7.356  0.3700  0.0362 -2.0532
   59DOPE   H6Y 7576   8.455   1.557   7.416  0.5997  0.3199 -0.2913
   59DOPE   C37 7577   8.476   1.578   7.204  0.1148 -0.3746  0.1767
   59DOPE   H7X 7578   8.484   1.516   7.112  0.3393 -0.5982  0.3452
   59DOPE   H7Y 7579   8.383   1.638   7.197  0.5205  0.3040  0.5263
   59DOPE   C38 7580   8.583   1.694   7.242  0.3008  0.2698 -0.0269
   59DOPE   H8X 7581   8.675   1.648   7.284 -0.4255  0.4875  1.8663
   59DOPE   H8Y 7582   8.539   1.744   7.330  1.3283  3.3490 -1.0977
   59DOPE   C39 7583   8.605   1.785   7.123 -0.1181 -0.4348  0.1788
   59DOPE   H9X 7584   8.610   1.740   7.023  0.7629 -1.8440  0.8264
   59DOPE  C310 7585   8.574   1.913   7.126  0.4462 -0.9341  0.1475
   59DOPE  H10X 7586   8.562   1.969   7.032  0.3441 -0.1852  0.6002
   59DOPE  C311 7587   8.538   1.996   7.250  0.2857  0.3919 -0.0752
   59DOPE  H11X 7588   8.465   2.076   7.227  2.5941  2.6587  0.0161
   59DOPE  H11Y 7589   8.488   1.943   7.334  0.8642  1.4016  0.9428
   59DOPE  C312 7590   8.675   2.062   7.282 -0.0898 -0.2728  0.4961
   59DOPE  H12X 7591   8.754   1.985   7.294 -1.7576 -2.3247 -0.8748
   59DOPE  H12Y 7592   8.660   2.111   7.380 -0.5688  1.5370 -0.4440
   59DOPE  C313 7593   8.725   2.164   7.176 -0.0605  0.0881 -0.2074
   59DOPE  H13X 7594   8.783   2.109   7.099  0.9670 -0.1283  0.7027
   59DOPE  H13Y 7595   8.635   2.203   7.123  0.2264  1.9479  0.6093
   59DOPE  C314 7596   8.816   2.280   7.228  0.3523  0.8302  0.3327
   59DOPE  H14X 7597   8.898   2.232   7.286  0.5564  0.9331  0.1290
   59DOPE  H14Y 7598   8.749   2.343   7.291 -0.7629  0.4527 -0.4336
   59DOPE  C315 7599   8.864   2.373   7.108  1.1167  0.1616 -0.1462
   59DOPE  H15X 7600   8.782   2.413   7.045 -0.5058 -0.8635  1.2477
   59DOPE  H15Y 7601   8.932   2.304   7.054  0.3603 -1.0257  0.3734
   59DOPE  C316 7602   8.937   2.495   7.163  0.2263  0.0241 -0.1852
   59DOPE  H16X 7603   8.861   2.538   7.231  2.0038  0.2409  1.7807
   59DOPE  H16Y 7604   8.958   2.562   7.078 -1.0910  1.2432  0.4100
   59DOPE  C317 7605   9.070   2.461   7.228  0.1132 -0.3668 -0.4687
   59DOPE  H17X 7606   9.072   2.411   7.327 -0.0984  0.8195  0.1536
   59DOPE  H17Y 7607   9.122   2.398   7.153 -2.2686  0.3630 -2.9077
   59DOPE  C318 7608   9.143   2.597   7.256  0.1510 -0.0799  0.4555
   59DOPE  H18X 7609   9.154   2.654   7.162 -1.0083  0.5441  0.6893
   59DOPE  H18Y 7610   9.094   2.662   7.331  0.8760 -1.5518  2.2945
   59DOPE  H18Z 7611   9.245   2.580   7.299 -0.3162  0.5432  1.8891
   60DOPE     N 7612   0.518   8.845   6.427 -0.1193 -0.2861  0.3575
   60DOPE   HN1 7613   0.484   8.814   6.334  0.7596  1.0942 -0.4690
   60DOPE   HN2 7614   0.530   8.948   6.416 -1.3781 -0.1773 -0.1859
   60DOPE   HN3 7615   0.607   8.797   6.451 -0.2393 -0.5668  0.2390
   60DOPE   C12 7616   0.421   8.808   6.533  0.2045 -0.2113 -0.6361
   60DOPE  H12A 7617   0.410   8.697   6.536  1.7504 -0.3508  1.2654
   60DOPE  H12B 7618   0.323   8.850   6.503  0.1804 -0.9757 -1.7069
   60DOPE   C11 7619   0.471   8.855   6.664 -0.7523 -0.5759  0.0897
   60DOPE  H11A 7620   0.572   8.810   6.677 -0.8479 -0.8185 -0.0074
   60DOPE  H11B 7621   0.415   8.818   6.752  1.0745  0.6101  1.8443
   60DOPE     P 7622   0.579   9.070   6.771 -0.1531  0.2722  0.2189
   60DOPE   O13 7623   0.554   9.211   6.742  0.3368  0.4008  0.0823
   60DOPE   O14 7624   0.718   9.015   6.765  0.0886 -0.6626  0.1807
   60DOPE   O11 7625   0.516   9.033   6.909 -0.0473 -0.2521 -0.2863
   60DOPE   O12 7626   0.479   8.999   6.666  0.0208  0.2924 -0.0357
   60DOPE    C1 7627   0.370   9.026   6.932  0.2914  0.0518  0.2610
   60DOPE    HA 7628   0.331   8.924   6.912  1.8414 -0.3772 -0.7213
   60DOPE    HB 7629   0.313   9.098   6.869 -2.5104 -0.8486  1.5839
   60DOPE    C2 7630   0.344   9.059   7.082  0.4223 -0.0313  0.5310
   60DOPE    HS 7631   0.236   9.055   7.108  0.1330  2.3893 -0.0934
   60DOPE   O21 7632   0.386   9.196   7.117 -0.1398  0.7528  0.0287
   60DOPE   C21 7633   0.328   9.305   7.058  0.2237  0.7899  0.2126
   60DOPE   O22 7634   0.239   9.295   6.975  0.1308  0.3177 -0.4023
   60DOPE   C22 7635   0.388   9.430   7.116 -0.0014 -0.5371  0.1624
   60DOPE   H2R 7636   0.488   9.442   7.070  1.9919 -1.4221  3.8403
   60DOPE   H2S 7637   0.419   9.422   7.222  0.3259 -0.0466  0.1064
   60DOPE    C3 7638   0.416   8.953   7.175  0.4229 -0.5179  0.5090
   60DOPE    HX 7639   0.517   8.983   7.210  0.3218  1.2915 -0.6077
   60DOPE    HY 7640   0.442   8.866   7.111 -0.1311 -0.9630  0.8807
   60DOPE   O31 7641   0.340   8.914   7.295  0.1094  0.7522  0.3162
   60DOPE   C31 7642   0.399   8.823   7.371  0.8738  0.0521 -0.4546
   60DOPE   O32 7643   0.514   8.781   7.352 -0.0905  0.0389  0.2375
   60DOPE   C32 7644   0.320   8.777   7.493 -0.1643 -0.0678  0.2300
   60DOPE   H2X 7645   0.313   8.861   7.566  0.7085 -1.2373  1.7025
   60DOPE   H2Y 7646   0.217   8.751   7.460  0.0485 -1.1890  0.4164
   60DOPE   C23 7647   0.322   9.572   7.073 -0.3568 -0.2022 -0.1444
   60DOPE   H3R 7648   0.314   9.571   6.963 -0.1861 -0.6057 -0.1551
   60DOPE   H3S 7649   0.384   9.661   7.096 -0.4799  0.4895 -2.2660
   60DOPE   C24 7650   0.175   9.579   7.135  0.2915 -0.6567 -0.5124
   60DOPE   H4R 7651   0.188   9.579   7.246 -0.2621  0.8716 -0.4174
   60DOPE   H4S 7652   0.110   9.496   7.101 -0.6070 -0.3403  0.3688
   60DOPE   C25 7653   0.101   9.716   7.101 -0.2642  0.0723  0.3913
   60DOPE   H5R 7654  -0.003   9.701   7.139 -0.6388  0.0208 -0.6200
   60DOPE   H5S 7655   0.089   9.716   6.991 -0.7041  0.6409  0.4335
   60DOPE   C26 7656   0.155   9.846   7.157  0.1732 -0.3006 -0.1168
   60DOPE   H6R 7657   0.094   9.930   7.118 -1.9208 -1.5742  0.3030
   60DOPE   H6S 7658   0.248   9.867   7.100 -0.1952  1.5776 -0.0994
   60DOPE   C27 7659   0.186   9.856   7.310  0.2145  0.9896  0.3989
   60DOPE   H7R 7660   0.244   9.767   7.344 -1.1998  0.0322  0.3649
   60DOPE   H7S 7661   0.083   9.841   7.348  0.0989  1.2802  0.2120
   60DOPE   C28 7662   0.245   9.994   7.351  0.8370  0.1005 -0.7440
   60DOPE   H8R 7663   0.350  10.013   7.318  0.3580  0.4569 -2.1510
   60DOPE   H8S 7664   0.246   9.991   7.462 -3.5517 -2.7916 -0.5617
   60DOPE   C29 7665   0.167  10.110   7.295 -0.0419 -0.0054  0.5864
   60DOPE   H9R 7666   0.210  10.168   7.211 -0.1995  0.3090  0.7213
   60DOPE  C210 7667   0.048  10.155   7.333 -0.8575 -0.3053 -0.2102
   60DOPE  H10R 7668   0.019  10.254   7.295  2.4254  0.0687 -2.0877
   60DOPE  C211 7669  -0.039  10.106   7.443  0.8915 -0.2455 -0.3402
   60DOPE  H11R 7670   0.003  10.022   7.502 -1.0466 -0.5208  0.7489
   60DOPE  H11S 7671  -0.131  10.061   7.400  0.6669 -0.3631  0.2432
   60DOPE  C212 7672  -0.088  10.212   7.542  0.1256 -0.0442  0.4076
   60DOPE  H12R 7673  -0.152  10.168   7.622 -0.4653  0.3057  0.1348
   60DOPE  H12S 7674  -0.152  10.282   7.485 -1.0062  0.7996  2.5821
   60DOPE  C213 7675   0.034  10.282   7.601  0.6675 -0.0593  0.3082
   60DOPE  H13R 7676   0.080  10.354   7.530  1.8265  0.4014  1.5006
   60DOPE  H13S 7677   0.120  10.216   7.624  1.8386  0.4570 -2.2520
   60DOPE  C214 7678  -0.006  10.367   7.725 -0.1521 -0.3126 -0.1985
   60DOPE  H14R 7679  -0.061  10.292   7.787  0.5096  0.0459  0.8568
   60DOPE  H14S 7680  -0.065  10.455   7.694 -0.1749 -0.3185 -0.1720
   60DOPE  C215 7681   0.120  10.417   7.812  0.0272  0.4950  0.0160
   60DOPE  H15R 7682   0.154  10.322   7.857  1.5630  0.2067 -1.6653
   60DOPE  H15S 7683   0.080  10.486   7.890 -0.2632 -1.1246  1.3437
   60DOPE  C216 7684   0.225  10.493   7.728  0.3372  0.0257 -0.3988
   60DOPE  H16R 7685   0.186  10.592   7.694  0.1706  0.1453  0.1279
   60DOPE  H16S 7686   0.251  10.441   7.633 -1.3865  0.0942 -0.9365
   60DOPE  C217 7687   0.333  10.534   7.820 -0.4731 -0.9053 -0.1246
   60DOPE  H17R 7688   0.348  10.445   7.885  1.4504 -0.0486  0.6615
   60DOPE  H17S 7689   0.316  10.624   7.882  2.4039 -0.2810 -0.0870
   60DOPE  C218 7690   0.467  10.545   7.750 -0.6719  0.0531 -0.1848
   60DOPE  H18R 7691   0.474  10.483   7.659  0.7682  3.8074 -2.8893
   60DOPE  H18S 7692   0.562  10.530   7.807  0.0327  1.3598 -0.9571
   60DOPE  H18T 7693   0.466  10.647   7.707  1.2790  0.4647  0.6339
   60DOPE   C33 7694   0.384   8.659   7.558 -0.2978 -0.3033 -0.0612
   60DOPE   H3X 7695   0.482   8.687   7.601  0.3305  0.5793 -1.9602
   60DOPE   H3Y 7696   0.415   8.585   7.481  1.6442  0.5424 -0.1489
   60DOPE   C34 7697   0.293   8.591   7.659  0.3379 -0.0591  0.3153
   60DOPE   H4X 7698   0.350   8.512   7.712 -1.9470 -0.6021  2.0685
   60DOPE   H4Y 7699   0.264   8.672   7.729  0.8995 -0.3131  0.8508
   60DOPE   C35 7700   0.172   8.522   7.601  0.1021  0.3098  0.2399
   60DOPE   H5X 7701   0.203   8.417   7.585 -2.0895 -0.4106  0.3706
   60DOPE   H5Y 7702   0.159   8.562   7.499  2.0752  0.0488 -0.1383
   60DOPE   C36 7703   0.038   8.537   7.672  0.0275  0.3587  0.1715
   60DOPE   H6X 7704   0.016   8.646   7.664  1.5589  0.6660 -0.3836
   60DOPE   H6Y 7705   0.068   8.513   7.777  3.5769  1.5106 -0.4138
   60DOPE   C37 7706  -0.077   8.457   7.618 -0.1877  0.2541  0.1052
   60DOPE   H7X 7707  -0.087   8.490   7.512 -1.2154  0.4911  0.2638
   60DOPE   H7Y 7708  -0.055   8.349   7.618  0.5179  0.3502  2.3394
   60DOPE   C38 7709  -0.214   8.493   7.685  0.3185 -0.1879  0.0540
   60DOPE   H8X 7710  -0.296   8.424   7.655  0.9481 -1.0812  0.3449
   60DOPE   H8Y 7711  -0.235   8.591   7.638  2.6126  0.1495 -0.3822
   60DOPE   C39 7712  -0.217   8.490   7.836 -0.7471 -0.3643 -0.5831
   60DOPE   H9X 7713  -0.200   8.395   7.888  2.1892 -0.2250 -1.1423
   60DOPE  C310 7714  -0.206   8.607   7.920  0.7937  0.1095 -0.1774
   60DOPE  H10X 7715  -0.225   8.597   8.028  1.3938 -3.9449 -0.2831
   60DOPE  C311 7716  -0.209   8.751   7.873 -0.2077  0.6916  0.2421
   60DOPE  H11X 7717  -0.211   8.761   7.762 -2.7552  0.2384  0.1771
   60DOPE  H11Y 7718  -0.306   8.792   7.911 -1.5245 -2.4018  0.5446
   60DOPE  C312 7719  -0.084   8.818   7.927  0.0867 -0.5035 -0.4646
   60DOPE  H12X 7720   0.006   8.768   7.885 -0.3840 -2.0211  0.2874
   60DOPE  H12Y 7721  -0.078   8.824   8.037 -1.3552  0.9001 -0.4186
   60DOPE  C313 7722  -0.066   8.967   7.884  0.0744 -0.6775  0.4549
   60DOPE  H13X 7723  -0.062   8.992   7.776  1.5832 -0.2439  0.5814
   60DOPE  H13Y 7724  -0.149   9.027   7.928 -1.0942 -2.9671  1.5712
   60DOPE  C314 7725   0.068   9.015   7.941  0.3121 -0.0205 -0.6259
   60DOPE  H14X 7726   0.076   8.991   8.049  2.2642  0.9041 -0.5245
   60DOPE  H14Y 7727   0.071   9.126   7.935  0.8170 -0.0262 -0.4551
   60DOPE  C315 7728   0.193   8.957   7.863 -0.7665  0.1882  0.1236
   60DOPE  H15X 7729   0.180   8.997   7.760 -2.2393  0.1152  0.2665
   60DOPE  H15Y 7730   0.194   8.847   7.881  1.4204  0.4231  1.7903
   60DOPE  C316 7731   0.327   9.013   7.922  0.3951  0.4896 -0.3341
   60DOPE  H16X 7732   0.406   8.959   7.866 -0.7350 -0.0561 -1.4574
   60DOPE  H16Y 7733   0.330   8.988   8.030 -1.8020 -1.6425 -0.6848
   60DOPE  C317 7734   0.349   9.165   7.905  0.1221 -0.3617 -0.2112
   60DOPE  H17X 7735   0.437   9.172   7.838  1.7162 -0.9460  1.7223
   60DOPE  H17Y 7736   0.271   9.221   7.848  1.3627  2.9028  1.0234
   60DOPE  C318 7737   0.362   9.251   8.034 -0.0417 -0.7762 -0.0634
   60DOPE  H18X 7738   0.270   9.241   8.097  0.0622  0.4482  0.2973
   60DOPE  H18Y 7739   0.447   9.199   8.082  0.0648 -0.1190  0.4791
   60DOPE  H18Z 7740   0.388   9.357   8.016  0.8039 -0.9876 -0.0955
   6123SM     N 7741   2.498   5.445  10.133  0.5950 -0.0182 -0.1015
   6123SM   C15 7742   2.511   5.594  10.145  0.0140  0.3441 -0.2192
   6123SM  H15A 7743   2.440   5.642  10.080 -0.5815 -0.6220 -0.3012
   6123SM  H15B 7744   2.608   5.626  10.111 -0.4155  1.6287 -0.2774
   6123SM  H15C 7745   2.501   5.631  10.246 -1.3468  0.4719 -0.3929
   6123SM   C14 7746   2.620   5.376  10.205 -0.1841 -0.9493  0.6476
   6123SM  H14A 7747   2.609   5.269  10.198  2.8857 -1.3877  1.1041
   6123SM  H14B 7748   2.635   5.414  10.305 -0.2087 -2.1044  1.0979
   6123SM  H14C 7749   2.711   5.392  10.149 -1.7871  2.6248 -1.2594
   6123SM   C13 7750   2.378   5.395  10.201  0.8329 -0.4794  0.4343
   6123SM  H13A 7751   2.379   5.287  10.201  2.4896 -0.5079 -0.3954
   6123SM  H13B 7752   2.295   5.428  10.140  2.6490  1.3821 -1.2252
   6123SM  H13C 7753   2.357   5.433  10.300 -0.2433  2.2171 -0.7235
   6123SM   C12 7754   2.504   5.396   9.982 -0.3063 -0.0423 -0.7029
   6123SM  H12A 7755   2.498   5.288   9.977  0.5994 -0.1386  0.1465
   6123SM  H12B 7756   2.603   5.416   9.943 -0.2182 -0.8270 -0.8930
   6123SM   C11 7757   2.390   5.451   9.887 -0.5850 -0.2434 -0.1747
   6123SM  H11A 7758   2.299   5.429   9.946 -0.4623  0.7875  0.4146
   6123SM  H11B 7759   2.374   5.398   9.790 -3.5906  1.8068 -0.9522
   6123SM     P 7760   2.510   5.651   9.766 -0.1009 -0.1042 -0.1052
   6123SM   O13 7761   2.468   5.775   9.705 -0.1542 -0.5088  0.3952
   6123SM   O14 7762   2.637   5.665   9.838 -0.4290 -0.4544 -0.3889
   6123SM   O11 7763   2.521   5.536   9.654  0.3757 -0.1396  0.5330
   6123SM   O12 7764   2.399   5.594   9.864  0.1627  0.0536  0.5206
   6123SM   C1S 7765   2.421   5.524   9.551  0.2863  0.4728 -0.9088
   6123SM   H1S 7766   2.328   5.579   9.576  1.0287  1.6463 -0.6559
   6123SM   H1T 7767   2.401   5.416   9.532 -0.2993  0.7256 -1.7784
   6123SM    NF 7768   2.386   5.531   9.312  0.6922 -0.0854 -0.2273
   6123SM   HNF 7769   2.424   5.458   9.256 -1.3678 -1.1360 -0.3555
   6123SM   C2S 7770   2.467   5.581   9.417  0.0514 -0.7565  0.6512
   6123SM   H2S 7771   2.437   5.688   9.420  0.7634 -0.5424  0.2077
   6123SM   C3S 7772   2.623   5.556   9.381 -0.1232 -0.1948 -0.1070
   6123SM   H3S 7773   2.651   5.448   9.375 -1.6245 -0.5168 -2.6354
   6123SM    O3 7774   2.714   5.599   9.485 -0.1301  0.1385  0.0805
   6123SM   HO3 7775   2.671   5.579   9.568 -1.8077  0.2439 -0.7078
   6123SM   C4S 7776   2.664   5.604   9.249  0.2580  0.3230 -0.0254
   6123SM   H4S 7777   2.667   5.528   9.170 -1.6429  0.5920 -0.3855
   6123SM   C5S 7778   2.705   5.725   9.208 -0.0231 -0.4215  0.1783
   6123SM   H5S 7779   2.712   5.800   9.288  0.2525 -2.5404  2.2355
   6123SM   C6S 7780   2.754   5.783   9.073 -0.3565  0.0417 -0.5604
   6123SM   H6S 7781   2.770   5.701   9.000  0.6207 -1.4779  1.2526
   6123SM   H6T 7782   2.851   5.837   9.074  0.7737 -1.8528 -2.0526
   6123SM   C7S 7783   2.643   5.867   9.005  0.3391 -0.9272  0.7815
   6123SM   H7S 7784   2.599   5.946   9.069 -1.4036 -1.8312  0.7516
   6123SM   H7T 7785   2.558   5.800   8.980  1.9000 -2.1468 -1.7044
   6123SM   C8S 7786   2.684   5.929   8.871 -0.2836 -0.3425  0.7300
   6123SM   H8S 7787   2.722   5.852   8.801 -0.6671  0.3281 -0.2385
   6123SM   H8T 7788   2.774   5.993   8.886 -1.2975  0.9289  1.5987
   6123SM   C9S 7789   2.579   6.004   8.794 -0.8755 -0.0893 -0.0338
   6123SM   H9S 7790   2.534   6.089   8.850 -2.1524 -0.3169 -0.6752
   6123SM   H9T 7791   2.496   5.934   8.770  0.0142 -1.2307  0.1636
   6123SM  C10S 7792   2.623   6.060   8.665 -0.7061  0.0847 -0.2919
   6123SM  H10S 7793   2.707   6.127   8.694 -0.3934 -0.3431 -0.1912
   6123SM  H10T 7794   2.538   6.120   8.627 -0.2402  0.0643 -1.4143
   6123SM  C11S 7795   2.670   5.958   8.558  0.0086 -0.4415 -0.1080
   6123SM  H11S 7796   2.593   5.878   8.559  1.0479 -1.4925  1.7921
   6123SM  H11T 7797   2.768   5.913   8.582 -0.5505 -1.7183 -0.1266
   6123SM  C12S 7798   2.682   6.021   8.421 -0.4424 -1.1280 -0.5920
   6123SM  H12S 7799   2.749   6.109   8.418 -1.2628 -0.4970 -0.4911
   6123SM  H12T 7800   2.582   6.041   8.378  0.1569 -0.2613 -1.6295
   6123SM  C13S 7801   2.729   5.907   8.316 -0.1925 -0.5594  0.5319
   6123SM  H13S 7802   2.677   5.815   8.350 -1.6589 -0.1666 -0.5525
   6123SM  H13T 7803   2.840   5.905   8.321 -0.1892  0.3900  1.0041
   6123SM  C14S 7804   2.697   5.940   8.164  0.2449 -0.0554 -0.8451
   6123SM  H14S 7805   2.588   5.961   8.166  0.4076  0.8122  0.4881
   6123SM  H14T 7806   2.711   5.842   8.114 -0.2224 -0.5573 -0.0191
   6123SM  C15S 7807   2.769   6.064   8.105  0.3990  0.0384  0.3595
   6123SM  H15S 7808   2.874   6.062   8.142  0.7480  0.8622 -0.5548
   6123SM  H15T 7809   2.726   6.160   8.140  1.5978 -0.1316  2.5198
   6123SM  C16S 7810   2.759   6.056   7.952 -0.2720  0.7736 -0.2236
   6123SM  H16S 7811   2.656   6.076   7.914 -0.5733  0.9191  0.6445
   6123SM  H16T 7812   2.782   5.954   7.913 -0.1300  1.2685 -1.4866
   6123SM  C17S 7813   2.855   6.153   7.886 -0.4937 -0.1841 -0.3081
   6123SM  H17S 7814   2.958   6.143   7.925 -0.1820 -0.9527 -1.2937
   6123SM  H17T 7815   2.817   6.252   7.919  0.9040  0.1570  0.3269
   6123SM  C18S 7816   2.866   6.138   7.740  0.6124  0.4912  0.1148
   6123SM  H18S 7817   2.941   6.200   7.686  1.7466  0.2479  1.3584
   6123SM  H18T 7818   2.766   6.167   7.702 -0.1766  0.7244  2.2286
   6123SM  H18U 7819   2.891   6.031   7.719  2.6327  1.1791 -1.3030
   6123SM   C1F 7820   2.257   5.545   9.302 -0.4844  0.4794 -1.2190
   6123SM    OF 7821   2.213   5.638   9.370  0.2699  0.0136 -0.4475
   6123SM   C2F 7822   2.176   5.461   9.213  0.5112 -0.0615 -0.3495
   6123SM   H2F 7823   2.234   5.393   9.147  0.1081 -1.6957  0.9142
   6123SM   H2G 7824   2.109   5.515   9.143 -0.8564  0.2245  1.1294
   6123SM   C3F 7825   2.074   5.364   9.277 -0.2056  0.0278 -0.0278
   6123SM   H3F 7826   2.000   5.408   9.347 -0.4384  0.0623 -0.2935
   6123SM   H3G 7827   2.129   5.288   9.338  2.3916  0.1877 -1.9912
   6123SM   C4F 7828   1.997   5.286   9.171 -0.4134 -0.1683 -0.3972
   6123SM   H4F 7829   2.069   5.255   9.093  0.2758 -2.1034  0.9585
   6123SM   H4G 7830   1.924   5.350   9.115 -1.6806 -0.2455  1.1072
   6123SM   C5F 7831   1.929   5.158   9.215  0.7326  0.4090  0.4591
   6123SM   H5F 7832   1.847   5.177   9.288  0.7192 -0.4026  0.6683
   6123SM   H5G 7833   2.001   5.090   9.265  0.4473  0.0683  0.4135
   6123SM   C6F 7834   1.861   5.088   9.097 -0.1635 -0.0717  0.2468
   6123SM   H6F 7835   1.949   5.029   9.063 -1.6069 -2.1939 -0.0735
   6123SM   H6G 7836   1.821   5.163   9.025  1.2964 -2.7439 -3.7314
   6123SM   C7F 7837   1.752   4.987   9.126 -0.2163  0.0202 -0.0703
   6123SM   H7F 7838   1.680   5.018   9.205 -0.1160  2.3509 -0.8129
   6123SM   H7G 7839   1.811   4.907   9.176 -0.8742 -0.8666 -0.7094
   6123SM   C8F 7840   1.668   4.946   9.013  0.5203 -0.1817  0.1896
   6123SM   H8F 7841   1.603   5.026   8.972  0.2613  1.7325  3.8976
   6123SM   H8G 7842   1.599   4.865   9.046 -0.9736  1.1926  0.5895
   6123SM   C9F 7843   1.751   4.885   8.892  1.1375  0.4006  0.8184
   6123SM   H9F 7844   1.844   4.841   8.937  0.9765 -1.2183 -0.3482
   6123SM   H9G 7845   1.790   4.967   8.828  0.2570  0.0178 -0.2364
   6123SM  C10F 7846   1.683   4.757   8.822 -0.1109  0.4696 -0.4478
   6123SM  H10F 7847   1.591   4.796   8.772 -0.8647 -1.3509 -0.5352
   6123SM  H10G 7848   1.649   4.703   8.913 -1.2809  1.6860 -0.1178
   6123SM  C11F 7849   1.777   4.682   8.736  0.2816 -0.1736  0.7403
   6123SM  H11F 7850   1.882   4.663   8.767  1.5850  0.0634 -3.0270
   6123SM  H11G 7851   1.773   4.736   8.639  0.4196 -1.4239  0.0140
   6123SM  C12F 7852   1.705   4.545   8.698  0.0035 -0.2302  0.1442
   6123SM  H12F 7853   1.606   4.564   8.650 -0.0545  0.2934  0.4607
   6123SM  H12G 7854   1.695   4.484   8.789  1.7421  0.6771  1.0021
   6123SM  C13F 7855   1.779   4.461   8.594  0.3020  0.5947  0.1803
   6123SM  H13F 7856   1.740   4.358   8.602 -1.4093  0.9909 -2.0133
   6123SM  H13G 7857   1.887   4.467   8.616  0.3477  0.4346 -0.0057
   6123SM  C14F 7858   1.744   4.503   8.443  0.0382  0.7027 -0.2502
   6123SM  H14F 7859   1.803   4.592   8.410  1.2965 -1.2507 -3.7403
   6123SM  H14G 7860   1.634   4.518   8.440  0.2913  2.7883 -3.3423
   6123SM  C15F 7861   1.760   4.391   8.339  0.5112  0.1712  0.0605
   6123SM  H15F 7862   1.687   4.310   8.360 -1.9955  2.2738  0.0339
   6123SM  H15G 7863   1.861   4.347   8.329  0.0951 -0.6060 -0.8911
   6123SM  C16F 7864   1.730   4.439   8.195 -0.0208 -0.2715 -0.6917
   6123SM  H16F 7865   1.625   4.473   8.179  0.0835  0.4355  0.0747
   6123SM  H16G 7866   1.752   4.356   8.124 -0.6732 -1.6232  0.6247
   6123SM  C17F 7867   1.824   4.553   8.145  0.2948 -0.1778  0.2764
   6123SM  H17F 7868   1.923   4.509   8.122 -0.0853 -2.0995  2.0164
   6123SM  H17G 7869   1.836   4.625   8.228 -1.8596  0.1029  0.3887
   6123SM  C18F 7870   1.774   4.621   8.018  0.4296 -0.2033  0.3986
   6123SM  H18F 7871   1.746   4.554   7.934 -0.9739  0.7084  0.1092
   6123SM  H18G 7872   1.851   4.692   7.980 -1.9064  1.6567 -1.1195
   6123SM  C19F 7873   1.659   4.718   8.040 -0.6576 -0.1873  0.0162
   6123SM  H19F 7874   1.667   4.817   7.989 -0.4954 -0.6979 -0.9785
   6123SM  H19G 7875   1.647   4.731   8.150 -3.7666  1.3975 -0.4005
   6123SM  C20F 7876   1.519   4.659   8.000  0.0655 -0.3622  0.3045
   6123SM  H20F 7877   1.502   4.565   8.057  2.8373 -0.7981  0.5555
   6123SM  H20G 7878   1.526   4.632   7.893  1.2164  0.5771  0.1229
   6123SM  C21F 7879   1.407   4.761   8.022 -0.3399 -0.2629 -0.0891
   6123SM  H21F 7880   1.428   4.848   7.957 -1.0791  0.5228  0.6915
   6123SM  H21G 7881   1.408   4.793   8.129  0.2366  0.5884 -0.3447
   6123SM  C22F 7882   1.263   4.721   7.994 -0.1337 -0.3022 -0.0296
   6123SM  H22F 7883   1.208   4.816   7.980  2.2609  0.9475 -1.3759
   6123SM  H22G 7884   1.229   4.669   8.087  0.9746  0.1452  0.6482
   6123SM  C23F 7885   1.232   4.636   7.868  0.2860  0.3280 -0.1502
   6123SM  H23F 7886   1.227   4.529   7.898 -1.2228  1.0525  2.5287
   6123SM  H23G 7887   1.307   4.647   7.787 -0.4248 -0.0109 -0.8647
   6123SM  H23H 7888   1.130   4.664   7.834 -0.0560  1.5914  1.7307
   6223SM     N 7889   4.226   4.299   9.568 -0.1827  0.3493 -0.6697
   6223SM   C15 7890   4.324   4.369   9.660 -0.2273  0.8973 -0.7626
   6223SM  H15A 7891   4.412   4.395   9.603  0.6954 -0.4924 -0.0293
   6223SM  H15B 7892   4.352   4.311   9.747  1.4255  1.9894 -0.5177
   6223SM  H15C 7893   4.280   4.461   9.693 -0.5565  0.0879  1.1432
   6223SM   C14 7894   4.280   4.164   9.549 -0.1033  0.2026  0.4174
   6223SM  H14A 7895   4.374   4.161   9.496 -1.6954 -0.4084 -2.6355
   6223SM  H14B 7896   4.214   4.096   9.497 -0.1337  1.1422 -0.8156
   6223SM  H14C 7897   4.282   4.122   9.648 -0.6191  0.3748  0.5059
   6223SM   C13 7898   4.100   4.291   9.640 -0.1641  0.6458  0.7434
   6223SM  H13A 7899   4.015   4.248   9.588  1.4063 -0.7473 -0.8154
   6223SM  H13B 7900   4.062   4.387   9.672  0.3262  0.1534  2.9985
   6223SM  H13C 7901   4.115   4.238   9.733  0.0606  1.7179  1.3281
   6223SM   C12 7902   4.213   4.383   9.434 -0.5926  0.0503 -0.8133
   6223SM  H12A 7903   4.311   4.384   9.389  0.5501 -0.8331  1.4913
   6223SM  H12B 7904   4.198   4.485   9.465 -0.7727 -0.1607 -0.2004
   6223SM   C11 7905   4.103   4.343   9.331 -0.3850 -0.3190  0.5593
   6223SM  H11A 7906   4.116   4.241   9.287 -1.9889 -0.2299 -0.1718
   6223SM  H11B 7907   4.126   4.407   9.243  0.0730 -0.0335  0.8823
   6223SM     P 7908   3.914   4.498   9.418  0.1496 -0.2014 -0.5100
   6223SM   O13 7909   3.794   4.483   9.500  1.0778  0.5741 -0.5629
   6223SM   O14 7910   4.022   4.580   9.473 -0.0178 -0.1489  0.0532
   6223SM   O11 7911   3.881   4.559   9.275  0.1256 -0.8395 -0.6630
   6223SM   O12 7912   3.969   4.355   9.381  0.3992 -0.2276 -0.2640
   6223SM   C1S 7913   3.788   4.666   9.274  0.6434 -0.1941 -0.3439
   6223SM   H1S 7914   3.833   4.762   9.307  0.2157 -0.6862  1.8655
   6223SM   H1T 7915   3.710   4.655   9.354  2.1808 -0.2170  1.2124
   6223SM    NF 7916   3.631   4.803   9.125 -0.1681  0.0678  0.3654
   6223SM   HNF 7917   3.532   4.794   9.116 -0.1252  0.9637 -1.3574
   6223SM   C2S 7918   3.715   4.692   9.134  1.2908 -0.3782 -0.0405
   6223SM   H2S 7919   3.794   4.717   9.061  0.5578  0.1501 -0.6694
   6223SM   C3S 7920   3.643   4.564   9.089 -0.0486 -0.1667 -0.7528
   6223SM   H3S 7921   3.560   4.545   9.160  0.7358 -2.0574 -0.3034
   6223SM    O3 7922   3.722   4.446   9.105 -0.3476  0.3207  0.1621
   6223SM   HO3 7923   3.795   4.471   9.163  0.4476 -0.1196 -0.6453
   6223SM   C4S 7924   3.573   4.584   8.951  0.3244  1.1352 -0.6383
   6223SM   H4S 7925   3.468   4.615   8.967  0.1754  0.3311 -0.0027
   6223SM   C5S 7926   3.608   4.559   8.826 -0.8665 -0.2105  0.3683
   6223SM   H5S 7927   3.698   4.501   8.799 -0.3094  0.6660  0.3117
   6223SM   C6S 7928   3.526   4.587   8.707 -0.0520 -0.6050  0.2707
   6223SM   H6S 7929   3.419   4.612   8.727 -1.2328 -3.4777 -1.7581
   6223SM   H6T 7930   3.519   4.489   8.655  2.1106 -0.4969 -0.3062
   6223SM   C7S 7931   3.579   4.710   8.635 -1.1594 -0.8180 -0.0278
   6223SM   H7S 7932   3.684   4.696   8.604 -1.8729 -0.8486 -2.6372
   6223SM   H7T 7933   3.576   4.787   8.716  1.0662 -1.9476  1.2198
   6223SM   C8S 7934   3.501   4.744   8.514  0.0560 -0.5539  0.3898
   6223SM   H8S 7935   3.404   4.788   8.545 -0.5592 -0.8896 -0.9673
   6223SM   H8T 7936   3.478   4.652   8.457  2.2001 -0.4056 -0.8157
   6223SM   C9S 7937   3.564   4.848   8.416  0.4654 -0.4381 -0.5226
   6223SM   H9S 7938   3.584   4.941   8.473 -1.5963  0.9144 -1.8536
   6223SM   H9T 7939   3.492   4.873   8.335  1.7600 -0.3874 -1.6935
   6223SM  C10S 7940   3.684   4.784   8.349 -0.0808  0.0521  0.2228
   6223SM  H10S 7941   3.658   4.701   8.280  1.5363 -1.0120  0.8121
   6223SM  H10T 7942   3.753   4.741   8.425  0.3072 -2.0450 -1.2349
   6223SM  C11S 7943   3.780   4.887   8.274  0.8246 -0.2362  0.4975
   6223SM  H11S 7944   3.886   4.852   8.277 -0.1001 -3.3738 -0.3958
   6223SM  H11T 7945   3.770   4.980   8.335  1.4040  0.2874 -0.1854
   6223SM  C12S 7946   3.740   4.917   8.131  0.3758 -0.0789  0.0051
   6223SM  H12S 7947   3.642   4.970   8.132  0.6756  0.4954 -0.4758
   6223SM  H12T 7948   3.728   4.822   8.076 -3.8592  0.0019  0.4522
   6223SM  C13S 7949   3.834   5.014   8.051 -0.6246 -0.2141  1.0164
   6223SM  H13S 7950   3.937   4.973   8.048 -0.2179  0.6362  2.4725
   6223SM  H13T 7951   3.846   5.109   8.108 -0.4169 -0.6107  1.6412
   6223SM  C14S 7952   3.792   5.048   7.909  0.5704 -0.2612 -0.3430
   6223SM  H14S 7953   3.869   5.114   7.866  0.8948 -0.4217 -0.0075
   6223SM  H14T 7954   3.702   5.113   7.921 -1.2105 -2.7651  1.0852
   6223SM  C15S 7955   3.760   4.927   7.822  0.6833 -0.7667 -0.1255
   6223SM  H15S 7956   3.665   4.886   7.861  0.4534 -0.1167  0.0026
   6223SM  H15T 7957   3.843   4.853   7.833  1.4088 -0.7847 -4.1010
   6223SM  C16S 7958   3.748   4.957   7.667  0.2834  0.1756 -1.1831
   6223SM  H16S 7959   3.755   4.860   7.612  0.0776 -1.7745  1.9866
   6223SM  H16T 7960   3.836   5.017   7.637  0.5887 -0.0759 -0.8098
   6223SM  C17S 7961   3.622   5.027   7.627  0.0494 -0.3024  0.8724
   6223SM  H17S 7962   3.625   5.137   7.647 -1.0814 -0.0933 -0.0294
   6223SM  H17T 7963   3.534   4.995   7.686  0.0614  2.7314  2.7836
   6223SM  C18S 7964   3.603   5.023   7.475 -0.6096  0.1054  0.6028
   6223SM  H18S 7965   3.590   4.915   7.452 -0.2429  0.3364 -0.7472
   6223SM  H18T 7966   3.691   5.060   7.418 -0.6210 -0.3164  0.3093
   6223SM  H18U 7967   3.510   5.071   7.436 -0.5090 -1.0051 -1.0950
   6223SM   C1F 7968   3.678   4.929   9.134 -0.4195  0.0744  0.6087
   6223SM    OF 7969   3.797   4.949   9.154 -0.8873 -0.0633 -0.2348
   6223SM   C2F 7970   3.569   5.036   9.141  0.4487  0.4694 -0.5470
   6223SM   H2F 7971   3.600   5.113   9.216  3.5483 -0.7003 -0.4456
   6223SM   H2G 7972   3.471   4.997   9.176  0.5197  1.3501  0.7332
   6223SM   C3F 7973   3.536   5.102   9.003  0.1201  0.0361  0.1603
   6223SM   H3F 7974   3.625   5.116   8.937  0.5385 -0.7339  0.5414
   6223SM   H3G 7975   3.491   5.203   9.011  0.6904  0.3399 -0.3699
   6223SM   C4F 7976   3.435   5.008   8.924 -0.0107  0.2429 -0.0040
   6223SM   H4F 7977   3.344   4.997   8.987 -1.7763  1.1262 -2.2458
   6223SM   H4G 7978   3.485   4.909   8.929  0.7670  0.4679 -2.3670
   6223SM   C5F 7979   3.410   5.051   8.785  0.3354  0.6157 -0.2280
   6223SM   H5F 7980   3.340   4.974   8.745  0.3393  0.2166  0.5142
   6223SM   H5G 7981   3.497   5.057   8.716  1.0010 -0.7084  0.4634
   6223SM   C6F 7982   3.322   5.167   8.766  0.8104 -0.2339 -0.4722
   6223SM   H6F 7983   3.340   5.237   8.850  0.2695 -0.9407  0.2413
   6223SM   H6G 7984   3.221   5.128   8.790  1.5257 -0.7871  1.9503
   6223SM   C7F 7985   3.309   5.232   8.623 -0.2139  0.2965 -0.0827
   6223SM   H7F 7986   3.235   5.313   8.638 -0.8814 -0.5665  1.6389
   6223SM   H7G 7987   3.276   5.147   8.560  1.4684 -0.7962  0.4453
   6223SM   C8F 7988   3.437   5.289   8.572  0.4815 -0.6972  0.3500
   6223SM   H8F 7989   3.412   5.327   8.470 -0.8059  0.9279  1.2142
   6223SM   H8G 7990   3.509   5.208   8.550  0.7986 -0.2734 -0.2314
   6223SM   C9F 7991   3.498   5.400   8.655 -1.0805 -0.4119  0.1481
   6223SM   H9F 7992   3.542   5.361   8.749 -0.5230 -0.6661 -0.2144
   6223SM   H9G 7993   3.417   5.471   8.682 -1.4823 -0.4462 -0.8996
   6223SM  C10F 7994   3.591   5.489   8.580 -0.4500 -0.2375 -0.2842
   6223SM  H10F 7995   3.556   5.519   8.479 -1.4585 -1.9358 -0.4725
   6223SM  H10G 7996   3.677   5.426   8.550 -1.6282 -1.6096 -0.9239
   6223SM  C11F 7997   3.647   5.593   8.679  0.0830 -0.2935 -0.1888
   6223SM  H11F 7998   3.681   5.534   8.767 -0.1404  1.1081  0.8799
   6223SM  H11G 7999   3.557   5.654   8.702 -0.2223 -1.5166  2.1823
   6223SM  C12F 8000   3.769   5.672   8.640 -0.1204  0.0751  0.5126
   6223SM  H12F 8001   3.756   5.723   8.542 -2.6948 -2.0104 -0.3473
   6223SM  H12G 8002   3.857   5.608   8.617  1.2948  1.7036  1.1100
   6223SM  C13F 8003   3.794   5.788   8.735  0.0605  0.5211 -0.3180
   6223SM  H13F 8004   3.810   5.749   8.838 -0.6604 -1.1811 -0.8141
   6223SM  H13G 8005   3.706   5.855   8.749  0.0916  0.6541 -0.7460
   6223SM  C14F 8006   3.930   5.853   8.702  0.0337 -0.0143  0.0099
   6223SM  H14F 8007   3.941   5.885   8.596  2.9940  0.4494  0.3571
   6223SM  H14G 8008   4.005   5.771   8.705 -0.0106 -0.0127  1.7299
   6223SM  C15F 8009   3.975   5.963   8.791  0.5196  0.6262  0.4658
   6223SM  H15F 8010   4.067   6.012   8.752  0.4273 -0.3429 -1.0193
   6223SM  H15G 8011   4.003   5.921   8.890  4.7894 -0.4558 -0.9991
   6223SM  C16F 8012   3.870   6.070   8.811 -0.6443 -0.6870  0.0385
   6223SM  H16F 8013   3.768   6.031   8.831 -1.1073 -0.6074 -1.9416
   6223SM  H16G 8014   3.860   6.135   8.721  0.1724  0.4837  0.7663
   6223SM  C17F 8015   3.900   6.159   8.935  0.3185  0.4836  0.1909
   6223SM  H17F 8016   3.971   6.239   8.904  0.2785 -0.1315 -1.5871
   6223SM  H17G 8017   3.959   6.111   9.016 -1.6066 -1.3825  0.5781
   6223SM  C18F 8018   3.787   6.245   8.999 -0.6255  1.1497  0.4886
   6223SM  H18F 8019   3.829   6.309   9.080  0.3246 -1.0334  1.8273
   6223SM  H18G 8020   3.701   6.180   9.027  0.1793 -1.4605 -2.5080
   6223SM  C19F 8021   3.738   6.356   8.899 -0.1377  0.6949 -0.1221
   6223SM  H19F 8022   3.706   6.318   8.799  1.0280  1.1525 -0.6871
   6223SM  H19G 8023   3.824   6.418   8.869  0.6483 -1.7753 -3.6210
   6223SM  C20F 8024   3.627   6.437   8.965  0.4242 -1.1700  0.2810
   6223SM  H20F 8025   3.555   6.365   9.009 -1.5920  0.1811 -0.6952
   6223SM  H20G 8026   3.582   6.500   8.886 -0.2035 -0.3907  1.2325
   6223SM  C21F 8027   3.672   6.533   9.079  0.3455  0.4299  0.3897
   6223SM  H21F 8028   3.758   6.595   9.046 -0.2780  1.0678 -0.0546
   6223SM  H21G 8029   3.705   6.474   9.167  1.0261 -0.5944 -0.5228
   6223SM  C22F 8030   3.563   6.634   9.122 -0.4093  0.6071  0.1746
   6223SM  H22F 8031   3.607   6.711   9.188  0.2060  1.0485 -0.7230
   6223SM  H22G 8032   3.489   6.577   9.183  1.5141  0.4951  2.5305
   6223SM  C23F 8033   3.482   6.697   9.009  0.0810 -0.3828 -0.0562
   6223SM  H23F 8034   3.550   6.724   8.925  0.3493 -2.4498 -0.5508
   6223SM  H23G 8035   3.428   6.786   9.048  0.0884  0.4919 -1.9136
   6223SM  H23H 8036   3.407   6.632   8.960 -0.2563 -0.6323  0.7712
   6323SM     N 8037   5.060   5.492   9.781 -0.6461 -0.2681 -0.3083
   6323SM   C15 8038   5.039   5.628   9.709 -0.0782  0.8155 -1.0861
   6323SM  H15A 8039   5.136   5.674   9.719 -0.2507  1.2940 -1.5474
   6323SM  H15B 8040   4.960   5.687   9.754 -1.9697 -0.6095 -2.3526
   6323SM  H15C 8041   5.006   5.621   9.606 -0.4292  0.2734 -0.9383
   6323SM   C14 8042   5.183   5.425   9.732 -0.0362  0.1161  0.6104
   6323SM  H14A 8043   5.272   5.482   9.751  0.9860 -1.4973  0.8981
   6323SM  H14B 8044   5.173   5.381   9.633  2.8249 -2.0866  1.1632
   6323SM  H14C 8045   5.188   5.330   9.783 -0.9439 -1.0481 -1.3178
   6323SM   C13 8046   5.096   5.524   9.925 -0.0609  0.2979  0.1578
   6323SM  H13A 8047   5.189   5.578   9.922 -0.1576  0.5431  1.1497
   6323SM  H13B 8048   5.109   5.442   9.994 -0.5545 -0.9080 -1.1433
   6323SM  H13C 8049   5.023   5.591   9.969 -2.7909 -3.1904  1.4517
   6323SM   C12 8050   4.936   5.405   9.754 -0.7858  0.3410 -0.3342
   6323SM  H12A 8051   4.931   5.388   9.647  1.4656 -0.0780 -0.4047
   6323SM  H12B 8052   4.850   5.467   9.778 -1.0215  0.4671 -1.4348
   6323SM   C11 8053   4.923   5.260   9.807 -0.6752 -0.2210  0.8137
   6323SM  H11A 8054   4.826   5.219   9.769  1.0626 -1.3397 -2.8211
   6323SM  H11B 8055   4.931   5.250   9.917 -0.9145  0.6769  0.9201
   6323SM     P 8056   5.111   5.078   9.820  0.0066  0.1571 -0.1098
   6323SM   O13 8057   5.205   5.142   9.913 -0.5980 -0.4527  0.2213
   6323SM   O14 8058   5.020   4.969   9.868 -0.6345  0.6004  0.7196
   6323SM   O11 8059   5.199   5.015   9.696  0.1517 -0.8359 -0.1718
   6323SM   O12 8060   5.028   5.187   9.743  0.5316  0.1889 -0.3778
   6323SM   C1S 8061   5.168   5.032   9.556 -0.2374  0.0176 -0.4201
   6323SM   H1S 8062   5.158   5.141   9.537  1.5990  0.5672  1.3087
   6323SM   H1T 8063   5.078   4.980   9.517 -0.1216  0.5124 -1.3608
   6323SM    NF 8064   5.230   4.987   9.321 -0.5884  0.5561  0.4143
   6323SM   HNF 8065   5.223   4.906   9.265 -1.2621  0.1484  1.0726
   6323SM   C2S 8066   5.280   4.973   9.464 -0.2178 -0.2052  0.7523
   6323SM   H2S 8067   5.373   5.031   9.482 -0.3994  0.1868  0.4383
   6323SM   C3S 8068   5.319   4.826   9.502 -0.1940 -0.0651 -0.8388
   6323SM   H3S 8069   5.224   4.769   9.498 -0.4347  0.0751  1.5220
   6323SM    O3 8070   5.342   4.801   9.641  0.3430 -0.3077  0.1287
   6323SM   HO3 8071   5.287   4.871   9.677 -0.5340  0.6449 -2.7386
   6323SM   C4S 8072   5.411   4.753   9.405  0.2421 -0.4735 -0.5240
   6323SM   H4S 8073   5.353   4.705   9.324  0.4689 -0.7701 -0.5119
   6323SM   C5S 8074   5.543   4.728   9.410  0.0406 -0.2300 -0.0552
   6323SM   H5S 8075   5.603   4.752   9.499 -0.5210 -0.6639  0.4428
   6323SM   C6S 8076   5.633   4.676   9.294  0.5817 -0.0605  0.1906
   6323SM   H6S 8077   5.687   4.587   9.332 -1.7503 -1.8138 -0.3456
   6323SM   H6T 8078   5.706   4.755   9.267  1.7674 -1.1104  0.2159
   6323SM   C7S 8079   5.554   4.635   9.167 -0.2988 -0.0436 -0.0715
   6323SM   H7S 8080   5.527   4.733   9.123  1.1783  1.2413  1.6977
   6323SM   H7T 8081   5.464   4.577   9.196  0.7876 -0.2954  3.2873
   6323SM   C8S 8082   5.635   4.551   9.072 -0.0237 -0.3813 -0.1133
   6323SM   H8S 8083   5.561   4.499   9.007 -0.4309 -0.8631  0.7183
   6323SM   H8T 8084   5.690   4.468   9.121 -1.5410 -0.5058  1.4829
   6323SM   C9S 8085   5.718   4.629   8.970 -0.2820 -0.4135  0.2046
   6323SM   H9S 8086   5.779   4.703   9.026 -0.2088  0.5208 -1.0479
   6323SM   H9T 8087   5.656   4.702   8.914 -0.8800 -2.0881 -1.3888
   6323SM  C10S 8088   5.798   4.540   8.877  0.6733  0.6000 -0.0955
   6323SM  H10S 8089   5.888   4.501   8.928  0.4299  0.5229  0.2782
   6323SM  H10T 8090   5.841   4.594   8.790  0.2200 -0.5548 -1.0703
   6323SM  C11S 8091   5.725   4.419   8.816  0.3430 -0.8479 -0.0661
   6323SM  H11S 8092   5.619   4.446   8.794  0.1262 -0.5824  1.2119
   6323SM  H11T 8093   5.726   4.347   8.901  0.4459 -2.5531 -1.4451
   6323SM  C12S 8094   5.801   4.365   8.701  0.2640  0.1374  0.3262
   6323SM  H12S 8095   5.906   4.354   8.735  0.5672  2.0518  0.1048
   6323SM  H12T 8096   5.822   4.427   8.611 -0.1370 -0.8397 -0.4614
   6323SM  C13S 8097   5.748   4.233   8.648 -0.1139  0.3410  0.1038
   6323SM  H13S 8098   5.760   4.148   8.719 -1.8006  0.7447  0.9112
   6323SM  H13T 8099   5.824   4.204   8.572  1.3321 -0.7341  1.8571
   6323SM  C14S 8100   5.607   4.242   8.586 -0.2011 -0.6650 -0.3818
   6323SM  H14S 8101   5.528   4.269   8.660 -0.4058  1.9633 -1.4388
   6323SM  H14T 8102   5.586   4.140   8.547 -3.2600 -0.2819 -0.0192
   6323SM  C15S 8103   5.604   4.345   8.470  0.2381  0.0616  0.6212
   6323SM  H15S 8104   5.700   4.328   8.417  0.3192  1.4690  0.2686
   6323SM  H15T 8105   5.619   4.447   8.510  0.6385  0.4672 -0.5125
   6323SM  C16S 8106   5.488   4.334   8.377  0.0518 -0.8611  0.9839
   6323SM  H16S 8107   5.501   4.421   8.309  0.2043  0.6133  2.8556
   6323SM  H16T 8108   5.386   4.348   8.419  0.9849  1.0656  2.7382
   6323SM  C17S 8109   5.500   4.202   8.290 -0.2489  0.5827  0.5889
   6323SM  H17S 8110   5.480   4.108   8.346  2.5669 -0.9100 -0.6833
   6323SM  H17T 8111   5.604   4.198   8.250 -1.4952  0.2725 -2.9999
   6323SM  C18S 8112   5.413   4.203   8.158 -0.1511  0.2975 -0.0914
   6323SM  H18S 8113   5.462   4.132   8.088 -0.6314  0.4094 -0.5467
   6323SM  H18T 8114   5.414   4.304   8.113 -0.5146 -0.2033 -1.2660
   6323SM  H18U 8115   5.309   4.169   8.178 -0.5130  0.8895 -0.9349
   6323SM   C1F 8116   5.197   5.111   9.276 -0.2402 -0.0168 -0.2125
   6323SM    OF 8117   5.261   5.210   9.321  0.0100 -0.8828  0.2839
   6323SM   C2F 8118   5.103   5.127   9.161 -0.0936 -0.3118  0.6831
   6323SM   H2F 8119   5.010   5.067   9.173 -0.2040 -1.4338 -3.8079
   6323SM   H2G 8120   5.155   5.091   9.070 -1.3524  0.2529 -0.2973
   6323SM   C3F 8121   5.057   5.281   9.138  0.0567  0.2849 -0.0721
   6323SM   H3F 8122   5.140   5.354   9.154 -1.5946  1.6883  3.0727
   6323SM   H3G 8123   4.990   5.304   9.224  1.2613  2.1223  0.4475
   6323SM   C4F 8124   4.986   5.313   9.002 -0.2767 -0.0733 -0.0962
   6323SM   H4F 8125   4.891   5.259   8.983 -0.8759  0.6764  0.6826
   6323SM   H4G 8126   5.066   5.283   8.931  1.5520  1.5252  1.1827
   6323SM   C5F 8127   4.967   5.463   8.984  0.6874 -0.1116  0.6821
   6323SM   H5F 8128   4.977   5.490   8.876  0.5715 -0.6747  0.5266
   6323SM   H5G 8129   5.047   5.520   9.036  0.8863 -0.6666  0.9913
   6323SM   C6F 8130   4.830   5.523   9.036 -0.7937  0.3990 -0.3490
   6323SM   H6F 8131   4.847   5.505   9.144  3.1589  1.3431 -0.6689
   6323SM   H6G 8132   4.741   5.463   9.006 -0.3023  0.4261 -2.0011
   6323SM   C7F 8133   4.815   5.670   8.990 -0.7192  0.0697 -0.1847
   6323SM   H7F 8134   4.784   5.667   8.883 -0.4385 -2.5984 -0.2479
   6323SM   H7G 8135   4.909   5.729   8.983 -2.2411  2.4944 -1.9153
   6323SM   C8F 8136   4.704   5.755   9.060  0.4771 -0.1703  0.5924
   6323SM   H8F 8137   4.752   5.817   9.138  1.3386  1.2322 -0.9919
   6323SM   H8G 8138   4.633   5.688   9.113 -2.1388  0.9158 -1.3236
   6323SM   C9F 8139   4.614   5.847   8.967 -0.1905  0.5124 -0.3318
   6323SM   H9F 8140   4.654   5.950   8.980 -0.7301  0.4918  1.8847
   6323SM   H9G 8141   4.521   5.859   9.026  0.9349  0.5179  1.5158
   6323SM  C10F 8142   4.587   5.810   8.820 -0.2394 -0.3983 -0.0084
   6323SM  H10F 8143   4.685   5.792   8.771  0.2091 -1.9704  1.3774
   6323SM  H10G 8144   4.539   5.893   8.765  0.9012  0.4652  0.2770
   6323SM  C11F 8145   4.501   5.688   8.808  1.0321  0.1623  0.1160
   6323SM  H11F 8146   4.405   5.698   8.864  0.5966 -1.7229 -0.2175
   6323SM  H11G 8147   4.549   5.601   8.860 -0.2858 -1.0028 -0.5565
   6323SM  C12F 8148   4.460   5.636   8.670  0.4181 -0.7239  0.4798
   6323SM  H12F 8149   4.552   5.598   8.619  0.3127  0.0674 -0.3325
   6323SM  H12G 8150   4.418   5.718   8.608 -0.7880 -1.4459  0.3193
   6323SM  C13F 8151   4.347   5.530   8.681  0.4401  0.0739  0.5382
   6323SM  H13F 8152   4.249   5.576   8.709  1.0980  0.9624  1.4787
   6323SM  H13G 8153   4.385   5.460   8.758  0.5988 -1.4887 -0.8978
   6323SM  C14F 8154   4.312   5.461   8.549  0.1684  0.4173  0.1267
   6323SM  H14F 8155   4.401   5.409   8.507  0.6054  1.0417  0.2568
   6323SM  H14G 8156   4.279   5.532   8.471  0.2592  0.2579 -0.0562
   6323SM  C15F 8157   4.200   5.356   8.575  0.9496 -0.0847  0.3624
   6323SM  H15F 8158   4.100   5.399   8.598 -0.1566 -0.5596 -3.0951
   6323SM  H15G 8159   4.231   5.289   8.658 -1.0086 -0.2342  1.0251
   6323SM  C16F 8160   4.183   5.268   8.448 -0.6377  0.3732  0.3226
   6323SM  H16F 8161   4.186   5.317   8.348 -4.0674 -3.4120 -1.9438
   6323SM  H16G 8162   4.083   5.220   8.444 -0.7380  0.5143  1.0246
   6323SM  C17F 8163   4.286   5.158   8.453  0.0248 -0.3197  0.6405
   6323SM  H17F 8164   4.270   5.097   8.545 -1.9616  0.2664  0.7183
   6323SM  H17G 8165   4.386   5.206   8.459  0.1670 -0.7551  2.2752
   6323SM  C18F 8166   4.277   5.070   8.327  0.3080 -0.4386  1.4462
   6323SM  H18F 8167   4.272   5.148   8.248  1.0258 -1.5174  0.2984
   6323SM  H18G 8168   4.182   5.012   8.328  0.1586 -0.2827 -0.4508
   6323SM  C19F 8169   4.387   4.968   8.307  0.1982 -0.4981  0.1865
   6323SM  H19F 8170   4.480   5.027   8.319 -1.5111  1.9254  2.8384
   6323SM  H19G 8171   4.382   4.920   8.207 -1.6629  0.2495 -0.1195
   6323SM  C20F 8172   4.400   4.868   8.424 -0.4501 -0.1047 -0.5903
   6323SM  H20F 8173   4.304   4.812   8.424 -2.1004  2.4805  1.5398
   6323SM  H20G 8174   4.406   4.915   8.524 -2.7672  1.3401 -1.0714
   6323SM  C21F 8175   4.523   4.775   8.409 -0.2370  0.4510  0.3748
   6323SM  H21F 8176   4.614   4.834   8.383  0.0065 -1.0772 -2.6973
   6323SM  H21G 8177   4.501   4.726   8.312  0.7558 -1.0492  0.8655
   6323SM  C22F 8178   4.543   4.682   8.523 -0.2340 -0.2435 -0.1626
   6323SM  H22F 8179   4.465   4.606   8.505  1.1189 -1.5864 -0.5886
   6323SM  H22G 8180   4.532   4.747   8.613 -1.4691 -1.0580  0.2955
   6323SM  C23F 8181   4.683   4.611   8.531  0.1100 -0.3418  0.1866
   6323SM  H23F 8182   4.685   4.517   8.590 -1.1831 -1.1914 -1.0546
   6323SM  H23G 8183   4.770   4.673   8.563 -0.0057  0.5786 -1.1802
   6323SM  H23H 8184   4.703   4.577   8.427  2.0524 -0.2258  0.4879
   6423SM     N 8185   6.188   5.531   9.961  0.1299 -0.8806  0.7968
   6423SM   C15 8186   6.105   5.656   9.983  0.6440  0.8206  0.7428
   6423SM  H15A 8187   6.004   5.623   9.964  1.4937 -2.0170  0.6735
   6423SM  H15B 8188   6.128   5.736   9.914 -0.4702  2.1346  1.8369
   6423SM  H15C 8189   6.107   5.700  10.082 -0.1405  1.2366  0.5873
   6423SM   C14 8190   6.335   5.553  10.000 -0.2338 -0.5233  0.1767
   6423SM  H14A 8191   6.367   5.648   9.961  0.0919 -1.9011 -3.1750
   6423SM  H14B 8192   6.403   5.483   9.955  1.5086  0.3506  1.3367
   6423SM  H14C 8193   6.350   5.544  10.107  2.7740 -0.1193 -0.1300
   6423SM   C13 8194   6.135   5.427  10.052  0.5799  0.4574 -0.2081
   6423SM  H13A 8195   6.028   5.412  10.046  0.6617 -0.0722 -0.4281
   6423SM  H13B 8196   6.153   5.451  10.156 -0.0749 -2.7922  0.7662
   6423SM  H13C 8197   6.172   5.327  10.034 -2.9358 -2.1297  4.5313
   6423SM   C12 8198   6.183   5.471   9.823 -0.1476 -0.0994  0.6072
   6423SM  H12A 8199   6.082   5.439   9.800 -0.0382 -0.6045  0.8005
   6423SM  H12B 8200   6.243   5.382   9.839  1.1489  0.7627  0.6955
   6423SM   C11 8201   6.250   5.559   9.711  0.2325  0.0434  0.6784
   6423SM  H11A 8202   6.352   5.587   9.745  0.8310  1.2764 -1.9078
   6423SM  H11B 8203   6.198   5.655   9.694  0.9677  0.2148 -0.7574
   6423SM     P 8204   6.360   5.375   9.554  0.2681  0.2409  0.2191
   6423SM   O13 8205   6.461   5.440   9.473 -0.2624 -0.1291 -0.1160
   6423SM   O14 8206   6.417   5.312   9.669  0.0118  0.4818  0.3658
   6423SM   O11 8207   6.298   5.269   9.455 -0.3618 -0.6867 -0.3329
   6423SM   O12 8208   6.238   5.483   9.590 -0.3822  0.2845  0.0593
   6423SM   C1S 8209   6.160   5.267   9.423  0.1007  0.4545 -0.4731
   6423SM   H1S 8210   6.099   5.310   9.505  1.2215 -1.1860  1.2914
   6423SM   H1T 8211   6.125   5.162   9.411  0.5257  0.4141 -1.4874
   6423SM    NF 8212   5.984   5.361   9.254  0.0175  0.6662 -0.3328
   6423SM   HNF 8213   5.934   5.284   9.216 -1.3986  0.4788  1.7821
   6423SM   C2S 8214   6.130   5.346   9.292  0.6510  0.0418  0.8678
   6423SM   H2S 8215   6.165   5.451   9.303  0.2471  0.2024  0.6372
   6423SM   C3S 8216   6.229   5.284   9.179 -0.7513 -0.7964 -0.0170
   6423SM   H3S 8217   6.193   5.180   9.159 -0.6910 -0.5618 -1.4503
   6423SM    O3 8218   6.369   5.282   9.206 -0.0736  0.5174 -0.3210
   6423SM   HO3 8219   6.384   5.338   9.282  1.5493 -0.0084 -0.2227
   6423SM   C4S 8220   6.203   5.362   9.052  0.2955  0.6069 -0.3070
   6423SM   H4S 8221   6.104   5.346   9.007 -1.8083  1.8732  3.3831
   6423SM   C5S 8222   6.270   5.469   9.008  0.1486  0.9369  0.2802
   6423SM   H5S 8223   6.366   5.498   9.053 -0.4264 -2.0450  3.9105
   6423SM   C6S 8224   6.229   5.550   8.891 -0.2958 -0.2266  0.3116
   6423SM   H6S 8225   6.250   5.658   8.908  0.9910 -0.0282 -2.0476
   6423SM   H6T 8226   6.121   5.545   8.867 -0.2108  1.3434 -0.5431
   6423SM   C7S 8227   6.286   5.501   8.756 -0.8252  0.0297 -0.5469
   6423SM   H7S 8228   6.248   5.398   8.737 -1.7056 -0.0037  1.1687
   6423SM   H7T 8229   6.397   5.490   8.761 -0.9390 -1.4937 -0.8811
   6423SM   C8S 8230   6.245   5.584   8.639  0.4786 -0.1533 -0.1654
   6423SM   H8S 8231   6.302   5.680   8.635  0.0989  0.0993  0.3450
   6423SM   H8T 8232   6.140   5.613   8.661 -0.2211 -1.8689 -1.1049
   6423SM   C9S 8233   6.256   5.508   8.505  0.6136 -0.5359 -0.0901
   6423SM   H9S 8234   6.211   5.407   8.520  0.5449 -0.2207  2.3462
   6423SM   H9T 8235   6.366   5.501   8.495  0.9326  0.9656  1.7442
   6423SM  C10S 8236   6.179   5.583   8.397 -0.1674 -0.5165  0.7804
   6423SM  H10S 8237   6.223   5.683   8.380 -1.2854 -0.5023 -2.7740
   6423SM  H10T 8238   6.080   5.613   8.438  0.5731  2.1683  0.7906
   6423SM  C11S 8239   6.164   5.505   8.265 -0.3798 -0.4987 -0.2569
   6423SM  H11S 8240   6.087   5.424   8.267 -0.1828 -0.6824  0.5763
   6423SM  H11T 8241   6.255   5.447   8.240  1.4900  1.1981  2.1481
   6423SM  C12S 8242   6.166   5.612   8.152  0.1415  0.8208 -0.4721
   6423SM  H12S 8243   6.243   5.691   8.168 -0.6702  1.7868 -1.2121
   6423SM  H12T 8244   6.068   5.663   8.143 -1.1081 -1.7245 -2.4072
   6423SM  C13S 8245   6.186   5.554   8.013  0.1248  0.1138  0.2473
   6423SM  H13S 8246   6.111   5.476   7.988  0.1629  0.1761 -0.0606
   6423SM  H13T 8247   6.280   5.499   7.991 -0.0256 -0.0603  0.0373
   6423SM  C14S 8248   6.172   5.673   7.914 -0.4627 -0.2731  0.7167
   6423SM  H14S 8249   6.256   5.743   7.931 -1.0139 -0.1697  3.5612
   6423SM  H14T 8250   6.084   5.737   7.936  0.7505  2.7406 -2.3753
   6423SM  C15S 8251   6.182   5.638   7.760 -0.3492  0.9988  0.1907
   6423SM  H15S 8252   6.170   5.735   7.706  1.9022  1.3918  0.2832
   6423SM  H15T 8253   6.101   5.570   7.726  2.4449 -1.9317 -1.1308
   6423SM  C16S 8254   6.310   5.571   7.709 -0.2257  0.1959 -0.2667
   6423SM  H16S 8255   6.315   5.473   7.761  0.1231  0.6673  0.6113
   6423SM  H16T 8256   6.400   5.628   7.740  1.3662 -0.8804 -2.6495
   6423SM  C17S 8257   6.310   5.561   7.554  0.2308  0.2998  0.4946
   6423SM  H17S 8258   6.245   5.477   7.522  0.2453  0.2417  0.6180
   6423SM  H17T 8259   6.415   5.535   7.528  0.6376  2.2198  0.0517
   6423SM  C18S 8260   6.275   5.693   7.483  0.0163  0.8433  1.1342
   6423SM  H18S 8261   6.336   5.775   7.527  3.8397 -1.9273  1.4483
   6423SM  H18T 8262   6.167   5.720   7.483 -0.6518 -1.4145 -0.9117
   6423SM  H18U 8263   6.301   5.684   7.375  0.4936 -0.2794  1.3333
   6423SM   C1F 8264   5.899   5.446   9.311 -0.0362 -0.4585  0.7827
   6423SM    OF 8265   5.944   5.531   9.390 -0.0378  0.0365  0.3118
   6423SM   C2F 8266   5.758   5.438   9.262  0.3631  0.3087  0.0398
   6423SM   H2F 8267   5.729   5.341   9.308  0.0100  0.3535 -0.0859
   6423SM   H2G 8268   5.758   5.415   9.154  1.3545 -2.7500  0.5783
   6423SM   C3F 8269   5.676   5.560   9.298  0.5019 -0.7189  1.1591
   6423SM   H3F 8270   5.714   5.652   9.248  0.4755 -1.1079  0.4038
   6423SM   H3G 8271   5.682   5.587   9.406  1.7219  3.0896  0.3114
   6423SM   C4F 8272   5.532   5.554   9.250 -0.4095  0.1858  0.1457
   6423SM   H4F 8273   5.471   5.638   9.290  0.6264  2.5738 -2.8643
   6423SM   H4G 8274   5.488   5.465   9.299  0.3149 -1.6803 -2.3580
   6423SM   C5F 8275   5.518   5.570   9.096 -0.2658  0.0366  0.0805
   6423SM   H5F 8276   5.567   5.484   9.045  0.0430 -0.7984  1.7283
   6423SM   H5G 8277   5.562   5.667   9.062  0.3209 -1.2758 -3.3286
   6423SM   C6F 8278   5.371   5.570   9.041 -0.2017  0.1577 -0.2662
   6423SM   H6F 8279   5.320   5.657   9.088  2.3362  0.9480  1.1739
   6423SM   H6G 8280   5.316   5.483   9.086  0.2786  0.4750  0.9748
   6423SM   C7F 8281   5.354   5.568   8.888  0.0795 -0.1496 -0.0928
   6423SM   H7F 8282   5.439   5.627   8.848 -0.2567 -1.0496 -2.2978
   6423SM   H7G 8283   5.260   5.618   8.859 -0.0048  0.2974  0.9050
   6423SM   C8F 8284   5.362   5.423   8.830  0.8580  0.1337 -0.1862
   6423SM   H8F 8285   5.260   5.379   8.834  0.8199  0.2401  0.0354
   6423SM   H8G 8286   5.431   5.367   8.896  3.1159  2.3651 -0.5217
   6423SM   C9F 8287   5.400   5.415   8.685 -0.2416 -0.5736  0.1781
   6423SM   H9F 8288   5.418   5.312   8.650  0.4790 -0.5259  0.3915
   6423SM   H9G 8289   5.497   5.468   8.673 -0.7676  0.6167  0.8657
   6423SM  C10F 8290   5.297   5.477   8.594  0.0110 -0.7946  0.1808
   6423SM  H10F 8291   5.197   5.439   8.624 -0.1516 -1.0164 -0.6210
   6423SM  H10G 8292   5.314   5.434   8.493 -1.4197  1.0139 -0.8875
   6423SM  C11F 8293   5.291   5.628   8.561 -0.1170 -0.3857 -0.0341
   6423SM  H11F 8294   5.369   5.686   8.614  1.4990 -2.5956  0.1458
   6423SM  H11G 8295   5.196   5.677   8.591  0.0365 -0.4189  0.5051
   6423SM  C12F 8296   5.300   5.649   8.410  0.2886 -0.1488  0.5274
   6423SM  H12F 8297   5.393   5.626   8.354 -0.2776 -1.1719 -0.0216
   6423SM  H12G 8298   5.283   5.758   8.393 -0.6701 -0.1485  1.3576
   6423SM  C13F 8299   5.183   5.589   8.321 -0.7116  0.6484 -0.8543
   6423SM  H13F 8300   5.095   5.652   8.342  1.0215  2.1836  2.6208
   6423SM  H13G 8301   5.166   5.487   8.362 -0.6974  1.5336  1.5142
   6423SM  C14F 8302   5.212   5.579   8.169  0.8086  0.4410  0.0105
   6423SM  H14F 8303   5.275   5.488   8.152 -0.6607 -0.5107 -0.5108
   6423SM  H14G 8304   5.261   5.676   8.148  2.4201 -0.0414  1.3318
   6423SM  C15F 8305   5.089   5.571   8.085 -0.1317  1.1841  0.3581
   6423SM  H15F 8306   5.044   5.671   8.065  2.0064  2.0061 -0.6607
   6423SM  H15G 8307   5.015   5.505   8.136  0.3417 -0.5402 -1.0871
   6423SM  C16F 8308   5.123   5.499   7.954 -0.4697 -0.6464  0.4233
   6423SM  H16F 8309   5.025   5.477   7.907  0.3386 -0.4468 -1.4080
   6423SM  H16G 8310   5.173   5.400   7.964  0.3229 -0.2995 -0.0538
   6423SM  C17F 8311   5.201   5.602   7.866  0.4012 -0.6580 -0.5082
   6423SM  H17F 8312   5.308   5.583   7.893 -0.3184 -3.2885  0.8837
   6423SM  H17G 8313   5.166   5.703   7.894  0.2515 -0.2476 -2.0840
   6423SM  C18F 8314   5.176   5.569   7.724 -0.1953 -0.4516 -0.3894
   6423SM  H18F 8315   5.069   5.573   7.695 -0.2879  1.2182  0.0685
   6423SM  H18G 8316   5.219   5.474   7.688 -1.9137 -1.1196 -0.7577
   6423SM  C19F 8317   5.254   5.668   7.638 -0.2423  0.4994  0.0199
   6423SM  H19F 8318   5.363   5.645   7.645 -0.2497  0.2646 -0.6025
   6423SM  H19G 8319   5.229   5.772   7.668 -0.3381  0.2879  0.6910
   6423SM  C20F 8320   5.220   5.659   7.490  0.3082 -0.0518 -0.0627
   6423SM  H20F 8321   5.236   5.553   7.461  1.5601  0.3443 -0.9371
   6423SM  H20G 8322   5.294   5.724   7.439 -0.8190  0.0280 -1.6738
   6423SM  C21F 8323   5.088   5.719   7.446  0.3680 -0.2675  0.1099
   6423SM  H21F 8324   5.085   5.823   7.484 -1.7470 -0.8433  1.6837
   6423SM  H21G 8325   5.002   5.666   7.491  0.0679 -0.6922 -0.9187
   6423SM  C22F 8326   5.070   5.705   7.295 -0.1228 -0.3045  0.2444
   6423SM  H22F 8327   5.069   5.599   7.264 -0.7337 -0.2612  0.1041
   6423SM  H22G 8328   5.155   5.759   7.247 -0.4254  2.4725  2.5305
   6423SM  C23F 8329   4.943   5.784   7.241 -0.1512  0.2879 -0.2592
   6423SM  H23F 8330   4.935   5.767   7.131  1.6073 -1.7421 -0.1475
   6423SM  H23G 8331   4.962   5.892   7.260 -1.3284  0.5499 -0.5174
   6423SM  H23H 8332   4.859   5.743   7.301 -2.6396  4.1776 -0.7625
   6523SM     N 8333   6.284   6.279  10.093 -0.5936  0.1029 -0.5046
   6523SM   C15 8334   6.374   6.397  10.106 -0.3830  0.0903  0.0961
   6523SM  H15A 8335   6.464   6.383  10.048  1.0484  0.3657  2.1850
   6523SM  H15B 8336   6.405   6.406  10.209  1.5295  0.5443 -0.4821
   6523SM  H15C 8337   6.332   6.487  10.063 -2.1782 -0.9108 -0.3884
   6523SM   C14 8338   6.368   6.161  10.127  0.1091  0.3017 -0.4051
   6523SM  H14A 8339   6.446   6.140  10.055  0.7279 -0.7891  0.5372
   6523SM  H14B 8340   6.309   6.071  10.137  3.1151 -2.0752 -2.1599
   6523SM  H14C 8341   6.416   6.169  10.224  0.8646 -1.2001 -0.6251
   6523SM   C13 8342   6.166   6.300  10.179 -0.0344 -0.5238 -0.3717
   6523SM  H13A 8343   6.109   6.209  10.181 -0.2000 -0.4340 -1.0318
   6523SM  H13B 8344   6.105   6.381  10.142 -1.8149 -2.2147 -1.2362
   6523SM  H13C 8345   6.194   6.328  10.280 -0.3642  1.2840 -0.7366
   6523SM   C12 8346   6.244   6.267   9.944 -0.6918  0.3280 -0.5385
   6523SM  H12A 8347   6.187   6.177   9.925  0.8452 -1.4181  2.3906
   6523SM  H12B 8348   6.342   6.249   9.901  0.3508  0.7217  1.5393
   6523SM   C11 8349   6.172   6.393   9.877  0.1238 -0.4305  0.0121
   6523SM  H11A 8350   6.178   6.381   9.767 -1.4624  1.2652 -0.3076
   6523SM  H11B 8351   6.224   6.486   9.910 -1.5159  1.3901 -2.2238
   6523SM     P 8352   5.927   6.278   9.869  0.2996 -0.0942 -0.1318
   6523SM   O13 8353   5.873   6.191   9.978 -0.4756 -0.7374 -0.5447
   6523SM   O14 8354   5.832   6.362   9.795 -0.0315  0.2432 -0.7228
   6523SM   O11 8355   6.001   6.187   9.761  0.8915 -0.4461 -0.5391
   6523SM   O12 8356   6.035   6.385   9.924  0.0414  0.6257 -0.0629
   6523SM   C1S 8357   5.942   6.121   9.648  0.1143 -0.1002 -0.3262
   6523SM   H1S 8358   5.839   6.083   9.665 -0.0119 -0.7991 -2.4000
   6523SM   H1T 8359   5.991   6.023   9.630 -1.0779 -0.9436  0.8061
   6523SM    NF 8360   5.859   6.149   9.424 -0.1104 -0.0611 -0.4191
   6523SM   HNF 8361   5.901   6.079   9.367 -0.4689 -0.9816  0.4080
   6523SM   C2S 8362   5.956   6.205   9.517 -0.1767  0.2149  0.3964
   6523SM   H2S 8363   5.930   6.311   9.538 -0.3180  0.3442 -0.3988
   6523SM   C3S 8364   6.104   6.203   9.467  0.2140 -0.6723  0.3662
   6523SM   H3S 8365   6.130   6.097   9.443 -1.2331 -0.8070 -0.7152
   6523SM    O3 8366   6.201   6.240   9.567 -0.4452  0.0099  0.2677
   6523SM   HO3 8367   6.163   6.232   9.654  0.4823 -1.9906  0.5357
   6523SM   C4S 8368   6.114   6.299   9.351 -0.3099 -0.4274  0.5750
   6523SM   H4S 8369   6.047   6.384   9.371  3.3694  2.4506  1.6945
   6523SM   C5S 8370   6.176   6.292   9.237 -0.7450  0.4551 -0.5885
   6523SM   H5S 8371   6.232   6.199   9.226 -0.3907  0.4007  1.3621
   6523SM   C6S 8372   6.181   6.405   9.131  0.0567  0.0145 -0.0801
   6523SM   H6S 8373   6.284   6.414   9.091 -0.6642  0.4492 -1.9672
   6523SM   H6T 8374   6.149   6.502   9.174 -2.0090 -0.5306 -0.2551
   6523SM   C7S 8375   6.072   6.370   9.024 -0.1481 -0.3671  0.0529
   6523SM   H7S 8376   6.083   6.269   8.981  3.6726  0.3645 -1.1046
   6523SM   H7T 8377   6.095   6.442   8.942  1.9968 -0.3763  0.5818
   6523SM   C8S 8378   5.935   6.392   9.084 -0.4419 -0.5376  0.2450
   6523SM   H8S 8379   5.940   6.477   9.156 -2.7192 -0.2462  0.1211
   6523SM   H8T 8380   5.907   6.300   9.140  3.2817 -1.1990  1.3072
   6523SM   C9S 8381   5.830   6.428   8.980  0.1298  0.2861 -0.0134
   6523SM   H9S 8382   5.866   6.500   8.904  1.5699 -1.0706 -0.6805
   6523SM   H9T 8383   5.742   6.474   9.030  0.1956 -0.1611  0.5262
   6523SM  C10S 8384   5.773   6.306   8.899  0.5160  0.0736 -0.0514
   6523SM  H10S 8385   5.721   6.231   8.963  3.1925 -0.3779  1.7623
   6523SM  H10T 8386   5.853   6.250   8.846  0.6021 -1.4066  1.5284
   6523SM  C11S 8387   5.669   6.346   8.791  0.8312 -0.3661  0.0799
   6523SM  H11S 8388   5.713   6.438   8.746  1.0081 -0.4998 -0.0200
   6523SM  H11T 8389   5.571   6.376   8.833  0.6709 -1.5760  0.6155
   6523SM  C12S 8390   5.652   6.239   8.685 -0.7023 -0.5879  0.7755
   6523SM  H12S 8391   5.639   6.150   8.750 -0.8061  0.1129  1.7433
   6523SM  H12T 8392   5.743   6.225   8.624  0.2201  0.1744  1.9298
   6523SM  C13S 8393   5.538   6.263   8.590 -0.2012  0.4366 -0.0620
   6523SM  H13S 8394   5.440   6.283   8.639  0.0828  2.9751 -0.3598
   6523SM  H13T 8395   5.533   6.173   8.525 -1.6998  1.4632 -1.4631
   6523SM  C14S 8396   5.565   6.386   8.503  0.3735  0.2017  0.5918
   6523SM  H14S 8397   5.660   6.369   8.447 -0.1207  0.2859 -0.2844
   6523SM  H14T 8398   5.572   6.478   8.566 -1.0096  1.1040 -0.5275
   6523SM  C15S 8399   5.451   6.405   8.396 -0.4125 -0.3438 -0.4910
   6523SM  H15S 8400   5.421   6.312   8.342 -2.0142  0.1507 -0.5058
   6523SM  H15T 8401   5.490   6.460   8.307 -0.0190 -0.2864 -0.2856
   6523SM  C16S 8402   5.320   6.473   8.436 -0.4688 -0.4195  0.2044
   6523SM  H16S 8403   5.346   6.571   8.483  0.0178 -0.0854 -0.7335
   6523SM  H16T 8404   5.252   6.414   8.501 -0.3584 -0.0249  0.6795
   6523SM  C17S 8405   5.238   6.509   8.313 -0.0614  0.2044  0.3896
   6523SM  H17S 8406   5.226   6.418   8.250  1.3312 -1.0242  1.8123
   6523SM  H17T 8407   5.303   6.571   8.248 -1.8162  1.7079 -0.0219
   6523SM  C18S 8408   5.100   6.569   8.344  0.2307  0.0534  0.8219
   6523SM  H18S 8409   5.044   6.583   8.250  0.0379  0.4506  0.9929
   6523SM  H18T 8410   5.116   6.675   8.376  1.5277  0.4652 -1.0356
   6523SM  H18U 8411   5.037   6.512   8.416 -1.9101 -0.7636 -1.5567
   6523SM   C1F 8412   5.731   6.180   9.418 -0.3711  0.2474  0.0487
   6523SM    OF 8413   5.685   6.288   9.452 -0.0857  0.2567  0.7077
   6523SM   C2F 8414   5.643   6.080   9.358  0.0418  0.2043  0.5272
   6523SM   H2F 8415   5.569   6.042   9.431 -1.5486 -1.7064 -1.9026
   6523SM   H2G 8416   5.702   5.989   9.333 -0.8351 -0.3587  0.4759
   6523SM   C3F 8417   5.556   6.135   9.236  0.0682  0.2774 -0.2218
   6523SM   H3F 8418   5.627   6.172   9.158  0.1930  1.1805  0.3016
   6523SM   H3G 8419   5.498   6.222   9.273 -0.0068  0.3550 -0.5150
   6523SM   C4F 8420   5.466   6.036   9.177 -1.1148  0.3631 -0.3138
   6523SM   H4F 8421   5.391   6.030   9.259  0.9548  3.2486  2.0190
   6523SM   H4G 8422   5.513   5.935   9.175  1.1213  1.2551  1.6449
   6523SM   C5F 8423   5.393   6.072   9.049  0.5471  0.0996 -0.4003
   6523SM   H5F 8424   5.462   6.094   8.965  0.6789  2.1725  0.2067
   6523SM   H5G 8425   5.340   6.167   9.072 -1.8261 -1.0311 -0.8171
   6523SM   C6F 8426   5.306   5.963   9.014  0.2737 -0.1469 -0.2002
   6523SM   H6F 8427   5.241   5.919   9.093 -3.6209  0.3955 -2.7817
   6523SM   H6G 8428   5.379   5.885   8.983  1.0100  0.3933  0.1687
   6523SM   C7F 8429   5.215   6.003   8.901  0.5082 -0.9751 -0.1569
   6523SM   H7F 8430   5.277   6.057   8.827 -0.4402 -0.1339 -0.3540
   6523SM   H7G 8431   5.138   6.074   8.939  2.7616  2.3723 -1.4193
   6523SM   C8F 8432   5.147   5.885   8.830  0.1331 -0.5310  0.6573
   6523SM   H8F 8433   5.084   5.844   8.912  0.9576 -0.5636  1.2963
   6523SM   H8G 8434   5.221   5.805   8.806 -1.7075 -2.4313  1.0457
   6523SM   C9F 8435   5.074   5.933   8.699 -0.6391  0.0769 -1.1701
   6523SM   H9F 8436   4.994   6.003   8.730 -0.1925  0.8075 -1.6389
   6523SM   H9G 8437   5.024   5.841   8.661  1.6045 -1.8817  0.2670
   6523SM  C10F 8438   5.158   5.993   8.588 -0.3670  0.6331 -0.6067
   6523SM  H10F 8439   5.229   5.916   8.552 -0.8126  0.8508 -2.0495
   6523SM  H10G 8440   5.217   6.070   8.641 -0.9287 -0.0627  1.0887
   6523SM  C11F 8441   5.075   6.035   8.471  0.8437  0.0497  0.1512
   6523SM  H11F 8442   5.020   6.111   8.531 -0.7906 -0.6504 -0.4083
   6523SM  H11G 8443   5.007   5.952   8.442 -0.5857  0.2867  2.5498
   6523SM  C12F 8444   5.150   6.103   8.355 -0.9902  0.2634  0.5804
   6523SM  H12F 8445   5.228   6.172   8.394 -1.3085  0.4302  0.9279
   6523SM  H12G 8446   5.081   6.159   8.288 -1.9845 -2.2646 -0.6447
   6523SM  C13F 8447   5.230   6.000   8.263 -0.2186 -0.1733 -0.3525
   6523SM  H13F 8448   5.170   5.909   8.241 -0.6423  0.0241 -0.0336
   6523SM  H13G 8449   5.322   5.964   8.314  0.3031  0.6430 -0.7096
   6523SM  C14F 8450   5.272   6.057   8.131 -0.1933 -0.0509 -0.2265
   6523SM  H14F 8451   5.333   6.148   8.150  0.3371 -0.1889 -1.2215
   6523SM  H14G 8452   5.184   6.090   8.071 -0.3580  0.9927  0.5499
   6523SM  C15F 8453   5.352   5.963   8.034 -0.1944  0.4760  0.3861
   6523SM  H15F 8454   5.291   5.873   8.010  0.8442 -1.1415  3.3366
   6523SM  H15G 8455   5.444   5.923   8.082  0.5447  0.3010 -1.0989
   6523SM  C16F 8456   5.397   6.031   7.904  0.5318 -0.7130  0.4043
   6523SM  H16F 8457   5.445   6.128   7.925 -2.5334  1.2964 -1.0979
   6523SM  H16G 8458   5.308   6.056   7.843  1.1332  0.8366  0.1263
   6523SM  C17F 8459   5.484   5.943   7.813  0.1037  0.4071  0.4507
   6523SM  H17F 8460   5.419   5.852   7.805 -4.6530  3.5102 -0.2451
   6523SM  H17G 8461   5.585   5.925   7.856 -1.1060 -3.7881  2.0436
   6523SM  C18F 8462   5.501   6.009   7.676  0.1592  0.7094  0.3282
   6523SM  H18F 8463   5.539   6.113   7.684  0.2233  0.6428  0.9486
   6523SM  H18G 8464   5.402   6.019   7.628  0.6850  1.0386 -0.7228
   6523SM  C19F 8465   5.591   5.933   7.576 -0.2176  0.0747 -0.4274
   6523SM  H19F 8466   5.554   5.829   7.564 -1.8995  0.5938 -0.0184
   6523SM  H19G 8467   5.694   5.939   7.618 -1.7621  0.1571  3.8561
   6523SM  C20F 8468   5.597   6.003   7.436 -0.0302 -0.0652  0.1710
   6523SM  H20F 8469   5.691   5.968   7.390  0.6225  0.0995  1.3205
   6523SM  H20G 8470   5.601   6.114   7.446  0.2969 -0.1224  0.7382
   6523SM  C21F 8471   5.468   5.966   7.363  0.1892 -0.1727 -0.1587
   6523SM  H21F 8472   5.381   6.025   7.399  1.4668 -0.0224  2.9757
   6523SM  H21G 8473   5.441   5.864   7.398  3.1304 -0.4285  1.6604
   6523SM  C22F 8474   5.470   5.986   7.214 -0.4763 -0.5317 -0.1501
   6523SM  H22F 8475   5.465   6.094   7.188 -2.0845 -0.6575 -0.5145
   6523SM  H22G 8476   5.378   5.949   7.163 -0.1740 -0.9969 -0.3573
   6523SM  C23F 8477   5.585   5.914   7.141 -0.1170  0.4850 -0.0147
   6523SM  H23F 8478   5.559   5.878   7.040 -0.4663  0.1748  0.1808
   6523SM  H23G 8479   5.619   5.822   7.194 -0.2282  0.4768  0.0429
   6523SM  H23H 8480   5.673   5.982   7.140 -1.3319  2.1272  0.5752
   6623SM     N 8481   4.713   3.101   9.746 -0.6288  0.3162 -0.7130
   6623SM   C15 8482   4.858   3.129   9.764  0.4450 -0.3230 -0.1143
   6623SM  H15A 8483   4.921   3.050   9.726 -2.4584 -1.6496 -2.5065
   6623SM  H15B 8484   4.883   3.139   9.869  0.9710 -2.0123 -0.0422
   6623SM  H15C 8485   4.890   3.223   9.723 -0.0141 -0.3155 -0.4589
   6623SM   C14 8486   4.673   2.994   9.845 -0.0339 -0.0109 -0.0411
   6623SM  H14A 8487   4.594   2.931   9.808  0.0490 -0.3349  0.3306
   6623SM  H14B 8488   4.652   3.030   9.945  1.0033  2.3048 -0.5663
   6623SM  H14C 8489   4.753   2.924   9.863 -0.2867  0.0122  1.2397
   6623SM   C13 8490   4.640   3.223   9.780 -0.1541  0.1734  0.0658
   6623SM  H13A 8491   4.653   3.301   9.706  1.6306 -0.9937 -0.9408
   6623SM  H13B 8492   4.692   3.262   9.867  0.7722 -0.6715 -0.0943
   6623SM  H13C 8493   4.542   3.204   9.821 -0.5115  2.1540  0.2489
   6623SM   C12 8494   4.677   3.065   9.602 -0.4410  0.0755 -0.2880
   6623SM  H12A 8495   4.700   3.143   9.531 -1.2121 -1.5164 -2.4109
   6623SM  H12B 8496   4.571   3.042   9.599 -0.7589  1.3141  0.6992
   6623SM   C11 8497   4.751   2.955   9.533 -0.3278  0.2336 -0.3404
   6623SM  H11A 8498   4.861   2.971   9.531 -0.7341  3.8197 -0.5986
   6623SM  H11B 8499   4.717   2.954   9.427 -2.3077  0.9150  0.2459
   6623SM     P 8500   4.605   2.741   9.538  0.4556 -0.2766  0.1113
   6623SM   O13 8501   4.608   2.618   9.618 -0.2964 -0.1274 -0.7055
   6623SM   O14 8502   4.472   2.813   9.535 -0.2478 -0.2599 -0.6903
   6623SM   O11 8503   4.660   2.703   9.397  0.4769 -0.7594  0.4967
   6623SM   O12 8504   4.718   2.827   9.590 -0.5753 -0.6031  0.1485
   6623SM   C1S 8505   4.788   2.637   9.378  0.3505  0.4343  0.0957
   6623SM   H1S 8506   4.777   2.531   9.408 -0.9881  0.4878 -0.1352
   6623SM   H1T 8507   4.878   2.686   9.421  0.7636  0.8374 -1.1771
   6623SM    NF 8508   4.968   2.583   9.211  0.4067 -0.0411  0.3743
   6623SM   HNF 8509   5.045   2.642   9.192 -0.3352  0.6794 -0.4978
   6623SM   C2S 8510   4.838   2.649   9.230 -0.6665  1.0039 -0.1996
   6623SM   H2S 8511   4.767   2.583   9.175  1.3604 -1.8870  0.4287
   6623SM   C3S 8512   4.819   2.790   9.177  0.2271 -0.3985  0.3909
   6623SM   H3S 8513   4.878   2.861   9.239  0.3431 -1.2681  1.2903
   6623SM    O3 8514   4.683   2.834   9.177  0.4242 -0.4552  0.3795
   6623SM   HO3 8515   4.644   2.792   9.253  1.0363  0.3543  1.1676
   6623SM   C4S 8516   4.872   2.800   9.036  0.0046  0.2430 -0.1735
   6623SM   H4S 8517   4.978   2.827   9.040  0.7303 -2.1667 -1.4333
   6623SM   C5S 8518   4.819   2.785   8.912 -0.2607 -0.5252  0.4069
   6623SM   H5S 8519   4.712   2.767   8.895 -0.1250 -0.7989 -0.1706
   6623SM   C6S 8520   4.902   2.797   8.782 -0.3725  0.8355 -0.3735
   6623SM   H6S 8521   4.940   2.901   8.774  0.9858  0.3930 -0.0232
   6623SM   H6T 8522   4.844   2.770   8.691  0.9627  0.4296 -1.1296
   6623SM   C7S 8523   5.021   2.698   8.778  0.3341  0.2732  0.4975
   6623SM   H7S 8524   4.993   2.592   8.761  1.2285 -0.1298  1.4213
   6623SM   H7T 8525   5.067   2.703   8.879 -1.9872 -0.6608  1.6802
   6623SM   C8S 8526   5.123   2.741   8.671  0.2389  0.3830 -0.0839
   6623SM   H8S 8527   5.167   2.841   8.693  2.9152 -1.1695  2.3124
   6623SM   H8T 8528   5.071   2.745   8.573 -1.0436 -0.1812  0.5550
   6623SM   C9S 8529   5.227   2.641   8.667 -1.0810 -0.3688 -0.1591
   6623SM   H9S 8530   5.175   2.554   8.621 -0.0090 -0.6524 -0.8857
   6623SM   H9T 8531   5.263   2.624   8.770 -0.0660 -0.1637 -0.4719
   6623SM  C10S 8532   5.342   2.680   8.570  0.3461 -0.1513 -0.1510
   6623SM  H10S 8533   5.294   2.692   8.470  0.2409  0.6134 -0.0084
   6623SM  H10T 8534   5.414   2.595   8.572  0.2612 -0.2148  0.9917
   6623SM  C11S 8535   5.414   2.819   8.588 -0.4138  0.4251 -0.0858
   6623SM  H11S 8536   5.455   2.815   8.691  2.3989 -0.7803 -1.1656
   6623SM  H11T 8537   5.342   2.901   8.565  1.7388  1.4477 -4.0207
   6623SM  C12S 8538   5.533   2.830   8.499 -0.8446  0.4440 -0.1797
   6623SM  H12S 8539   5.494   2.824   8.395 -0.1818 -0.4214 -0.3920
   6623SM  H12T 8540   5.607   2.748   8.504 -1.3858 -0.3954 -3.3395
   6623SM  C13S 8541   5.617   2.959   8.513 -0.0924  0.0618  0.5763
   6623SM  H13S 8542   5.554   3.038   8.560  0.5283  1.4318 -0.7988
   6623SM  H13T 8543   5.643   2.998   8.413 -1.3445 -0.6170 -0.0256
   6623SM  C14S 8544   5.743   2.938   8.604  0.4599  0.2597  0.5250
   6623SM  H14S 8545   5.787   2.844   8.564 -0.7710 -0.9257  1.8720
   6623SM  H14T 8546   5.715   2.921   8.710 -0.6083  0.0531  0.2163
   6623SM  C15S 8547   5.842   3.051   8.587 -0.2276 -0.0511 -0.4232
   6623SM  H15S 8548   5.794   3.147   8.617 -1.5750  0.3260 -3.4318
   6623SM  H15T 8549   5.866   3.071   8.481  1.0400  1.9526  0.1805
   6623SM  C16S 8550   5.980   3.027   8.647  0.0866  0.0696  0.4800
   6623SM  H16S 8551   6.044   2.955   8.591  1.6191  0.7432  1.2989
   6623SM  H16T 8552   5.977   2.979   8.747  4.7132 -0.0104  0.8050
   6623SM  C17S 8553   6.045   3.167   8.664  0.1417  0.2249 -0.1321
   6623SM  H17S 8554   5.991   3.221   8.744 -0.9637 -3.2415  1.6855
   6623SM  H17T 8555   6.047   3.219   8.566 -2.5233 -0.7041 -0.7536
   6623SM  C18S 8556   6.191   3.150   8.708  0.6701 -0.6545  0.5248
   6623SM  H18S 8557   6.254   3.091   8.639  1.2617  1.5261 -0.9174
   6623SM  H18T 8558   6.194   3.091   8.801 -0.7258 -0.9860  0.3855
   6623SM  H18U 8559   6.251   3.242   8.724  1.7471 -1.3913  0.7554
   6623SM   C1F 8560   4.989   2.448   9.219  0.5173  0.2424  0.6871
   6623SM    OF 8561   4.905   2.364   9.241 -0.0814 -0.0610 -0.2224
   6623SM   C2F 8562   5.125   2.395   9.200 -0.2054 -0.1192  0.3488
   6623SM   H2F 8563   5.157   2.340   9.291 -0.2446  1.6366  1.4799
   6623SM   H2G 8564   5.199   2.477   9.213 -1.1735  1.0836 -1.3667
   6623SM   C3F 8565   5.154   2.311   9.069  0.3858 -0.0549 -0.0348
   6623SM   H3F 8566   5.110   2.370   8.986  1.6513  2.1191  0.7522
   6623SM   H3G 8567   5.083   2.226   9.070 -0.7387  0.7893 -1.9531
   6623SM   C4F 8568   5.306   2.284   9.046  0.5337  0.0987 -0.3644
   6623SM   H4F 8569   5.342   2.212   9.123 -0.1677 -0.6732 -0.7435
   6623SM   H4G 8570   5.360   2.380   9.058 -0.1139  0.8570 -2.8489
   6623SM   C5F 8571   5.330   2.210   8.916 -0.1848  0.2966  0.0692
   6623SM   H5F 8572   5.299   2.282   8.837 -1.3740  1.0754  1.2044
   6623SM   H5G 8573   5.247   2.136   8.913 -0.8395  0.9971 -3.2710
   6623SM   C6F 8574   5.458   2.137   8.881 -0.3618  0.6761 -0.3328
   6623SM   H6F 8575   5.505   2.100   8.975  1.3767  2.0632 -0.5974
   6623SM   H6G 8576   5.528   2.214   8.840  2.6264 -2.9415 -2.7485
   6623SM   C7F 8577   5.450   2.024   8.780  0.0888 -0.9859 -0.3449
   6623SM   H7F 8578   5.406   1.934   8.827  0.7263 -1.7706 -1.2022
   6623SM   H7G 8579   5.551   1.989   8.750  0.6501  1.1178 -1.1529
   6623SM   C8F 8580   5.379   2.054   8.645  0.3971  0.1311 -0.0891
   6623SM   H8F 8581   5.406   2.155   8.607  0.5493 -0.6056 -2.0445
   6623SM   H8G 8582   5.269   2.042   8.655  0.5089 -1.5651 -0.5839
   6623SM   C9F 8583   5.435   1.967   8.531 -0.1574 -0.0430  0.4035
   6623SM   H9F 8584   5.456   1.861   8.556  0.6215  0.4131  1.8163
   6623SM   H9G 8585   5.534   2.011   8.506  0.8523 -1.3777  1.8971
   6623SM  C10F 8586   5.333   1.971   8.414  0.1465  0.4192  0.1149
   6623SM  H10F 8587   5.288   2.072   8.403 -3.8952 -1.3269 -1.9061
   6623SM  H10G 8588   5.247   1.909   8.449  0.4841 -0.4908 -0.6365
   6623SM  C11F 8589   5.391   1.912   8.283  0.4970  0.0568 -0.6848
   6623SM  H11F 8590   5.308   1.916   8.210 -1.5661 -0.2151  1.5319
   6623SM  H11G 8591   5.418   1.808   8.311 -0.4164 -0.3851 -1.3934
   6623SM  C12F 8592   5.506   1.997   8.235  0.4075  0.0236  0.6094
   6623SM  H12F 8593   5.582   2.023   8.312  1.2652  1.0583 -0.5457
   6623SM  H12G 8594   5.466   2.095   8.201  1.6626  0.3956  0.1454
   6623SM  C13F 8595   5.579   1.923   8.121  0.0354 -0.1635  0.3333
   6623SM  H13F 8596   5.528   1.928   8.023 -0.9902 -1.6986  0.7508
   6623SM  H13G 8597   5.568   1.813   8.131  1.1553 -0.3171 -0.0160
   6623SM  C14F 8598   5.720   1.966   8.092  0.1584  0.4166  0.3355
   6623SM  H14F 8599   5.752   1.900   8.008 -0.3399  0.3405  0.2015
   6623SM  H14G 8600   5.791   1.943   8.174 -0.4520  1.2073  1.1003
   6623SM  C15F 8601   5.728   2.115   8.044 -0.9669 -0.5341  0.0324
   6623SM  H15F 8602   5.838   2.136   8.043 -1.1926  0.8774  1.5844
   6623SM  H15G 8603   5.683   2.182   8.120 -0.2365  0.1959 -0.1511
   6623SM  C16F 8604   5.651   2.157   7.917  0.1387  0.5671 -0.0163
   6623SM  H16F 8605   5.554   2.206   7.943  0.0614  0.4823 -0.1456
   6623SM  H16G 8606   5.628   2.067   7.857 -0.8535  0.4493  0.5166
   6623SM  C17F 8607   5.743   2.244   7.827  0.1860  0.5063 -0.3711
   6623SM  H17F 8608   5.843   2.198   7.813  1.3989  2.4742  1.2458
   6623SM  H17G 8609   5.758   2.344   7.872  0.8474  0.0600  0.4107
   6623SM  C18F 8610   5.675   2.274   7.688 -0.7650  0.2306 -0.0553
   6623SM  H18F 8611   5.577   2.319   7.714 -0.3081  1.5298 -0.4823
   6623SM  H18G 8612   5.680   2.171   7.647  3.3459  0.4505 -0.5259
   6623SM  C19F 8613   5.751   2.363   7.589  0.1195 -0.1056 -1.1869
   6623SM  H19F 8614   5.856   2.331   7.575  1.4826  2.7020  1.3944
   6623SM  H19G 8615   5.763   2.459   7.644  2.2663 -0.2698 -1.2961
   6623SM  C20F 8616   5.679   2.392   7.459 -0.0875 -0.0263  0.4314
   6623SM  H20F 8617   5.581   2.428   7.495 -0.7640 -1.3745 -0.0300
   6623SM  H20G 8618   5.660   2.296   7.408 -2.5436  0.7185 -0.1697
   6623SM  C21F 8619   5.756   2.485   7.365  0.2643 -0.3246 -0.0819
   6623SM  H21F 8620   5.769   2.589   7.402  0.0233 -0.6076  0.8164
   6623SM  H21G 8621   5.692   2.502   7.276 -1.6807 -2.4534  0.8076
   6623SM  C22F 8622   5.882   2.425   7.299 -0.7370 -0.2835 -0.3721
   6623SM  H22F 8623   5.971   2.428   7.365 -2.8686 -2.2220  2.8380
   6623SM  H22G 8624   5.905   2.496   7.216  2.7367 -0.1298  0.5842
   6623SM  C23F 8625   5.863   2.280   7.250 -0.0109  0.1416 -0.3206
   6623SM  H23F 8626   5.772   2.260   7.189  0.3795 -0.2119 -0.7904
   6623SM  H23G 8627   5.872   2.205   7.331 -1.4108 -1.5793 -1.6650
   6623SM  H23H 8628   5.950   2.259   7.185 -0.1153  1.0615 -0.7692
   6723SM     N 8629   4.831   7.406  10.029  0.2542 -0.1005 -0.2849
   6723SM   C15 8630   4.977   7.435  10.030 -0.1756 -0.3980  0.1632
   6723SM  H15A 8631   5.002   7.525   9.977  0.6209 -1.7577 -1.8824
   6723SM  H15B 8632   5.035   7.355   9.988 -0.2007 -0.5177  0.3545
   6723SM  H15C 8633   5.007   7.446  10.133 -0.1680 -1.2327  0.2580
   6723SM   C14 8634   4.761   7.523  10.097  1.2505  0.2226  0.1847
   6723SM  H14A 8635   4.657   7.495  10.107  0.3492  2.8567 -1.0877
   6723SM  H14B 8636   4.760   7.607  10.030 -1.5973 -1.0010 -1.4867
   6723SM  H14C 8637   4.794   7.556  10.194  2.9262 -0.3864 -0.1484
   6723SM   C13 8638   4.792   7.391   9.888  0.0126 -0.0238  0.5751
   6723SM  H13A 8639   4.790   7.489   9.842  1.0552  0.5662  1.7243
   6723SM  H13B 8640   4.691   7.353   9.882 -0.0119  0.1759 -0.4725
   6723SM  H13C 8641   4.857   7.321   9.839 -0.2442 -0.1509  0.4133
   6723SM   C12 8642   4.806   7.277  10.107 -0.3694  0.2812  0.0443
   6723SM  H12A 8643   4.839   7.286  10.209 -0.6552  0.0760  0.1569
   6723SM  H12B 8644   4.863   7.204  10.050 -0.3648  1.8519 -2.1057
   6723SM   C11 8645   4.651   7.237  10.122 -0.7448  0.2327  0.9067
   6723SM  H11A 8646   4.608   7.309  10.195 -0.9562  1.9875 -0.8474
   6723SM  H11B 8647   4.664   7.137  10.168  3.3627 -0.0574 -0.3750
   6723SM     P 8648   4.429   7.241   9.990  0.0354 -0.1269 -0.3050
   6723SM   O13 8649   4.395   7.100  10.018  0.1931  0.7064 -0.1617
   6723SM   O14 8650   4.375   7.335  10.091  0.4810  0.5852  0.3055
   6723SM   O11 8651   4.398   7.276   9.840  0.0252 -0.0612  0.0496
   6723SM   O12 8652   4.584   7.242   9.994 -0.4201 -0.0557 -0.8196
   6723SM   C1S 8653   4.396   7.410   9.796  0.9103  0.0823  0.0370
   6723SM   H1S 8654   4.497   7.453   9.807  0.8223 -0.2592  3.3277
   6723SM   H1T 8655   4.327   7.478   9.852  0.8241  0.1080 -0.1004
   6723SM    NF 8656   4.380   7.567   9.599 -0.2711 -0.5314 -0.8435
   6723SM   HNF 8657   4.300   7.627   9.605  1.3823  1.7786 -1.0784
   6723SM   C2S 8658   4.365   7.427   9.644 -0.4667  0.2665  0.0343
   6723SM   H2S 8659   4.440   7.366   9.590 -2.6104 -0.2590 -2.5705
   6723SM   C3S 8660   4.238   7.344   9.596 -0.0162 -0.3522  0.1035
   6723SM   H3S 8661   4.147   7.405   9.615 -1.4874 -2.7726  1.3316
   6723SM    O3 8662   4.205   7.228   9.672 -0.3131 -0.9591  0.1364
   6723SM   HO3 8663   4.267   7.219   9.744  0.3685 -2.3899 -0.5844
   6723SM   C4S 8664   4.231   7.321   9.452  0.0542 -0.6172 -0.3644
   6723SM   H4S 8665   4.205   7.414   9.399 -1.7790  0.7370  2.6771
   6723SM   C5S 8666   4.240   7.210   9.381 -0.5796 -0.7275 -0.2737
   6723SM   H5S 8667   4.255   7.109   9.424  1.2389 -0.4256 -0.1271
   6723SM   C6S 8668   4.236   7.202   9.232 -0.6165 -0.3481  0.4528
   6723SM   H6S 8669   4.156   7.140   9.188 -0.7046  0.0167  0.0904
   6723SM   H6T 8670   4.338   7.173   9.197 -0.2697  1.4985 -0.1780
   6723SM   C7S 8671   4.223   7.338   9.160  0.0723 -0.1978  0.3814
   6723SM   H7S 8672   4.316   7.397   9.179  0.4211 -0.2613 -1.0434
   6723SM   H7T 8673   4.140   7.400   9.200  0.4099  0.2325  0.4228
   6723SM   C8S 8674   4.207   7.316   9.007 -0.0193  0.0223 -0.7192
   6723SM   H8S 8675   4.176   7.415   8.967 -2.7068  0.4264  2.0008
   6723SM   H8T 8676   4.127   7.240   8.995 -0.6107  0.6138 -0.6504
   6723SM   C9S 8677   4.342   7.275   8.947 -0.4313  0.6400  0.3014
   6723SM   H9S 8678   4.368   7.169   8.968 -0.3767  0.5184 -0.3670
   6723SM   H9T 8679   4.431   7.326   8.988 -1.5049  0.9694  2.3785
   6723SM  C10S 8680   4.330   7.291   8.791 -0.4119  0.3753  0.2460
   6723SM  H10S 8681   4.314   7.398   8.766 -1.5020 -0.3381 -2.4571
   6723SM  H10T 8682   4.245   7.226   8.762  0.9824 -0.7548 -1.4908
   6723SM  C11S 8683   4.455   7.242   8.708 -0.0951 -0.4347 -0.0110
   6723SM  H11S 8684   4.466   7.133   8.723 -0.2898 -0.6351 -1.2362
   6723SM  H11T 8685   4.551   7.283   8.746  0.2433 -0.7808 -0.4837
   6723SM  C12S 8686   4.451   7.280   8.561 -0.0413  0.4914 -1.4875
   6723SM  H12S 8687   4.456   7.391   8.563  0.4256  0.4892  1.2434
   6723SM  H12T 8688   4.359   7.238   8.515 -1.2304  1.3868 -0.0179
   6723SM  C13S 8689   4.576   7.228   8.487  0.0989 -0.1381 -0.2124
   6723SM  H13S 8690   4.574   7.117   8.492  2.5585 -0.2235  0.1296
   6723SM  H13T 8691   4.670   7.251   8.541 -0.3505 -0.9823  0.9852
   6723SM  C14S 8692   4.583   7.277   8.345 -0.1002 -0.1391 -0.0891
   6723SM  H14S 8693   4.685   7.249   8.313  0.1845  0.1290  0.5590
   6723SM  H14T 8694   4.582   7.387   8.329  1.4241  0.0421  0.9077
   6723SM  C15S 8695   4.495   7.199   8.244 -0.1037  0.0126  0.0391
   6723SM  H15S 8696   4.387   7.208   8.266  0.2271  1.8077  1.1557
   6723SM  H15T 8697   4.525   7.093   8.240 -1.3735 -0.3330 -0.8225
   6723SM  C16S 8698   4.512   7.257   8.105  0.0012  0.0165 -0.0607
   6723SM  H16S 8699   4.620   7.248   8.084 -0.0033 -0.8902  0.2887
   6723SM  H16T 8700   4.481   7.364   8.094  1.1307  0.3887  0.2995
   6723SM  C17S 8701   4.429   7.174   8.000 -0.0327 -0.2616 -0.0831
   6723SM  H17S 8702   4.430   7.222   7.899 -0.8728 -1.1579 -0.5330
   6723SM  H17T 8703   4.324   7.166   8.033 -0.2220 -0.7875 -0.7891
   6723SM  C18S 8704   4.459   7.022   7.976 -0.1201 -0.1363 -0.1435
   6723SM  H18S 8705   4.383   6.972   7.912 -1.5034 -0.6266  1.7718
   6723SM  H18T 8706   4.452   6.979   8.079  1.5756  1.2462  0.5951
   6723SM  H18U 8707   4.561   7.007   7.936 -0.4711 -1.2237 -0.6640
   6723SM   C1F 8708   4.500   7.620   9.570  0.6557 -0.0067 -0.7078
   6723SM    OF 8709   4.604   7.555   9.586 -0.4851 -0.6142 -0.4458
   6723SM   C2F 8710   4.505   7.762   9.518 -0.0141 -0.4401 -0.5918
   6723SM   H2F 8711   4.592   7.809   9.568 -0.8889 -0.3703  0.9630
   6723SM   H2G 8712   4.413   7.820   9.543  0.1096 -0.5033  0.0279
   6723SM   C3F 8713   4.534   7.776   9.367 -0.5171 -0.8780 -0.2831
   6723SM   H3F 8714   4.633   7.732   9.343  0.6459  1.2368  0.3360
   6723SM   H3G 8715   4.528   7.884   9.343  2.3012 -0.3029  1.2175
   6723SM   C4F 8716   4.426   7.718   9.271  0.2172  0.1352  1.0383
   6723SM   H4F 8717   4.327   7.731   9.319  0.4140 -0.2589  1.5550
   6723SM   H4G 8718   4.453   7.611   9.257  2.2193  0.3642  2.6644
   6723SM   C5F 8719   4.426   7.783   9.128 -0.5823  0.0913  0.7037
   6723SM   H5F 8720   4.350   7.720   9.078 -0.5735 -0.2989  1.1843
   6723SM   H5G 8721   4.520   7.775   9.069 -1.1124  2.4984 -0.6393
   6723SM   C6F 8722   4.376   7.925   9.124  0.3623 -0.1170 -0.1464
   6723SM   H6F 8723   4.433   7.998   9.187  1.5192 -0.6875 -0.4935
   6723SM   H6G 8724   4.270   7.930   9.155 -0.2146  1.3527 -2.1560
   6723SM   C7F 8725   4.370   7.984   8.984  0.1761  0.1369 -0.5990
   6723SM   H7F 8726   4.270   8.031   8.976  0.5565  1.0952  0.0390
   6723SM   H7G 8727   4.378   7.901   8.910  0.6346  0.8772 -1.3993
   6723SM   C8F 8728   4.489   8.082   8.961 -0.0008  0.3431  0.1492
   6723SM   H8F 8729   4.475   8.129   8.862  0.9077  0.2922 -0.0139
   6723SM   H8G 8730   4.580   8.018   8.958 -1.1515 -1.2978 -1.4621
   6723SM   C9F 8731   4.506   8.200   9.051  0.0440  0.1209  0.5082
   6723SM   H9F 8732   4.541   8.159   9.148 -1.2172 -2.2291  0.0716
   6723SM   H9G 8733   4.401   8.234   9.066 -0.3805  0.4086 -2.5561
   6723SM  C10F 8734   4.595   8.314   8.998 -0.2371 -1.0776  0.4543
   6723SM  H10F 8735   4.614   8.307   8.889 -1.0515 -0.2979  0.2469
   6723SM  H10G 8736   4.693   8.301   9.048  0.3305  0.1767 -0.2789
   6723SM  C11F 8737   4.537   8.459   9.039 -0.0444  1.6366  0.0502
   6723SM  H11F 8738   4.566   8.477   9.144 -0.3582 -0.6642  0.5823
   6723SM  H11G 8739   4.426   8.458   9.032 -0.0911  1.1454  0.7870
   6723SM  C12F 8740   4.594   8.560   8.942 -0.0264 -0.3090  0.0389
   6723SM  H12F 8741   4.579   8.521   8.839  0.5288  2.2721 -1.0851
   6723SM  H12G 8742   4.703   8.576   8.954 -0.3542  1.3284  1.2034
   6723SM  C13F 8743   4.514   8.691   8.951 -0.2079 -0.1100 -0.3232
   6723SM  H13F 8744   4.547   8.750   9.039  2.2852 -2.1815  0.2722
   6723SM  H13G 8745   4.407   8.668   8.966  0.0549 -0.6709  0.8208
   6723SM  C14F 8746   4.524   8.774   8.822  0.2251  0.7922  0.8521
   6723SM  H14F 8747   4.441   8.847   8.829 -1.2927 -0.3335 -2.8711
   6723SM  H14G 8748   4.491   8.701   8.745  1.4672 -0.1519  1.1675
   6723SM  C15F 8749   4.665   8.835   8.785  0.1003 -0.2856 -1.3843
   6723SM  H15F 8750   4.657   8.880   8.683  0.0105 -0.9208 -1.6601
   6723SM  H15G 8751   4.733   8.747   8.785 -0.8280 -1.0207 -0.6011
   6723SM  C16F 8752   4.710   8.940   8.886 -0.0937  0.0989 -0.0265
   6723SM  H16F 8753   4.739   8.882   8.976  2.2668 -0.0191 -0.7885
   6723SM  H16G 8754   4.632   9.004   8.933 -0.4093 -0.7467  0.6371
   6723SM  C17F 8755   4.827   9.027   8.832  0.2854  0.2343 -0.5628
   6723SM  H17F 8756   4.900   8.961   8.781  0.9771  1.5154 -1.2793
   6723SM  H17G 8757   4.874   9.087   8.913 -0.5359 -0.1892  0.2479
   6723SM  C18F 8758   4.789   9.140   8.732 -0.1717 -0.2075 -0.5039
   6723SM  H18F 8759   4.731   9.218   8.787  1.4145  0.6464  0.0175
   6723SM  H18G 8760   4.738   9.102   8.641  2.1768  0.2775 -2.1189
   6723SM  C19F 8761   4.911   9.222   8.682 -0.2153  0.0276  0.1024
   6723SM  H19F 8762   4.945   9.304   8.748  1.6905  0.0205 -0.7950
   6723SM  H19G 8763   4.874   9.274   8.591 -3.0599 -3.4301 -0.9760
   6723SM  C20F 8764   5.027   9.145   8.624 -0.4721 -0.3559 -0.9828
   6723SM  H20F 8765   4.987   9.068   8.554  1.9598 -0.3074 -2.5358
   6723SM  H20G 8766   5.071   9.088   8.709  0.4438  0.6131 -0.7861
   6723SM  C21F 8767   5.121   9.230   8.546 -1.0830  0.1240  0.2545
   6723SM  H21F 8768   5.173   9.310   8.602  1.4829 -1.3623  0.1698
   6723SM  H21G 8769   5.068   9.264   8.454  1.7195 -0.8153 -1.8482
   6723SM  C22F 8770   5.236   9.148   8.477 -0.0151  0.4539  0.4673
   6723SM  H22F 8771   5.196   9.055   8.432 -1.5659  0.2271  2.1947
   6723SM  H22G 8772   5.304   9.112   8.557  0.0320  1.7278  1.0308
   6723SM  C23F 8773   5.304   9.238   8.371 -0.6009 -0.2013 -0.3834
   6723SM  H23F 8774   5.345   9.326   8.424  4.1180 -1.7180 -0.9800
   6723SM  H23G 8775   5.230   9.257   8.291 -1.6896 -0.7014  0.4746
   6723SM  H23H 8776   5.391   9.192   8.320 -0.1226  0.5194 -0.2281
   6823SM     N 8777   3.402   2.793   9.535 -0.1475  0.2698  0.1755
   6823SM   C15 8778   3.365   2.743   9.397  0.3038 -0.1991 -0.5147
   6823SM  H15A 8779   3.458   2.724   9.346 -0.5998  0.9244 -2.7247
   6823SM  H15B 8780   3.304   2.811   9.340 -0.0355 -0.0059  0.0722
   6823SM  H15C 8781   3.315   2.648   9.411  0.1511  0.1968  2.2734
   6823SM   C14 8782   3.275   2.796   9.612  0.3824 -0.0754  0.2011
   6823SM  H14A 8783   3.280   2.840   9.710 -3.5995  1.2533 -0.0342
   6823SM  H14B 8784   3.226   2.700   9.616 -0.7708  0.4089 -1.4101
   6823SM  H14C 8785   3.201   2.859   9.564  1.2116  0.4770 -0.3976
   6823SM   C13 8786   3.500   2.688   9.592  0.2846  0.0480  1.0889
   6823SM  H13A 8787   3.496   2.709   9.698 -0.8575  2.1734  0.6869
   6823SM  H13B 8788   3.597   2.702   9.546 -0.0182  0.5817  0.6040
   6823SM  H13C 8789   3.478   2.583   9.579 -0.0645  0.2685 -0.1965
   6823SM   C12 8790   3.458   2.933   9.530  0.0778  0.4939 -0.0627
   6823SM  H12A 8791   3.384   2.993   9.479  0.0163 -0.2693 -0.8959
   6823SM  H12B 8792   3.551   2.942   9.476  0.4076  0.3043  0.4754
   6823SM   C11 8793   3.499   3.007   9.657  0.6079  0.2074 -0.3092
   6823SM  H11A 8794   3.407   3.029   9.715  1.3723  0.7248  0.7480
   6823SM  H11B 8795   3.534   3.112   9.645  1.4083 -0.1250 -0.9987
   6823SM     P 8796   3.725   2.990   9.798  0.1021 -0.2519 -0.5176
   6823SM   O13 8797   3.707   3.114   9.880  0.8145  0.5217  0.2033
   6823SM   O14 8798   3.787   2.874   9.877  0.2998 -0.0856  0.8073
   6823SM   O11 8799   3.812   3.021   9.674  0.1258 -0.3825 -0.1858
   6823SM   O12 8800   3.585   2.935   9.734 -0.1719  0.0566 -0.0156
   6823SM   C1S 8801   3.845   2.923   9.575 -0.4618  0.5861  0.8790
   6823SM   H1S 8802   3.751   2.873   9.546 -0.6876  0.8957  1.0767
   6823SM   H1T 8803   3.920   2.850   9.612 -1.5444 -0.9448  0.1636
   6823SM    NF 8804   3.895   2.896   9.339 -0.5622 -0.6103 -0.1427
   6823SM   HNF 8805   3.980   2.844   9.326  2.0014  2.4629  2.4456
   6823SM   C2S 8806   3.909   2.993   9.447  0.0760  0.5812 -0.0136
   6823SM   H2S 8807   3.848   3.084   9.425  1.7067  1.7742  0.2280
   6823SM   C3S 8808   4.054   3.042   9.482  0.1853 -0.1556 -0.3182
   6823SM   H3S 8809   4.105   2.945   9.503 -1.2912 -1.3086 -1.8130
   6823SM    O3 8810   4.072   3.108   9.610  0.0687 -0.4334 -0.5222
   6823SM   HO3 8811   3.988   3.090   9.654  1.5771 -1.5586  2.1602
   6823SM   C4S 8812   4.119   3.108   9.365 -0.5600  0.4750  0.1934
   6823SM   H4S 8813   4.159   3.037   9.291 -0.1798  1.1104 -0.2181
   6823SM   C5S 8814   4.122   3.243   9.343  0.8260  0.0684  0.0257
   6823SM   H5S 8815   4.067   3.306   9.413  0.0802 -2.1899  1.5877
   6823SM   C6S 8816   4.193   3.311   9.227 -0.3339 -0.4960  0.4579
   6823SM   H6S 8817   4.126   3.391   9.187  0.0203  0.0859  1.0042
   6823SM   H6T 8818   4.221   3.248   9.140  1.5477 -0.4890  1.0160
   6823SM   C7S 8819   4.324   3.367   9.262 -0.2841  0.2042  0.4088
   6823SM   H7S 8820   4.391   3.280   9.276 -0.5211 -0.1159 -0.3672
   6823SM   H7T 8821   4.327   3.425   9.356  0.0561 -0.7428  1.0036
   6823SM   C8S 8822   4.401   3.439   9.146  0.2768 -0.0081 -0.1254
   6823SM   H8S 8823   4.316   3.496   9.102  0.8867  0.7503 -0.3616
   6823SM   H8T 8824   4.450   3.370   9.074  0.7742 -0.7544  0.9104
   6823SM   C9S 8825   4.501   3.539   9.188 -0.2223 -0.3514 -0.5179
   6823SM   H9S 8826   4.604   3.502   9.207  0.0640  1.1858  1.1834
   6823SM   H9T 8827   4.472   3.574   9.289  3.1146 -1.6392  1.0314
   6823SM  C10S 8828   4.503   3.671   9.105  0.4434 -0.1392 -0.2305
   6823SM  H10S 8829   4.402   3.716   9.112 -0.2317 -1.5938 -0.3141
   6823SM  H10T 8830   4.519   3.642   8.999  0.8037  0.2840 -0.2966
   6823SM  C11S 8831   4.609   3.766   9.149 -0.2908  0.2984  0.6536
   6823SM  H11S 8832   4.710   3.731   9.120  1.0431  2.4892  2.3550
   6823SM  H11T 8833   4.604   3.785   9.258 -1.6023  1.6896  0.3849
   6823SM  C12S 8834   4.587   3.900   9.082  0.3688  1.0671  0.0520
   6823SM  H12S 8835   4.480   3.926   9.089  0.2356  0.5203  0.0786
   6823SM  H12T 8836   4.614   3.894   8.974  0.2726  1.4898  0.0021
   6823SM  C13S 8837   4.668   4.010   9.157  0.0277  0.2112  0.7301
   6823SM  H13S 8838   4.772   3.976   9.140 -0.9687 -1.7953 -2.3527
   6823SM  H13T 8839   4.649   4.006   9.266 -0.5104  2.8718  0.7945
   6823SM  C14S 8840   4.643   4.153   9.106 -0.0973  0.0271 -0.1381
   6823SM  H14S 8841   4.690   4.229   9.172 -3.3060  0.2741  2.0932
   6823SM  H14T 8842   4.537   4.188   9.111 -0.0089  0.1460  1.2177
   6823SM  C15S 8843   4.694   4.160   8.957 -0.3889 -0.2078  0.3535
   6823SM  H15S 8844   4.630   4.089   8.901  0.8335 -0.0513 -1.3155
   6823SM  H15T 8845   4.799   4.125   8.947  0.4066  1.3454  2.4602
   6823SM  C16S 8846   4.692   4.299   8.910 -0.4711 -0.5663 -0.6492
   6823SM  H16S 8847   4.755   4.354   8.983  0.7277 -1.9271 -0.5975
   6823SM  H16T 8848   4.589   4.339   8.924  0.9109  2.6975  1.3298
   6823SM  C17S 8849   4.731   4.310   8.763  1.0771 -0.1376  0.1214
   6823SM  H17S 8850   4.818   4.250   8.730  1.0573  0.0920 -0.3471
   6823SM  H17T 8851   4.752   4.417   8.739 -1.0789 -0.0358 -1.6832
   6823SM  C18S 8852   4.613   4.257   8.678  0.0429 -0.0516  0.4386
   6823SM  H18S 8853   4.637   4.257   8.569  1.8891  3.9790  0.6825
   6823SM  H18T 8854   4.525   4.320   8.702 -0.5687 -0.4769 -0.6075
   6823SM  H18U 8855   4.588   4.152   8.706 -0.3865  0.1631  0.8543
   6823SM   C1F 8856   3.782   2.857   9.286 -0.2650 -0.6065  0.3709
   6823SM    OF 8857   3.681   2.917   9.308  0.5424  0.5055  0.0212
   6823SM   C2F 8858   3.775   2.729   9.204 -1.0459  0.0893 -0.3837
   6823SM   H2F 8859   3.800   2.647   9.275  0.1553 -0.7875 -1.7493
   6823SM   H2G 8860   3.861   2.737   9.134 -0.4652 -1.5255  0.0974
   6823SM   C3F 8861   3.652   2.679   9.128  0.1707 -0.5279 -0.2447
   6823SM   H3F 8862   3.611   2.772   9.082  1.9861 -0.8657 -2.7266
   6823SM   H3G 8863   3.573   2.628   9.188 -0.3959 -1.0532 -1.4024
   6823SM   C4F 8864   3.681   2.586   9.008 -0.1623 -0.1801  0.3073
   6823SM   H4F 8865   3.582   2.537   8.994  0.1361 -0.4829 -0.8406
   6823SM   H4G 8866   3.749   2.505   9.039 -1.9354 -1.1397  1.9262
   6823SM   C5F 8867   3.747   2.651   8.882  0.1705 -0.0545  0.2212
   6823SM   H5F 8868   3.835   2.713   8.912 -0.3016  0.0674  1.4266
   6823SM   H5G 8869   3.679   2.729   8.843 -0.7786 -1.4771 -1.0440
   6823SM   C6F 8870   3.777   2.548   8.779 -0.1819 -1.0076 -0.0267
   6823SM   H6F 8871   3.690   2.481   8.760 -0.6258 -0.4548  0.0402
   6823SM   H6G 8872   3.862   2.486   8.814  0.5705 -1.3091 -2.2067
   6823SM   C7F 8873   3.824   2.607   8.649  0.1073 -0.1330  0.1664
   6823SM   H7F 8874   3.891   2.692   8.672  0.1207 -0.7573  2.7505
   6823SM   H7G 8875   3.744   2.658   8.590  0.8269  0.1482 -0.5907
   6823SM   C8F 8876   3.896   2.509   8.562 -0.8940 -0.0474 -0.1713
   6823SM   H8F 8877   3.834   2.418   8.550 -0.6150 -0.4801  1.4906
   6823SM   H8G 8878   3.991   2.480   8.613 -1.2853 -1.0470  0.0216
   6823SM   C9F 8879   3.914   2.551   8.416  0.5248  0.4842 -0.5760
   6823SM   H9F 8880   3.969   2.647   8.421  2.3266 -0.4677 -0.8889
   6823SM   H9G 8881   3.821   2.552   8.355 -0.4194  1.2689  0.8392
   6823SM  C10F 8882   4.011   2.470   8.332  0.2140 -0.1652 -0.2931
   6823SM  H10F 8883   3.984   2.364   8.353 -3.1812  0.9351  1.6336
   6823SM  H10G 8884   4.117   2.474   8.363  0.6724 -2.2212 -1.4358
   6823SM  C11F 8885   3.989   2.500   8.180 -0.2976 -0.2343 -0.5455
   6823SM  H11F 8886   4.014   2.607   8.159 -0.3916 -0.2512 -0.7466
   6823SM  H11G 8887   3.885   2.481   8.147 -0.0942 -0.5794 -0.9966
   6823SM  C12F 8888   4.077   2.418   8.088 -0.2094 -0.1611 -0.2120
   6823SM  H12F 8889   4.063   2.317   8.131 -1.5500  0.0720 -0.0613
   6823SM  H12G 8890   4.181   2.454   8.106  0.3232 -1.0471 -1.3844
   6823SM  C13F 8891   4.052   2.433   7.938 -0.2980  0.4029 -0.2347
   6823SM  H13F 8892   4.077   2.532   7.894 -0.1246  0.5696  0.2343
   6823SM  H13G 8893   3.942   2.418   7.928 -0.0738 -0.7369 -1.2252
   6823SM  C14F 8894   4.128   2.321   7.859 -0.0770 -0.3404 -0.6073
   6823SM  H14F 8895   4.142   2.239   7.932  1.0033 -1.1458 -1.6842
   6823SM  H14G 8896   4.227   2.364   7.831  0.7582 -0.2075  2.1994
   6823SM  C15F 8897   4.057   2.275   7.733 -0.0957 -0.4091 -0.2155
   6823SM  H15F 8898   4.054   2.367   7.670  1.7489 -0.0367  0.1719
   6823SM  H15G 8899   3.949   2.255   7.746 -0.0644 -0.6601 -0.3305
   6823SM  C16F 8900   4.131   2.162   7.658  0.7593 -0.4746  0.0133
   6823SM  H16F 8901   4.238   2.185   7.636  1.2190 -2.5541 -0.0577
   6823SM  H16G 8902   4.079   2.150   7.561  0.5089 -3.9763  0.4629
   6823SM  C17F 8903   4.150   2.027   7.728  0.4074 -0.3792 -0.8839
   6823SM  H17F 8904   4.189   2.051   7.829 -3.1925  0.9234  0.3519
   6823SM  H17G 8905   4.227   1.957   7.688  2.1996  0.3407  1.1257
   6823SM  C18F 8906   4.022   1.940   7.739 -1.1542 -0.2103  0.1110
   6823SM  H18F 8907   3.984   1.898   7.643 -1.1873 -0.1241  0.0856
   6823SM  H18G 8908   3.941   2.010   7.767  0.7390  1.9866  0.3636
   6823SM  C19F 8909   4.031   1.833   7.844  0.3061  0.6075 -0.3036
   6823SM  H19F 8910   4.095   1.748   7.813 -1.0191 -1.3730  2.0508
   6823SM  H19G 8911   3.927   1.792   7.848  0.0660  0.9134 -2.4141
   6823SM  C20F 8912   4.061   1.887   7.981  0.0521 -0.7369  0.3387
   6823SM  H20F 8913   3.996   1.977   7.990 -0.5247 -1.0337 -0.7547
   6823SM  H20G 8914   4.166   1.923   7.992 -0.1203 -0.8141  3.0035
   6823SM  C21F 8915   4.012   1.803   8.094 -0.1619  0.1200 -0.2280
   6823SM  H21F 8916   4.059   1.704   8.083  1.1112  0.8894 -2.1330
   6823SM  H21G 8917   3.903   1.786   8.079 -0.3977  0.8223  0.5931
   6823SM  C22F 8918   4.041   1.868   8.236  0.3194  0.8742  0.5808
   6823SM  H22F 8919   3.996   1.969   8.239 -3.1015 -0.5381  0.3400
   6823SM  H22G 8920   4.152   1.883   8.240  0.5556  0.6959 -2.7909
   6823SM  C23F 8921   3.977   1.777   8.345  0.5121  0.2388 -0.2151
   6823SM  H23F 8922   3.977   1.830   8.443  1.7991 -0.0988 -0.0198
   6823SM  H23G 8923   4.030   1.681   8.364 -0.8031  0.1128  3.6663
   6823SM  H23H 8924   3.871   1.758   8.317  0.1807  1.9197 -0.2019
   6923SM     N 8925   5.110   2.449  10.025 -0.4503  0.4536  0.2084
   6923SM   C15 8926   5.219   2.473  10.121 -1.0849 -0.1712  0.0551
   6923SM  H15A 8927   5.262   2.389  10.174 -0.1594  1.1171  1.4340
   6923SM  H15B 8928   5.187   2.542  10.198 -0.5038  1.0763 -0.7803
   6923SM  H15C 8929   5.302   2.522  10.072 -0.6410 -0.2363  0.7159
   6923SM   C14 8930   5.020   2.366  10.113 -0.0923 -0.5668 -0.1080
   6923SM  H14A 8931   4.983   2.418  10.200  1.0052 -0.1515  0.1148
   6923SM  H14B 8932   5.064   2.271  10.136 -1.4066 -1.2781 -0.3995
   6923SM  H14C 8933   4.934   2.336  10.054  0.0794 -1.1742 -0.0489
   6923SM   C13 8934   5.058   2.585   9.992 -0.0378 -0.8576 -0.5553
   6923SM  H13A 8935   5.140   2.648   9.961  0.9984 -1.4092  0.9865
   6923SM  H13B 8936   5.018   2.629  10.082  2.1400 -2.1715  1.1413
   6923SM  H13C 8937   4.984   2.580   9.913  0.7838 -0.1392 -1.4031
   6923SM   C12 8938   5.159   2.369   9.908 -0.1939  0.2926  0.3911
   6923SM  H12A 8939   5.085   2.332   9.839 -0.1896 -1.3485  1.2046
   6923SM  H12B 8940   5.202   2.276   9.943 -0.3684  0.4672  1.0932
   6923SM   C11 8941   5.265   2.438   9.809 -0.6282  0.5817  0.5876
   6923SM  H11A 8942   5.315   2.367   9.739 -0.7826  1.2774 -0.2422
   6923SM  H11B 8943   5.346   2.483   9.870  0.8061 -2.5191  1.2074
   6923SM     P 8944   5.096   2.536   9.632  0.0649 -0.0935  0.0956
   6923SM   O13 8945   5.122   2.421   9.540 -0.6494  0.1767 -0.0973
   6923SM   O14 8946   4.969   2.532   9.703 -0.3384 -0.1566 -0.3057
   6923SM   O11 8947   5.106   2.669   9.541 -0.2483  0.6662 -0.3191
   6923SM   O12 8948   5.214   2.552   9.737 -0.2156 -0.0218 -0.0013
   6923SM   C1S 8949   5.213   2.692   9.455  0.3502 -0.3274 -0.0133
   6923SM   H1S 8950   5.195   2.630   9.365 -2.0835  0.2748 -0.0095
   6923SM   H1T 8951   5.309   2.677   9.509 -0.4970  0.3405  1.7725
   6923SM    NF 8952   5.320   2.864   9.311 -0.0107 -0.2411 -0.8131
   6923SM   HNF 8953   5.402   2.906   9.348 -1.1882  1.0500  0.4846
   6923SM   C2S 8954   5.210   2.846   9.404  0.7494 -0.1079  0.8738
   6923SM   H2S 8955   5.115   2.859   9.348  1.4551 -2.2658 -0.9855
   6923SM   C3S 8956   5.214   2.943   9.526  0.6111  0.1330 -0.2234
   6923SM   H3S 8957   5.305   2.920   9.585 -0.1974  0.4938  1.2187
   6923SM    O3 8958   5.110   2.930   9.630  0.1840 -0.1682  0.1731
   6923SM   HO3 8959   5.056   2.852   9.618 -0.2315  0.0356  0.6914
   6923SM   C4S 8960   5.224   3.086   9.481  0.2918  0.6439 -0.1025
   6923SM   H4S 8961   5.329   3.118   9.478 -0.0620  1.9469  0.8483
   6923SM   C5S 8962   5.131   3.157   9.421 -0.2727  0.2741  0.8466
   6923SM   H5S 8963   5.029   3.116   9.416 -0.7493  1.0349  3.2508
   6923SM   C6S 8964   5.160   3.300   9.367  0.5820  0.3193  0.2187
   6923SM   H6S 8965   5.268   3.325   9.371  0.5297  0.8364 -1.1190
   6923SM   H6T 8966   5.110   3.381   9.425  2.0630 -0.6140  3.0029
   6923SM   C7S 8967   5.105   3.296   9.223 -0.5527 -0.7754  0.6188
   6923SM   H7S 8968   5.156   3.218   9.161 -0.6216  0.4203 -1.0099
   6923SM   H7T 8969   5.142   3.390   9.176  2.8588 -1.8161  0.9287
   6923SM   C8S 8970   4.949   3.293   9.201  0.6970  0.3378  0.0755
   6923SM   H8S 8971   4.906   3.395   9.213  0.2571  0.2839 -0.9316
   6923SM   H8T 8972   4.895   3.230   9.275  1.5506 -1.6202 -0.9063
   6923SM   C9S 8973   4.899   3.239   9.064  1.0974 -0.1871  0.3311
   6923SM   H9S 8974   4.937   3.137   9.043 -1.3410 -0.9272 -0.7662
   6923SM   H9T 8975   4.939   3.302   8.981  1.0153  2.2856  2.0292
   6923SM  C10S 8976   4.750   3.203   9.055  0.2311  0.1329 -0.4987
   6923SM  H10S 8977   4.702   3.303   9.062  0.3886  0.1904 -0.2191
   6923SM  H10T 8978   4.720   3.153   9.149  0.2410  3.0493  1.1632
   6923SM  C11S 8979   4.693   3.136   8.928 -1.1118  0.1614 -0.6559
   6923SM  H11S 8980   4.582   3.134   8.931 -1.2611  3.6007  1.1182
   6923SM  H11T 8981   4.746   3.039   8.941  0.9402  1.2570 -0.3460
   6923SM  C12S 8982   4.735   3.212   8.808  0.1718 -0.5212 -1.1326
   6923SM  H12S 8983   4.707   3.148   8.722  0.4025 -3.4047  0.8284
   6923SM  H12T 8984   4.845   3.227   8.801 -0.1509  2.0532 -1.9870
   6923SM  C13S 8985   4.678   3.359   8.800  0.2779 -0.1601  0.3661
   6923SM  H13S 8986   4.732   3.427   8.870  0.3283 -0.5866  0.7444
   6923SM  H13T 8987   4.569   3.355   8.823  0.4015  2.1097  1.7185
   6923SM  C14S 8988   4.708   3.441   8.674  0.1772  0.0242 -0.0644
   6923SM  H14S 8989   4.658   3.391   8.589  0.4394 -0.4678  0.0705
   6923SM  H14T 8990   4.815   3.448   8.646 -0.1665  1.0326 -1.2364
   6923SM  C15S 8991   4.660   3.584   8.675 -0.1206 -0.1742  0.1796
   6923SM  H15S 8992   4.701   3.629   8.768 -0.6508 -0.5552  0.6080
   6923SM  H15T 8993   4.549   3.586   8.683  0.0220  0.1140  4.0086
   6923SM  C16S 8994   4.706   3.667   8.552  0.2820  1.0184  0.1154
   6923SM  H16S 8995   4.676   3.609   8.462  0.8527  0.0969  0.5071
   6923SM  H16T 8996   4.817   3.656   8.544 -0.0591 -3.2548 -1.5910
   6923SM  C17S 8997   4.672   3.817   8.548 -0.3640 -0.5675 -0.4113
   6923SM  H17S 8998   4.566   3.832   8.578 -0.2513 -0.0289 -0.2828
   6923SM  H17T 8999   4.691   3.846   8.442  1.9005 -1.3663 -0.2968
   6923SM  C18S 9000   4.752   3.915   8.629  0.5869 -0.3174  0.0553
   6923SM  H18S 9001   4.736   4.023   8.608 -1.4019 -0.7250 -0.7780
   6923SM  H18T 9002   4.861   3.901   8.611  0.3398 -1.0279 -0.9940
   6923SM  H18U 9003   4.740   3.902   8.739  0.4423  2.6848  0.4990
   6923SM   C1F 9004   5.318   2.811   9.192  0.0315  0.8771 -0.3910
   6923SM    OF 9005   5.209   2.779   9.138 -0.2470 -0.4897  0.0763
   6923SM   C2F 9006   5.446   2.784   9.117  0.1343 -0.8864 -0.0101
   6923SM   H2F 9007   5.517   2.719   9.172 -0.6303  0.5032  2.8296
   6923SM   H2G 9008   5.480   2.885   9.086 -0.8623 -0.8669 -1.1131
   6923SM   C3F 9009   5.422   2.726   8.978 -0.4667 -0.4823 -0.2188
   6923SM   H3F 9010   5.367   2.789   8.905  1.7044  2.1866  0.2691
   6923SM   H3G 9011   5.363   2.633   8.979 -1.8015  0.3322  1.1007
   6923SM   C4F 9012   5.552   2.682   8.906 -0.0406  0.2681  0.0669
   6923SM   H4F 9013   5.618   2.771   8.900 -0.1240  0.2254 -2.1955
   6923SM   H4G 9014   5.520   2.653   8.804  0.4735 -0.4710  0.1092
   6923SM   C5F 9015   5.631   2.568   8.972  0.3246  0.4825  0.0655
   6923SM   H5F 9016   5.556   2.493   9.006  1.4435 -2.8550 -3.9803
   6923SM   H5G 9017   5.698   2.610   9.050  0.5745 -0.8463  0.6020
   6923SM   C6F 9018   5.727   2.490   8.875 -0.0880  0.2396  0.0862
   6923SM   H6F 9019   5.779   2.566   8.812  0.2198 -2.0907 -2.6736
   6923SM   H6G 9020   5.672   2.428   8.801  0.7920 -1.6555  0.9609
   6923SM   C7F 9021   5.817   2.392   8.947 -0.3785  0.6262 -0.0955
   6923SM   H7F 9022   5.781   2.290   8.925 -0.7393  0.9487 -1.0615
   6923SM   H7G 9023   5.810   2.405   9.057 -0.6232 -3.2157  0.4835
   6923SM   C8F 9024   5.967   2.399   8.907 -0.4517 -0.1300 -0.0269
   6923SM   H8F 9025   5.968   2.387   8.797  1.9225  1.0368 -0.1774
   6923SM   H8G 9026   6.005   2.313   8.966 -2.3537 -0.0277  1.4757
   6923SM   C9F 9027   6.038   2.519   8.943 -0.1793  0.2684  0.1778
   6923SM   H9F 9028   6.023   2.547   9.050 -0.1433 -0.6507  0.4259
   6923SM   H9G 9029   5.997   2.599   8.877  0.3153  1.1603  0.9310
   6923SM  C10F 9030   6.188   2.517   8.937  0.0783  0.2560 -0.8413
   6923SM  H10F 9031   6.218   2.448   8.856 -0.1724  1.1036 -1.6666
   6923SM  H10G 9032   6.233   2.478   9.031 -0.1407  0.9579 -0.4317
   6923SM  C11F 9033   6.244   2.657   8.913 -0.2145 -0.2205  0.0497
   6923SM  H11F 9034   6.173   2.728   8.961  1.1456  0.1045  1.6555
   6923SM  H11G 9035   6.242   2.671   8.802 -2.3089 -0.2881  0.0251
   6923SM  C12F 9036   6.391   2.662   8.953  0.6162  0.3052  0.0148
   6923SM  H12F 9037   6.442   2.590   8.886 -0.2152 -0.0883 -0.2052
   6923SM  H12G 9038   6.398   2.630   9.059 -0.1374 -0.7000 -0.2292
   6923SM  C13F 9039   6.466   2.795   8.951  0.4901  0.1590 -0.5532
   6923SM  H13F 9040   6.574   2.783   8.972  0.4313 -0.4238 -0.5649
   6923SM  H13G 9041   6.445   2.861   9.038  1.2537  0.6262 -0.7153
   6923SM  C14F 9042   6.466   2.875   8.820  0.4328 -0.3321 -0.7106
   6923SM  H14F 9043   6.519   2.972   8.822 -0.6129  0.2562 -0.9349
   6923SM  H14G 9044   6.360   2.892   8.790  0.4066 -2.3420 -2.0094
   6923SM  C15F 9045   6.505   2.792   8.697  0.1962 -0.6126  0.6227
   6923SM  H15F 9046   6.422   2.723   8.671  1.0583 -2.0318  1.4769
   6923SM  H15G 9047   6.592   2.729   8.724  0.1426 -1.4906 -1.0910
   6923SM  C16F 9048   6.541   2.887   8.575 -0.2438 -0.5701 -0.1479
   6923SM  H16F 9049   6.614   2.965   8.607 -1.6580  0.9144 -0.3880
   6923SM  H16G 9050   6.448   2.945   8.556 -0.5564  0.1652  2.9629
   6923SM  C17F 9051   6.604   2.823   8.446 -0.2394 -0.1979  0.3208
   6923SM  H17F 9052   6.674   2.741   8.477  1.0181  0.6385 -0.2390
   6923SM  H17G 9053   6.652   2.901   8.384  0.5940 -0.2463  0.8751
   6923SM  C18F 9054   6.494   2.762   8.355 -0.2433 -0.1387 -0.4095
   6923SM  H18F 9055   6.415   2.715   8.417  0.5471 -1.7613 -0.5901
   6923SM  H18G 9056   6.554   2.682   8.307  0.6474 -1.1272  2.1987
   6923SM  C19F 9057   6.443   2.873   8.258  0.6622  0.6306 -0.0274
   6923SM  H19F 9058   6.533   2.903   8.202  1.8661 -0.0161  1.4707
   6923SM  H19G 9059   6.416   2.961   8.321 -2.0436  0.7368 -1.1876
   6923SM  C20F 9060   6.328   2.827   8.176  0.8308 -0.0302  0.3514
   6923SM  H20F 9061   6.236   2.817   8.237 -0.9322  1.7518 -1.8631
   6923SM  H20G 9062   6.341   2.722   8.143  0.2185  0.0927 -0.3035
   6923SM  C21F 9063   6.295   2.912   8.055  0.0317 -0.3858  0.6219
   6923SM  H21F 9064   6.193   2.879   8.024 -0.1101 -0.8171  1.5136
   6923SM  H21G 9065   6.371   2.904   7.975 -0.1155 -1.9816  0.6105
   6923SM  C22F 9066   6.293   3.062   8.094  0.4771 -0.1447  0.1794
   6923SM  H22F 9067   6.246   3.119   8.011 -0.7734 -0.0194  0.9413
   6923SM  H22G 9068   6.390   3.096   8.134  0.6091 -1.7940  1.3576
   6923SM  C23F 9069   6.186   3.097   8.198 -0.2466 -0.0799 -0.5530
   6923SM  H23F 9070   6.219   3.052   8.294  1.9830  0.0461 -1.1825
   6923SM  H23G 9071   6.087   3.064   8.162 -1.2604 -0.7234  2.5588
   6923SM  H23H 9072   6.182   3.202   8.235  0.0089 -0.2332 -0.0842
   7023SM     N 9073   4.852   1.651   9.655 -0.3868  0.3641  0.1936
   7023SM   C15 9074   4.763   1.605   9.768 -0.6355  0.0838  0.1582
   7023SM  H15A 9075   4.761   1.497   9.768  0.5630  0.0381 -0.4281
   7023SM  H15B 9076   4.660   1.635   9.757 -0.5069  0.1031 -1.1897
   7023SM  H15C 9077   4.801   1.628   9.866 -1.9965 -2.0013  1.2502
   7023SM   C14 9078   4.840   1.553   9.543  0.3039  0.5980 -0.3767
   7023SM  H14A 9079   4.738   1.536   9.515  0.7828 -0.0950 -1.8157
   7023SM  H14B 9080   4.882   1.458   9.574  1.0811  0.6300 -1.2678
   7023SM  H14C 9081   4.900   1.574   9.455 -0.4511 -4.0410 -2.3172
   7023SM   C13 9082   4.811   1.786   9.615  0.2508  0.5313  0.0443
   7023SM  H13A 9083   4.709   1.785   9.579  0.9711 -1.2952 -2.1646
   7023SM  H13B 9084   4.867   1.818   9.528  1.1113  1.0339  0.7621
   7023SM  H13C 9085   4.822   1.857   9.696 -0.0904  1.9280 -1.1049
   7023SM   C12 9086   5.001   1.658   9.701 -0.6120  0.0451  0.4453
   7023SM  H12A 9087   5.004   1.726   9.785 -0.7279 -1.3249  1.5982
   7023SM  H12B 9088   5.056   1.697   9.616  0.6679 -0.0791  1.2026
   7023SM   C11 9089   5.084   1.529   9.730 -0.7851  0.1830  0.6268
   7023SM  H11A 9090   5.031   1.455   9.795 -2.3937 -0.5322 -1.3895
   7023SM  H11B 9091   5.175   1.563   9.784 -0.8952 -0.3563  1.1681
   7023SM     P 9092   5.255   1.502   9.532 -0.0864 -0.1772  0.0729
   7023SM   O13 9093   5.365   1.478   9.622  0.4247  0.1395 -0.4939
   7023SM   O14 9094   5.256   1.432   9.403 -0.3248  0.3351 -0.1322
   7023SM   O11 9095   5.227   1.656   9.514 -0.2503 -0.0009  0.7184
   7023SM   O12 9096   5.124   1.457   9.611 -0.2117  0.0369  0.1501
   7023SM   C1S 9097   5.315   1.750   9.458  0.3784  0.3745 -0.3109
   7023SM   H1S 9098   5.421   1.720   9.475  0.0248 -0.6936  0.1005
   7023SM   H1T 9099   5.301   1.846   9.513 -0.9699  0.0684 -0.0840
   7023SM    NF 9100   5.385   1.852   9.248  0.0231 -0.2073  0.3987
   7023SM   HNF 9101   5.375   1.950   9.267 -3.1547 -0.2013 -0.5998
   7023SM   C2S 9102   5.274   1.781   9.307 -0.0091 -0.5553  0.7284
   7023SM   H2S 9103   5.275   1.681   9.260  0.5452 -0.9805  1.6373
   7023SM   C3S 9104   5.128   1.831   9.292 -0.4833 -0.3828  0.4267
   7023SM   H3S 9105   5.105   1.925   9.347 -0.9758 -1.1338  1.5318
   7023SM    O3 9106   5.043   1.733   9.338 -0.2612  0.4042 -0.4435
   7023SM   HO3 9107   5.100   1.690   9.402  0.1377 -0.3927 -1.3110
   7023SM   C4S 9108   5.090   1.850   9.146 -0.1123  0.0473  0.2013
   7023SM   H4S 9109   5.063   1.755   9.098 -0.7167  0.7350 -0.8760
   7023SM   C5S 9110   5.085   1.953   9.065 -0.0581  0.4992  0.4827
   7023SM   H5S 9111   5.100   2.052   9.111 -2.6585  0.5102  1.4686
   7023SM   C6S 9112   5.028   1.951   8.925 -0.5384  0.5268  0.4076
   7023SM   H6S 9113   5.101   2.009   8.864 -1.3292 -0.1303 -1.2192
   7023SM   H6T 9114   4.931   2.004   8.920 -1.9210 -1.9819 -2.6935
   7023SM   C7S 9115   4.996   1.822   8.847 -0.1942  0.1643 -0.2371
   7023SM   H7S 9116   4.916   1.763   8.896  0.3320 -1.2207 -0.9940
   7023SM   H7T 9117   5.091   1.766   8.862  0.1177  0.2438 -1.7660
   7023SM   C8S 9118   4.973   1.832   8.696 -0.3740 -0.1496  0.7626
   7023SM   H8S 9119   5.047   1.885   8.633 -3.1035  0.9784 -1.7186
   7023SM   H8T 9120   4.878   1.890   8.687  0.5164  1.4302  1.2029
   7023SM   C9S 9121   4.949   1.687   8.651  0.2815  0.5523  0.0972
   7023SM   H9S 9122   4.872   1.638   8.714  0.1005  0.1919 -0.4010
   7023SM   H9T 9123   5.045   1.631   8.650 -0.3535 -0.5559 -0.7806
   7023SM  C10S 9124   4.891   1.677   8.506 -0.1844  0.2906 -0.8027
   7023SM  H10S 9125   4.791   1.725   8.506 -1.1475 -1.6183 -1.3022
   7023SM  H10T 9126   4.873   1.572   8.475  0.6291 -0.0506 -0.1571
   7023SM  C11S 9127   4.966   1.747   8.400 -0.2065 -0.2854 -0.1925
   7023SM  H11S 9128   5.071   1.722   8.429  0.0209  1.3579  0.4932
   7023SM  H11T 9129   4.962   1.857   8.411 -0.9304  0.0532 -3.0800
   7023SM  C12S 9130   4.957   1.699   8.261 -0.0370  0.0958 -0.2923
   7023SM  H12S 9131   4.860   1.732   8.218 -0.0354  0.8443  0.2607
   7023SM  H12T 9132   4.973   1.589   8.256  0.9896  0.2688 -1.5016
   7023SM  C13S 9133   5.071   1.768   8.185  0.1662  0.3131  0.4275
   7023SM  H13S 9134   5.171   1.748   8.229  0.1175 -1.7499 -0.2984
   7023SM  H13T 9135   5.054   1.878   8.181 -1.0208  0.1169 -0.8853
   7023SM  C14S 9136   5.079   1.714   8.038  0.3164 -0.2371  0.1509
   7023SM  H14S 9137   4.984   1.736   7.985  0.8941  2.6406  0.1455
   7023SM  H14T 9138   5.103   1.606   8.048  2.6986  0.2956  0.9067
   7023SM  C15S 9139   5.183   1.779   7.969 -0.5217  0.4847  0.2098
   7023SM  H15S 9140   5.282   1.773   8.019 -0.7598 -2.5782  0.4546
   7023SM  H15T 9141   5.163   1.888   7.957 -0.0149  0.7177  1.3436
   7023SM  C16S 9142   5.214   1.710   7.834 -0.1732 -0.1499  0.3622
   7023SM  H16S 9143   5.125   1.716   7.767 -1.8172  0.3657  2.4751
   7023SM  H16T 9144   5.229   1.602   7.854 -1.0065 -0.1447  1.1147
   7023SM  C17S 9145   5.333   1.781   7.773 -0.4696 -0.3017 -0.1805
   7023SM  H17S 9146   5.417   1.806   7.841 -0.6067  1.6481 -0.6747
   7023SM  H17T 9147   5.305   1.885   7.746  0.4071 -0.3085 -1.2142
   7023SM  C18S 9148   5.390   1.719   7.643 -0.1968 -0.7687  0.2950
   7023SM  H18S 9149   5.478   1.776   7.606  0.8554 -1.7258  1.2649
   7023SM  H18T 9150   5.304   1.714   7.572  0.4703 -0.1576 -0.5781
   7023SM  H18U 9151   5.423   1.617   7.672 -0.8653 -0.1746  3.5693
   7023SM   C1F 9152   5.511   1.809   9.234  0.3819  0.2848 -0.0299
   7023SM    OF 9153   5.530   1.691   9.250  0.2593  0.3607 -0.0719
   7023SM   C2F 9154   5.615   1.909   9.210 -0.8660  0.3233  0.5431
   7023SM   H2F 9155   5.660   1.929   9.310 -1.6115 -0.9304  1.1485
   7023SM   H2G 9156   5.563   2.003   9.180 -1.0138  0.0682 -0.0020
   7023SM   C3F 9157   5.714   1.850   9.102 -0.5240 -0.0493 -0.2529
   7023SM   H3F 9158   5.658   1.822   9.010  1.9033 -2.8556 -1.0368
   7023SM   H3G 9159   5.762   1.758   9.141  0.7843  1.2297  1.2706
   7023SM   C4F 9160   5.835   1.952   9.067  0.4466 -0.0293  0.6474
   7023SM   H4F 9161   5.903   1.945   9.154  1.8944 -1.4096 -0.5394
   7023SM   H4G 9162   5.787   2.051   9.052  2.1543  0.3797 -3.2719
   7023SM   C5F 9163   5.916   1.908   8.943 -0.0268 -0.2344  0.0301
   7023SM   H5F 9164   5.958   1.806   8.952 -3.3721 -1.6208  1.4179
   7023SM   H5G 9165   5.989   1.990   8.925 -0.7523  0.3366 -0.3888
   7023SM   C6F 9166   5.840   1.914   8.808 -0.6498 -0.0411  0.5817
   7023SM   H6F 9167   5.795   2.016   8.801  0.3875  0.4913  1.4418
   7023SM   H6G 9168   5.751   1.848   8.811 -0.6033 -0.4920 -3.4241
   7023SM   C7F 9169   5.916   1.887   8.682  0.3643 -0.2306  0.0794
   7023SM   H7F 9170   5.984   1.800   8.697 -0.1813 -0.6084  0.3756
   7023SM   H7G 9171   5.977   1.977   8.662  0.7096 -0.7249 -1.2191
   7023SM   C8F 9172   5.831   1.854   8.558 -0.7315  0.6583 -0.1350
   7023SM   H8F 9173   5.774   1.944   8.528 -1.0461  0.2458 -0.7999
   7023SM   H8G 9174   5.764   1.768   8.580 -0.1417  0.2981  0.2820
   7023SM   C9F 9175   5.903   1.807   8.429 -0.2803 -0.0586 -0.3122
   7023SM   H9F 9176   5.844   1.778   8.339  1.1088 -0.7908 -1.0042
   7023SM   H9G 9177   5.967   1.719   8.452  2.2699  1.5417 -0.9436
   7023SM  C10F 9178   5.996   1.918   8.391 -1.0032 -0.5843 -0.5723
   7023SM  H10F 9179   6.065   1.941   8.475  0.5743 -1.3430 -1.6134
   7023SM  H10G 9180   5.947   2.016   8.375  0.5815  0.1201 -1.4117
   7023SM  C11F 9181   6.080   1.891   8.266  0.6777 -0.0274 -0.5998
   7023SM  H11F 9182   6.014   1.830   8.201 -0.5928  0.0117  0.6132
   7023SM  H11G 9183   6.171   1.830   8.284  0.6380 -0.5516 -2.0032
   7023SM  C12F 9184   6.123   2.007   8.176 -0.2721 -0.0433 -0.2767
   7023SM  H12F 9185   6.196   2.067   8.234 -0.9866  1.1100 -0.5417
   7023SM  H12G 9186   6.024   2.055   8.163 -1.8849 -2.7396  1.0276
   7023SM  C13F 9187   6.193   1.969   8.043 -0.5373  0.3652 -0.2213
   7023SM  H13F 9188   6.214   2.069   7.999 -2.4979  0.6169 -0.6799
   7023SM  H13G 9189   6.128   1.919   7.968  2.6829 -1.2915 -2.1054
   7023SM  C14F 9190   6.326   1.887   8.071  0.8409 -0.4066 -0.1168
   7023SM  H14F 9191   6.298   1.785   8.106  0.5362 -0.5330 -0.7099
   7023SM  H14G 9192   6.387   1.934   8.152  1.3060 -0.2605 -0.5469
   7023SM  C15F 9193   6.412   1.854   7.953  0.5739  0.4220  0.6258
   7023SM  H15F 9194   6.454   1.954   7.925  1.5158 -0.0278  0.3921
   7023SM  H15G 9195   6.344   1.827   7.869 -0.4012 -0.3996  1.6634
   7023SM  C16F 9196   6.530   1.761   7.976 -0.4023  0.6189  0.3976
   7023SM  H16F 9197   6.492   1.671   8.029  0.0628 -0.0857 -0.4409
   7023SM  H16G 9198   6.610   1.806   8.039 -0.2321  2.3026 -0.9549
   7023SM  C17F 9199   6.607   1.714   7.847  0.4666  0.1765 -0.0295
   7023SM  H17F 9200   6.588   1.796   7.775 -2.7841 -0.5393 -0.1527
   7023SM  H17G 9201   6.552   1.632   7.798  1.4718 -0.7443  0.3576
   7023SM  C18F 9202   6.754   1.666   7.856 -0.5795  0.1289 -0.0601
   7023SM  H18F 9203   6.757   1.568   7.909 -0.6651 -0.5374 -1.2402
   7023SM  H18G 9204   6.804   1.742   7.919  0.3535 -1.6309  1.4476
   7023SM  C19F 9205   6.826   1.643   7.715 -0.3124  0.0938  0.1084
   7023SM  H19F 9206   6.851   1.746   7.682 -0.1780  0.0543  0.0870
   7023SM  H19G 9207   6.753   1.599   7.643 -0.6211  0.6409  0.0770
   7023SM  C20F 9208   6.961   1.572   7.726  0.6489  0.3154  0.0741
   7023SM  H20F 9209   6.957   1.468   7.763  3.1664  0.1728  0.1165
   7023SM  H20G 9210   7.022   1.625   7.803 -1.3941 -0.7442  2.5874
   7023SM  C21F 9211   7.031   1.574   7.590  0.3542 -0.0694  0.0780
   7023SM  H21F 9212   7.053   1.679   7.561  1.5307 -0.6136 -1.1333
   7023SM  H21G 9213   6.963   1.524   7.518 -1.0415  1.4263  0.3126
   7023SM  C22F 9214   7.170   1.505   7.601  0.3458  0.0663 -0.1994
   7023SM  H22F 9215   7.234   1.548   7.680 -0.9891 -1.9140  2.1081
   7023SM  H22G 9216   7.215   1.511   7.499 -2.4047  1.0347 -1.4682
   7023SM  C23F 9217   7.158   1.352   7.616 -0.3315  0.4798  0.4671
   7023SM  H23F 9218   7.085   1.304   7.548 -0.2610 -1.0451  1.4049
   7023SM  H23G 9219   7.136   1.313   7.718 -1.3558  0.6319  0.3079
   7023SM  H23H 9220   7.254   1.305   7.584 -1.0378 -2.3427  2.1248
   7123SM     N 9221   4.906   8.659   9.998  0.5105 -0.2548 -0.3671
   7123SM   C15 9222   4.941   8.569  10.110 -0.2213  0.5568  0.3429
   7123SM  H15A 9223   4.971   8.619  10.201 -1.3423  0.8572  0.5578
   7123SM  H15B 9224   5.023   8.505  10.081 -0.9630  0.4030 -1.5677
   7123SM  H15C 9225   4.859   8.502  10.130  0.3033 -0.2944 -0.3065
   7123SM   C14 9226   4.836   8.566   9.893  0.4354  0.3505 -0.6141
   7123SM  H14A 9227   4.909   8.504   9.843  0.2257 -0.8529  0.5346
   7123SM  H14B 9228   4.802   8.632   9.815 -0.4186  0.7778  0.0988
   7123SM  H14C 9229   4.760   8.502   9.936  0.8599  0.4052  0.2470
   7123SM   C13 9230   4.803   8.755  10.045 -0.4014 -0.0232 -0.5242
   7123SM  H13A 9231   4.845   8.817  10.122 -3.0845  0.0503  1.0058
   7123SM  H13B 9232   4.707   8.717  10.077  0.1801  0.8126  2.5382
   7123SM  H13C 9233   4.772   8.826   9.970 -1.0934 -0.2962 -0.5068
   7123SM   C12 9234   5.029   8.721   9.939 -0.2649 -0.0949 -0.5621
   7123SM  H12A 9235   5.096   8.650   9.894  0.8475  1.1030 -0.8875
   7123SM  H12B 9236   5.088   8.764  10.019 -0.2007 -0.5379 -0.3714
   7123SM   C11 9237   5.010   8.842   9.843 -0.2279  0.4111  0.1714
   7123SM  H11A 9238   5.111   8.879   9.816 -1.2723  2.2740 -1.4883
   7123SM  H11B 9239   4.946   8.921   9.887  2.2301  1.8706  1.3085
   7123SM     P 9240   4.876   8.890   9.629  0.2618  0.6187  0.2533
   7123SM   O13 9241   4.828   8.811   9.515 -0.0520 -0.6586 -0.1336
   7123SM   O14 9242   4.781   8.982   9.695 -0.1953 -0.1505  0.1955
   7123SM   O11 9243   4.993   8.983   9.583  0.3805 -0.0406 -0.7906
   7123SM   O12 9244   4.947   8.785   9.723 -0.0928  0.1442  0.3907
   7123SM   C1S 9245   5.117   8.936   9.535 -0.0364  0.7441  0.6994
   7123SM   H1S 9246   5.146   8.840   9.583  2.3680  0.0011 -1.9335
   7123SM   H1T 9247   5.204   8.999   9.564  0.4324  0.1026  0.6982
   7123SM    NF 9248   5.245   8.865   9.337 -0.8760 -0.2365 -0.3765
   7123SM   HNF 9249   5.322   8.925   9.315  0.3019 -1.6642 -0.3399
   7123SM   C2S 9250   5.125   8.923   9.378  0.4189 -0.8578  0.0765
   7123SM   H2S 9251   5.046   8.853   9.344 -0.0422 -1.3747  2.0434
   7123SM   C3S 9252   5.120   9.067   9.315  1.1416  0.2033 -0.1929
   7123SM   H3S 9253   5.203   9.125   9.361 -0.1408 -0.1199  2.7636
   7123SM    O3 9254   5.006   9.140   9.344  0.0523 -0.4186  0.1827
   7123SM   HO3 9255   4.944   9.087   9.393 -1.1407  1.6126  0.9970
   7123SM   C4S 9256   5.139   9.054   9.164 -0.3936  0.2350 -0.9654
   7123SM   H4S 9257   5.063   8.991   9.115  0.0085 -1.5389  0.5968
   7123SM   C5S 9258   5.231   9.125   9.093  0.7514  0.1576  0.0523
   7123SM   H5S 9259   5.292   9.200   9.144 -0.1618  3.1153 -2.8669
   7123SM   C6S 9260   5.248   9.125   8.943 -0.1395 -0.4781 -0.1498
   7123SM   H6S 9261   5.237   9.230   8.910 -1.7175 -0.0893  1.4337
   7123SM   H6T 9262   5.176   9.056   8.894 -0.4116 -0.0018 -0.4283
   7123SM   C7S 9263   5.392   9.069   8.910 -0.1866 -0.2217 -0.2427
   7123SM   H7S 9264   5.405   9.067   8.799  1.2143 -0.0792 -0.0983
   7123SM   H7T 9265   5.391   8.971   8.964  0.5802 -0.3721 -0.4801
   7123SM   C8S 9266   5.501   9.162   8.960  0.4186 -0.7585  0.2752
   7123SM   H8S 9267   5.483   9.194   9.065 -3.1874 -0.7408 -0.2433
   7123SM   H8T 9268   5.501   9.257   8.903  2.6512 -0.2797  0.9792
   7123SM   C9S 9269   5.638   9.091   8.945 -0.6592 -0.6313  0.0961
   7123SM   H9S 9270   5.654   9.093   8.835 -0.7935  0.3096  0.0835
   7123SM   H9T 9271   5.640   8.982   8.968  0.4086 -0.1347  2.6916
   7123SM  C10S 9272   5.758   9.166   9.007 -0.6360  0.6217 -0.3028
   7123SM  H10S 9273   5.754   9.193   9.114  3.9695  0.9184  0.0033
   7123SM  H10T 9274   5.764   9.255   8.940 -0.3658  0.3925 -0.5860
   7123SM  C11S 9275   5.881   9.084   8.999  0.3828  0.4835  0.0896
   7123SM  H11S 9276   5.912   9.074   8.893  0.1724 -0.1896  0.0878
   7123SM  H11T 9277   5.859   8.982   9.037  1.9332 -0.1570 -0.6619
   7123SM  C12S 9278   6.009   9.147   9.052  0.0433  0.3654 -0.5858
   7123SM  H12S 9279   6.000   9.125   9.161 -1.2292  1.5253 -0.4349
   7123SM  H12T 9280   6.012   9.257   9.034  0.4763  0.7655  1.5967
   7123SM  C13S 9281   6.146   9.084   9.001  0.4249  0.0068 -0.0469
   7123SM  H13S 9282   6.229   9.142   9.046 -1.2395  1.2776  1.5316
   7123SM  H13T 9283   6.148   9.079   8.890  0.1048 -0.7005 -0.0280
   7123SM  C14S 9284   6.172   8.939   9.050  0.6872 -0.9456  0.3594
   7123SM  H14S 9285   6.075   8.886   9.038  1.7209 -2.7896 -0.3148
   7123SM  H14T 9286   6.204   8.952   9.155 -1.5833  0.6673  0.9209
   7123SM  C15S 9287   6.286   8.875   8.969 -0.2017 -0.4834  0.3304
   7123SM  H15S 9288   6.364   8.953   8.964  0.9306 -1.5879  0.4092
   7123SM  H15T 9289   6.260   8.857   8.862  1.0807  0.7014 -0.2120
   7123SM  C16S 9290   6.353   8.756   9.025  0.6472  0.0897  0.5303
   7123SM  H16S 9291   6.359   8.759   9.136  0.1633  3.3115  0.5571
   7123SM  H16T 9292   6.456   8.740   8.989  0.6979  0.5500  0.4691
   7123SM  C17S 9293   6.278   8.623   8.991  0.4022 -0.6655  0.2590
   7123SM  H17S 9294   6.272   8.615   8.881  1.4876 -2.8550  0.2959
   7123SM  H17T 9295   6.177   8.640   9.034  1.4102  1.1836  2.0462
   7123SM  C18S 9296   6.334   8.495   9.049 -0.6369 -0.2477  0.5957
   7123SM  H18S 9297   6.345   8.519   9.157 -0.9890  1.7125  0.2354
   7123SM  H18T 9298   6.435   8.469   9.011 -0.3641 -0.5263  1.5037
   7123SM  H18U 9299   6.264   8.410   9.041 -1.1595  0.2202  0.0121
   7123SM   C1F 9300   5.284   8.743   9.364  0.4278 -0.0382  0.0090
   7123SM    OF 9301   5.205   8.660   9.405 -0.4324 -0.5004 -0.1891
   7123SM   C2F 9302   5.425   8.711   9.340 -0.3137 -0.1094 -0.1798
   7123SM   H2F 9303   5.454   8.610   9.376 -1.4431 -1.4018 -2.5938
   7123SM   H2G 9304   5.486   8.780   9.402  0.5514 -1.1239  0.1214
   7123SM   C3F 9305   5.458   8.706   9.186 -0.3463 -0.6388  0.0068
   7123SM   H3F 9306   5.555   8.653   9.180  0.7893  0.9015  2.6817
   7123SM   H3G 9307   5.482   8.806   9.143  3.3803 -1.9964 -1.4663
   7123SM   C4F 9308   5.352   8.630   9.098 -0.2096  0.8161  0.5818
   7123SM   H4F 9309   5.247   8.660   9.118 -0.4809  1.1274 -1.1527
   7123SM   H4G 9310   5.358   8.521   9.120 -2.5831  0.9162  2.0723
   7123SM   C5F 9311   5.381   8.645   8.945  0.0042  0.1624 -0.1309
   7123SM   H5F 9312   5.358   8.751   8.919  1.7508  0.7234  0.4724
   7123SM   H5G 9313   5.330   8.571   8.880  0.4201 -1.0335  0.8716
   7123SM   C6F 9314   5.530   8.625   8.907  0.8469  0.0015 -0.3006
   7123SM   H6F 9315   5.557   8.526   8.948 -0.7616  1.0618  3.8271
   7123SM   H6G 9316   5.599   8.697   8.955  0.2456 -0.1691  0.8624
   7123SM   C7F 9317   5.546   8.648   8.753  0.4310 -0.1325  0.4171
   7123SM   H7F 9318   5.653   8.672   8.736  1.2044 -1.5966  2.7574
   7123SM   H7G 9319   5.502   8.750   8.740  1.9372  0.9042  2.6346
   7123SM   C8F 9320   5.489   8.539   8.670 -0.1159 -0.0014  0.5314
   7123SM   H8F 9321   5.378   8.543   8.665 -0.1978 -2.0629  0.0144
   7123SM   H8G 9322   5.507   8.444   8.724 -0.5249  0.4436  1.4700
   7123SM   C9F 9323   5.552   8.518   8.531 -0.0690  0.5016 -0.7306
   7123SM   H9F 9324   5.662   8.519   8.550 -0.2546 -0.9574  0.5637
   7123SM   H9G 9325   5.523   8.605   8.467  1.7634  1.2399 -0.6351
   7123SM  C10F 9326   5.498   8.390   8.469 -0.2045  0.1902 -0.0904
   7123SM  H10F 9327   5.518   8.311   8.545  0.6514  1.3655  0.9353
   7123SM  H10G 9328   5.556   8.363   8.378 -0.5928 -0.1962 -0.2283
   7123SM  C11F 9329   5.347   8.399   8.440  0.4987  0.4758  0.2206
   7123SM  H11F 9330   5.316   8.497   8.397  0.8204  0.5678  0.2004
   7123SM  H11G 9331   5.281   8.380   8.527  1.0597 -0.9111  0.3565
   7123SM  C12F 9332   5.309   8.287   8.338  0.3816 -1.0647  0.1367
   7123SM  H12F 9333   5.300   8.199   8.406  1.1885 -0.4143  1.1276
   7123SM  H12G 9334   5.384   8.271   8.258  0.5523  3.6021 -0.9110
   7123SM  C13F 9335   5.174   8.312   8.287  0.7503  0.3291  0.2792
   7123SM  H13F 9336   5.093   8.332   8.360  0.6006 -1.2871  0.5985
   7123SM  H13G 9337   5.153   8.218   8.230 -0.7385  1.0655 -0.4412
   7123SM  C14F 9338   5.169   8.424   8.182 -0.0650 -0.2741 -0.2503
   7123SM  H14F 9339   5.243   8.412   8.100 -0.7196 -2.2486 -0.6205
   7123SM  H14G 9340   5.186   8.509   8.250  2.6447 -0.7251 -0.2629
   7123SM  C15F 9341   5.044   8.448   8.102 -0.0514  0.6222 -0.5424
   7123SM  H15F 9342   4.959   8.467   8.170 -0.4164 -0.4663 -0.6790
   7123SM  H15G 9343   5.019   8.360   8.039  0.5695  0.7588 -0.9860
   7123SM  C16F 9344   5.048   8.562   8.004  0.1534  0.1780  0.1871
   7123SM  H16F 9345   5.139   8.552   7.942  0.2733  2.2572 -0.0240
   7123SM  H16G 9346   5.055   8.658   8.059  0.8911  0.7345 -0.8576
   7123SM  C17F 9347   4.927   8.549   7.910 -0.3660 -0.6724  0.2218
   7123SM  H17F 9348   4.834   8.522   7.965 -0.8364 -1.9967 -1.1381
   7123SM  H17G 9349   4.938   8.456   7.850  0.5230 -0.8442  0.6429
   7123SM  C18F 9350   4.920   8.673   7.826  0.4585 -0.1255  0.4125
   7123SM  H18F 9351   5.022   8.711   7.805  0.3557  0.2097  0.5175
   7123SM  H18G 9352   4.864   8.747   7.887 -1.1517 -1.1485  0.2360
   7123SM  C19F 9353   4.838   8.665   7.695  0.0610  0.4352 -0.3429
   7123SM  H19F 9354   4.883   8.589   7.629  0.3004  1.4577 -1.3979
   7123SM  H19G 9355   4.843   8.764   7.644  0.1800 -0.3857 -1.9457
   7123SM  C20F 9356   4.694   8.633   7.706 -0.1851 -0.0209  1.2853
   7123SM  H20F 9357   4.648   8.703   7.779 -0.4420  1.6123 -0.3768
   7123SM  H20G 9358   4.684   8.530   7.745 -0.6268 -0.3088  0.4329
   7123SM  C21F 9359   4.618   8.648   7.576 -0.2502  0.0683  0.2650
   7123SM  H21F 9360   4.516   8.607   7.591 -0.1131 -0.6926 -0.7843
   7123SM  H21G 9361   4.667   8.586   7.498  1.0913 -0.3200  1.3897
   7123SM  C22F 9362   4.583   8.781   7.526  0.0240 -0.4640  0.0153
   7123SM  H22F 9363   4.676   8.827   7.486 -0.0820 -3.4302 -4.3197
   7123SM  H22G 9364   4.559   8.843   7.615  2.1680 -1.6541  1.5019
   7123SM  C23F 9365   4.471   8.798   7.420 -0.0560 -0.0008  0.1653
   7123SM  H23F 9366   4.411   8.706   7.438 -0.0719  0.0803  0.5323
   7123SM  H23G 9367   4.505   8.812   7.315 -1.7351  2.4349 -0.1349
   7123SM  H23H 9368   4.406   8.885   7.443  0.3770  0.5194 -0.5627
   7223SM     N 9369   6.612   4.367   9.991  0.2539 -0.1822 -0.0450
   7223SM   C15 9370   6.625   4.214  10.000 -0.5250 -0.3444  0.2256
   7223SM  H15A 9371   6.689   4.174   9.922 -0.6510  2.1792 -1.2733
   7223SM  H15B 9372   6.528   4.167   9.989 -0.5418 -0.4200  0.6969
   7223SM  H15C 9373   6.689   4.188  10.083  0.4449  2.4379  0.4339
   7223SM   C14 9374   6.547   4.410   9.861  0.5885 -0.3469  0.5270
   7223SM  H14A 9375   6.542   4.517   9.850  0.6450 -0.0606  2.8000
   7223SM  H14B 9376   6.446   4.374   9.848  0.8005 -0.5285 -0.7815
   7223SM  H14C 9377   6.605   4.376   9.776  1.6931 -1.1362  1.5621
   7223SM   C13 9378   6.535   4.423  10.100 -0.0163  0.0093  0.3019
   7223SM  H13A 9379   6.455   4.353  10.121  0.0539  0.0141  0.5815
   7223SM  H13B 9380   6.498   4.523  10.078 -0.6453 -0.1152  0.7709
   7223SM  H13C 9381   6.596   4.422  10.189 -0.3487 -1.5585  0.5363
   7223SM   C12 9382   6.749   4.437  10.002 -0.2903 -0.1772 -0.4621
   7223SM  H12A 9383   6.785   4.444  10.103  0.6828  2.0686 -0.9045
   7223SM  H12B 9384   6.741   4.542   9.979  3.0481  0.2032 -0.3656
   7223SM   C11 9385   6.855   4.386   9.901 -0.0998 -0.2559  0.0558
   7223SM  H11A 9386   6.879   4.281   9.926  0.1374 -0.8183 -2.2682
   7223SM  H11B 9387   6.950   4.432   9.934 -0.1448 -0.6672  0.7786
   7223SM     P 9388   6.855   4.282   9.664 -0.1469  0.0091 -0.1271
   7223SM   O13 9389   6.998   4.252   9.648 -0.5288 -0.0185 -0.6253
   7223SM   O14 9390   6.762   4.175   9.705  0.1162  0.3175 -0.1839
   7223SM   O11 9391   6.799   4.335   9.530 -0.4692 -0.3813  0.2325
   7223SM   O12 9392   6.833   4.412   9.763 -0.1354  0.0261  0.0981
   7223SM   C1S 9393   6.888   4.427   9.453  0.1245  0.2571 -0.0295
   7223SM   H1S 9394   6.994   4.395   9.452  0.4695  1.3839 -0.5521
   7223SM   H1T 9395   6.883   4.528   9.499 -0.2282  1.3230 -2.2824
   7223SM    NF 9396   6.924   4.508   9.220  0.5676  0.0822  0.2661
   7223SM   HNF 9397   6.894   4.596   9.186  0.1374  0.3069  1.2051
   7223SM   C2S 9398   6.832   4.442   9.305 -0.1551 -0.4714 -0.5732
   7223SM   H2S 9399   6.807   4.341   9.265  0.4769 -1.5902  1.7092
   7223SM   C3S 9400   6.693   4.510   9.308  0.8062  0.1193  0.0829
   7223SM   H3S 9401   6.715   4.617   9.330  0.3004 -0.0334  1.4192
   7223SM    O3 9402   6.607   4.470   9.420  0.1193  0.5514  0.4247
   7223SM   HO3 9403   6.662   4.427   9.486  1.4216 -1.2381 -1.6527
   7223SM   C4S 9404   6.621   4.511   9.171 -0.5781  0.2232 -0.6892
   7223SM   H4S 9405   6.586   4.411   9.142 -0.4866 -0.2104  0.6041
   7223SM   C5S 9406   6.566   4.620   9.111 -0.2663 -0.4892  0.2049
   7223SM   H5S 9407   6.564   4.718   9.161 -1.0878  0.1575 -1.0288
   7223SM   C6S 9408   6.478   4.626   8.995  0.3443  0.2077  0.3763
   7223SM   H6S 9409   6.524   4.697   8.923  1.6100  1.9037  2.7479
   7223SM   H6T 9410   6.383   4.678   9.023  0.0177  0.1581 -0.6082
   7223SM   C7S 9411   6.447   4.506   8.903 -0.0704 -0.0674 -0.3428
   7223SM   H7S 9412   6.411   4.424   8.968  0.1392  0.3728  0.3431
   7223SM   H7T 9413   6.540   4.471   8.853 -0.6973  3.3903 -4.5045
   7223SM   C8S 9414   6.336   4.536   8.800 -0.5689 -0.3999 -0.3070
   7223SM   H8S 9415   6.244   4.560   8.858 -0.4991 -0.0977 -0.3188
   7223SM   H8T 9416   6.325   4.440   8.746  0.3995  0.3296 -1.8866
   7223SM   C9S 9417   6.380   4.647   8.701  0.5500  0.0049  0.4149
   7223SM   H9S 9418   6.451   4.607   8.626  0.3852  2.8470 -1.3920
   7223SM   H9T 9419   6.419   4.728   8.765 -0.4479 -1.4606  3.0350
   7223SM  C10S 9420   6.253   4.698   8.625  0.2443 -0.7672 -0.5332
   7223SM  H10S 9421   6.273   4.785   8.559  1.7719 -2.5482 -2.5898
   7223SM  H10T 9422   6.174   4.721   8.699  0.4320  0.1595 -0.6164
   7223SM  C11S 9423   6.205   4.583   8.524 -0.1686  0.6964  0.2253
   7223SM  H11S 9424   6.199   4.490   8.584  0.4782  0.8085  0.4736
   7223SM  H11T 9425   6.287   4.555   8.455 -1.3337 -1.8304 -0.2370
   7223SM  C12S 9426   6.092   4.619   8.422  0.2073  0.0065  0.0643
   7223SM  H12S 9427   6.104   4.719   8.375 -0.7642 -0.9903 -2.4493
   7223SM  H12T 9428   6.002   4.630   8.486 -1.3350  0.1227 -2.0266
   7223SM  C13S 9429   6.060   4.513   8.316  0.3637 -0.0198  0.7875
   7223SM  H13S 9430   5.964   4.531   8.263 -0.2546 -3.9870  0.2742
   7223SM  H13T 9431   6.046   4.418   8.373 -0.5827 -0.3963 -0.0440
   7223SM  C14S 9432   6.168   4.499   8.204 -0.6286 -0.2333 -0.2039
   7223SM  H14S 9433   6.153   4.417   8.131 -1.4667 -1.2591  1.0519
   7223SM  H14T 9434   6.261   4.467   8.256 -1.0859  0.0299  0.8003
   7223SM  C15S 9435   6.217   4.632   8.132  0.4926 -0.3505 -0.4630
   7223SM  H15S 9436   6.290   4.686   8.195  1.4074 -2.2344  0.1434
   7223SM  H15T 9437   6.133   4.702   8.111  0.7988  0.6267  1.4361
   7223SM  C16S 9438   6.273   4.591   7.999  0.7317 -0.3288 -0.3119
   7223SM  H16S 9439   6.202   4.515   7.960 -1.9608  0.9532  1.7955
   7223SM  H16T 9440   6.365   4.529   8.002 -0.1481 -1.6320  1.6749
   7223SM  C17S 9441   6.281   4.707   7.908 -0.2840 -0.2622 -0.3948
   7223SM  H17S 9442   6.365   4.772   7.940 -0.4470 -1.5025  2.9551
   7223SM  H17T 9443   6.188   4.767   7.908  0.4214  0.8950 -1.5948
   7223SM  C18S 9444   6.303   4.672   7.757 -0.1665  0.1980  0.3433
   7223SM  H18S 9445   6.271   4.757   7.693  0.2526  0.5062  0.5368
   7223SM  H18T 9446   6.247   4.581   7.728 -0.8747  1.1492 -1.4734
   7223SM  H18U 9447   6.412   4.658   7.742 -0.2822  0.1971 -0.5804
   7223SM   C1F 9448   7.047   4.471   9.191 -0.2576 -0.0171  0.2403
   7223SM    OF 9449   7.081   4.359   9.229 -0.0119 -0.4097 -0.1000
   7223SM   C2F 9450   7.139   4.572   9.122  0.3838 -0.0040 -0.8559
   7223SM   H2F 9451   7.180   4.625   9.211 -0.1100 -0.4136 -0.3757
   7223SM   H2G 9452   7.074   4.629   9.051 -0.0996  0.3010 -0.1837
   7223SM   C3F 9453   7.246   4.512   9.038  0.3629  0.5541 -0.4588
   7223SM   H3F 9454   7.301   4.449   9.111  0.1239  1.3862  0.4453
   7223SM   H3G 9455   7.316   4.587   8.995  0.1029  0.2878 -1.3891
   7223SM   C4F 9456   7.196   4.426   8.919 -0.5342 -0.5309 -0.5639
   7223SM   H4F 9457   7.087   4.415   8.938 -0.3509 -2.9937 -0.6044
   7223SM   H4G 9458   7.244   4.326   8.920  1.8508  0.5027 -1.8215
   7223SM   C5F 9459   7.234   4.484   8.789  0.3296  0.3622  0.4045
   7223SM   H5F 9460   7.345   4.494   8.792  0.5321 -1.6886  1.0710
   7223SM   H5G 9461   7.180   4.581   8.781 -1.3012 -0.5259  0.1563
   7223SM   C6F 9462   7.195   4.409   8.663 -0.4722  0.4317  0.3727
   7223SM   H6F 9463   7.100   4.359   8.692 -0.8044 -0.1413 -1.5373
   7223SM   H6G 9464   7.267   4.329   8.635 -0.3983  1.1939 -1.8235
   7223SM   C7F 9465   7.175   4.501   8.546 -0.0453 -0.3327  0.2962
   7223SM   H7F 9466   7.093   4.574   8.562  2.2627  2.5746 -0.1498
   7223SM   H7G 9467   7.148   4.446   8.453 -1.4524 -0.9239  1.0389
   7223SM   C8F 9468   7.299   4.592   8.525  0.7428  0.2203 -0.0145
   7223SM   H8F 9469   7.387   4.528   8.505 -0.0484 -0.5802 -1.1218
   7223SM   H8G 9470   7.313   4.649   8.619  2.6842  2.5582 -1.6120
   7223SM   C9F 9471   7.275   4.707   8.415 -0.3026  0.8666 -0.2072
   7223SM   H9F 9472   7.179   4.757   8.440  1.7663  3.3196  3.8134
   7223SM   H9G 9473   7.264   4.660   8.315  0.0676 -1.4650  0.7768
   7223SM  C10F 9474   7.397   4.805   8.424  0.0458  0.1809 -0.1011
   7223SM  H10F 9475   7.494   4.752   8.436  0.5440  0.9021 -0.8251
   7223SM  H10G 9476   7.384   4.866   8.515 -0.1053  0.6320 -0.4183
   7223SM  C11F 9477   7.415   4.904   8.303  0.2199  0.1970  0.6709
   7223SM  H11F 9478   7.330   4.972   8.285  0.7292  0.9388  0.9868
   7223SM  H11G 9479   7.430   4.844   8.211  1.1353  1.0862  0.2189
   7223SM  C12F 9480   7.542   4.993   8.330  0.1998 -0.5067  0.1210
   7223SM  H12F 9481   7.528   5.047   8.425  2.7108  2.8129 -1.2236
   7223SM  H12G 9482   7.542   5.073   8.253 -0.2076 -0.8904 -0.2867
   7223SM  C13F 9483   7.676   4.921   8.352 -0.0433  0.1140  0.0646
   7223SM  H13F 9484   7.670   4.842   8.430  0.5044 -2.0689 -2.0053
   7223SM  H13G 9485   7.740   5.004   8.389 -1.4157  0.1605  2.5615
   7223SM  C14F 9486   7.742   4.857   8.234  0.0884 -0.3340 -0.2084
   7223SM  H14F 9487   7.737   4.924   8.145 -1.1881 -2.2879 -1.7129
   7223SM  H14G 9488   7.692   4.765   8.195  0.2132 -2.1232  3.4397
   7223SM  C15F 9489   7.885   4.825   8.256  0.0722 -0.4496 -0.4694
   7223SM  H15F 9490   7.945   4.912   8.290  0.4884 -1.1114  0.5314
   7223SM  H15G 9491   7.932   4.776   8.167  0.3536  0.6109 -0.9191
   7223SM  C16F 9492   7.911   4.720   8.364  0.5370  0.0786  0.0442
   7223SM  H16F 9493   7.871   4.620   8.338 -0.3043  0.3035  0.4603
   7223SM  H16G 9494   7.864   4.739   8.463 -2.1682 -0.7274 -0.9873
   7223SM  C17F 9495   8.062   4.703   8.385  0.0247 -0.1796  0.2423
   7223SM  H17F 9496   8.110   4.802   8.399  0.5418 -0.3544 -0.2671
   7223SM  H17G 9497   8.117   4.659   8.299  0.3082  1.5396 -0.4829
   7223SM  C18F 9498   8.093   4.619   8.510  0.4916  0.4665  0.2764
   7223SM  H18F 9499   8.057   4.517   8.489 -1.5843  1.2647 -0.2934
   7223SM  H18G 9500   8.049   4.654   8.606  0.2498 -0.8278  0.6549
   7223SM  C19F 9501   8.243   4.592   8.517 -1.0895  0.1280 -0.3317
   7223SM  H19F 9502   8.305   4.682   8.494 -0.1409 -0.0845  1.2343
   7223SM  H19G 9503   8.262   4.523   8.433 -2.3895 -0.8802  0.1720
   7223SM  C20F 9504   8.305   4.538   8.652 -0.3313  0.2448  0.5038
   7223SM  H20F 9505   8.240   4.471   8.712 -0.9477 -2.5459 -2.9598
   7223SM  H20G 9506   8.324   4.630   8.712 -2.1504  0.1262  1.3510
   7223SM  C21F 9507   8.440   4.461   8.619  0.4498 -0.6713 -1.0453
   7223SM  H21F 9508   8.507   4.533   8.567 -1.7099  1.5146 -0.9768
   7223SM  H21G 9509   8.415   4.374   8.554  0.2432 -0.6902 -0.9431
   7223SM  C22F 9510   8.507   4.420   8.751 -0.3084 -0.5936  0.0423
   7223SM  H22F 9511   8.433   4.360   8.808 -1.2599 -1.1887 -1.7364
   7223SM  H22G 9512   8.522   4.504   8.822  2.3027  0.2954 -1.4395
   7223SM  C23F 9513   8.637   4.352   8.719 -0.3346 -0.0111 -0.0978
   7223SM  H23F 9514   8.689   4.320   8.811 -1.1332 -0.4734  0.2029
   7223SM  H23G 9515   8.700   4.407   8.646  0.5786 -0.7660  0.0943
   7223SM  H23H 9516   8.607   4.260   8.664 -0.8568  0.4177 -0.5437
   7323SM     N 9517   5.268   1.059   9.271  0.3910 -0.3787  0.2776
   7323SM   C15 9518   5.164   0.960   9.337  0.5065  0.1428  0.1364
   7323SM  H15A 9519   5.219   0.896   9.404  2.3811 -0.4684 -1.8771
   7323SM  H15B 9520   5.108   0.907   9.262  0.6745  0.4968 -0.2458
   7323SM  H15C 9521   5.083   1.005   9.393  0.0600  0.0192 -0.4029
   7323SM   C14 9522   5.393   0.985   9.222 -0.4644  0.0323  0.0819
   7323SM  H14A 9523   5.450   0.949   9.307  0.4779  0.2946 -0.4232
   7323SM  H14B 9524   5.465   1.053   9.180  0.1965  1.7162  3.5798
   7323SM  H14C 9525   5.392   0.897   9.159  4.1509  0.9633 -1.6442
   7323SM   C13 9526   5.203   1.126   9.153 -0.4617  0.2083  0.0433
   7323SM  H13A 9527   5.277   1.169   9.087  0.2820 -0.7301  0.2491
   7323SM  H13B 9528   5.140   1.207   9.189 -0.4843 -0.6018  1.9366
   7323SM  H13C 9529   5.142   1.055   9.099 -0.1394  0.5894 -0.8362
   7323SM   C12 9530   5.310   1.160   9.370 -0.2034  0.0680  0.4538
   7323SM  H12A 9531   5.236   1.237   9.383  1.1744  1.0890  2.7023
   7323SM  H12B 9532   5.396   1.215   9.334 -0.1561  1.2309  2.2413
   7323SM   C11 9533   5.353   1.105   9.512 -0.9753 -0.3776  0.2864
   7323SM  H11A 9534   5.268   1.051   9.557  0.0083 -2.0463  0.2380
   7323SM  H11B 9535   5.374   1.189   9.582  0.0373 -0.4686  0.1124
   7323SM     P 9536   5.613   1.064   9.541 -0.1847  0.0158  0.2135
   7323SM   O13 9537   5.600   1.145   9.661 -0.6239  0.5910 -0.1087
   7323SM   O14 9538   5.693   0.941   9.549 -0.6177  0.3769 -0.2563
   7323SM   O11 9539   5.667   1.152   9.426 -0.9507 -0.0178  0.1287
   7323SM   O12 9540   5.469   1.022   9.505 -0.0535  0.5068  0.1847
   7323SM   C1S 9541   5.758   1.098   9.325  0.0603  0.1050 -0.8672
   7323SM   H1S 9542   5.715   1.013   9.268  1.0147  0.7085 -2.5700
   7323SM   H1T 9543   5.858   1.076   9.369 -0.6120 -0.7113  0.3112
   7323SM    NF 9544   5.840   1.154   9.096 -1.1283  0.1693 -0.5756
   7323SM   HNF 9545   5.938   1.160   9.077 -1.3394  1.2115 -1.4299
   7323SM   C2S 9546   5.795   1.210   9.228  0.6416 -0.8069 -0.1125
   7323SM   H2S 9547   5.706   1.271   9.202 -0.6121 -2.1892  0.7523
   7323SM   C3S 9548   5.887   1.323   9.297  0.5826  0.3180 -0.1949
   7323SM   H3S 9549   5.978   1.270   9.330 -1.3645 -1.6566  2.5267
   7323SM    O3 9550   5.835   1.385   9.414 -0.4292  0.2154  0.2171
   7323SM   HO3 9551   5.749   1.345   9.433  0.8745 -1.7276  2.7668
   7323SM   C4S 9552   5.922   1.428   9.203 -0.1064 -0.0110  0.2430
   7323SM   H4S 9553   5.839   1.484   9.159 -0.8879 -0.2042  1.4274
   7323SM   C5S 9554   6.043   1.434   9.149 -0.8995 -0.0566 -0.0161
   7323SM   H5S 9555   6.124   1.368   9.184  1.3553  1.1643 -2.5548
   7323SM   C6S 9556   6.088   1.521   9.037  0.6542 -1.3334  0.1199
   7323SM   H6S 9557   6.186   1.568   9.062 -0.2189  1.0286 -0.6657
   7323SM   H6T 9558   6.004   1.588   9.011 -0.4403 -2.2407  1.2111
   7323SM   C7S 9559   6.105   1.437   8.904 -0.0608 -0.9375 -0.1607
   7323SM   H7S 9560   6.176   1.353   8.919  1.5100  0.2625 -0.6064
   7323SM   H7T 9561   6.160   1.513   8.845  1.9448 -0.8152  1.7502
   7323SM   C8S 9562   5.980   1.401   8.821  0.1789 -0.1937 -0.2955
   7323SM   H8S 9563   5.920   1.492   8.797 -0.4257 -0.5091 -0.0123
   7323SM   H8T 9564   5.914   1.342   8.889  0.7628  0.6940  1.0994
   7323SM   C9S 9565   5.997   1.327   8.690  0.1000 -0.2463 -0.0008
   7323SM   H9S 9566   5.898   1.311   8.641 -0.6729  3.1808  0.1912
   7323SM   H9T 9567   6.037   1.225   8.706  2.2802  0.8533  2.1607
   7323SM  C10S 9568   6.074   1.415   8.587 -0.0339 -0.2692 -0.5261
   7323SM  H10S 9569   6.176   1.440   8.623 -0.0643  0.0485 -0.6593
   7323SM  H10T 9570   6.012   1.506   8.580  1.7819  1.1390  0.9519
   7323SM  C11S 9571   6.095   1.357   8.448  0.1905  0.4337 -0.0816
   7323SM  H11S 9572   6.001   1.300   8.430 -1.3675  2.0073  2.5286
   7323SM  H11T 9573   6.181   1.287   8.451 -0.0096  0.2058  2.2811
   7323SM  C12S 9574   6.114   1.461   8.329  0.9588  0.7419 -0.3746
   7323SM  H12S 9575   6.201   1.529   8.343  1.4783  0.0836 -0.3953
   7323SM  H12T 9576   6.017   1.516   8.329  0.8656  0.6644  1.8574
   7323SM  C13S 9577   6.118   1.399   8.192  0.1569 -0.3927 -0.1273
   7323SM  H13S 9578   6.016   1.372   8.157  1.2152 -1.7845 -2.3438
   7323SM  H13T 9579   6.190   1.315   8.194  0.4238 -0.1577  0.8099
   7323SM  C14S 9580   6.174   1.504   8.095 -0.1793 -1.2545 -0.7092
   7323SM  H14S 9581   6.282   1.530   8.105 -0.2634 -0.2966 -2.0848
   7323SM  H14T 9582   6.108   1.593   8.093 -0.6345 -1.5970 -2.3569
   7323SM  C15S 9583   6.162   1.453   7.954 -0.3494  0.7928 -0.0461
   7323SM  H15S 9584   6.056   1.444   7.923  0.2981  0.0662 -2.2305
   7323SM  H15T 9585   6.214   1.356   7.938  0.9010  1.4763 -0.2882
   7323SM  C16S 9586   6.210   1.546   7.842  0.2049  0.7968 -0.4000
   7323SM  H16S 9587   6.318   1.560   7.863  0.5151 -0.2605 -1.1469
   7323SM  H16T 9588   6.160   1.644   7.848  0.3339  1.0332 -2.3284
   7323SM  C17S 9589   6.210   1.470   7.705 -0.2819  0.3859 -0.0335
   7323SM  H17S 9590   6.129   1.394   7.698 -0.0891  0.2366 -0.7157
   7323SM  H17T 9591   6.308   1.419   7.702 -0.7351 -0.5547  0.5392
   7323SM  C18S 9592   6.214   1.549   7.585 -0.5118 -0.0711 -0.4734
   7323SM  H18S 9593   6.299   1.618   7.606  1.9826 -3.3040  0.9657
   7323SM  H18T 9594   6.119   1.605   7.572 -0.6312  1.4424  4.7128
   7323SM  H18U 9595   6.233   1.482   7.498  0.6725 -0.3558 -0.0198
   7323SM   C1F 9596   5.766   1.075   9.018 -0.5577 -0.3170  0.1313
   7323SM    OF 9597   5.648   1.072   9.030 -0.5774 -0.6565 -0.1063
   7323SM   C2F 9598   5.835   0.991   8.911  0.2870  0.1520 -0.1071
   7323SM   H2F 9599   5.843   0.889   8.954  0.9154  0.0829 -0.3698
   7323SM   H2G 9600   5.938   1.028   8.891  0.9455 -1.0721  0.9322
   7323SM   C3F 9601   5.749   0.998   8.780 -0.5154  0.7662  0.0971
   7323SM   H3F 9602   5.718   1.104   8.761 -3.4359 -0.3270 -2.0414
   7323SM   H3G 9603   5.659   0.938   8.805  0.3302 -1.4788 -1.8853
   7323SM   C4F 9604   5.816   0.936   8.659 -0.6558 -0.1033  0.4805
   7323SM   H4F 9605   5.861   0.847   8.707 -0.9879  0.0408  1.0828
   7323SM   H4G 9606   5.892   1.002   8.614 -0.7298  0.6731  1.4575
   7323SM   C5F 9607   5.726   0.906   8.547  0.3462  0.1301  0.8584
   7323SM   H5F 9608   5.688   0.996   8.494  0.6290  0.1984  0.7668
   7323SM   H5G 9609   5.636   0.851   8.582  1.2370 -3.2286 -1.5451
   7323SM   C6F 9610   5.775   0.811   8.435  0.2280 -0.2777  0.1155
   7323SM   H6F 9611   5.688   0.785   8.372  0.0510 -1.4764  0.8257
   7323SM   H6G 9612   5.826   0.720   8.474 -0.8030 -0.8899  0.0465
   7323SM   C7F 9613   5.869   0.887   8.354  0.3090  0.2336 -0.1685
   7323SM   H7F 9614   5.968   0.892   8.406 -0.3674  0.7523  1.1226
   7323SM   H7G 9615   5.840   0.993   8.336 -2.3755 -0.6408 -1.5094
   7323SM   C8F 9616   5.904   0.820   8.218 -0.0997  0.3656 -0.2124
   7323SM   H8F 9617   5.813   0.807   8.156  0.5767 -0.8909 -1.0023
   7323SM   H8G 9618   5.948   0.718   8.230  0.7258  0.8120  0.6565
   7323SM   C9F 9619   6.009   0.900   8.124  0.2319 -0.1928  0.2011
   7323SM   H9F 9620   6.026   0.842   8.031 -0.9266  0.0394 -0.1672
   7323SM   H9G 9621   6.107   0.908   8.175 -0.2207  2.8672  0.7731
   7323SM  C10F 9622   5.955   1.043   8.094  0.3248 -0.2467  0.5966
   7323SM  H10F 9623   5.968   1.105   8.186  2.2995  0.3052 -0.0022
   7323SM  H10G 9624   5.847   1.049   8.067  0.7130  2.7799 -0.6706
   7323SM  C11F 9625   6.015   1.122   7.968 -0.1642  0.6977 -0.1271
   7323SM  H11F 9626   6.111   1.170   7.998 -0.8354  1.0054  1.6558
   7323SM  H11G 9627   5.953   1.212   7.952  1.3908  1.6551 -1.0642
   7323SM  C12F 9628   6.035   1.048   7.831 -0.1126  0.5235 -0.2920
   7323SM  H12F 9629   6.017   1.125   7.754 -0.1173 -0.0588 -0.8804
   7323SM  H12G 9630   5.967   0.961   7.819 -1.4984  1.2535  1.7450
   7323SM  C13F 9631   6.175   0.996   7.811 -0.7441 -0.0476  0.5766
   7323SM  H13F 9632   6.204   0.928   7.894  2.3913 -0.5242 -0.7637
   7323SM  H13G 9633   6.256   1.072   7.809  0.5187 -1.3640 -1.2947
   7323SM  C14F 9634   6.179   0.930   7.680 -0.8263  0.6308 -0.4344
   7323SM  H14F 9635   6.122   0.988   7.605  0.7834  1.4247 -1.0831
   7323SM  H14G 9636   6.126   0.833   7.670 -2.5144  1.6022 -1.2411
   7323SM  C15F 9637   6.328   0.908   7.630 -0.2191 -0.8449  0.1398
   7323SM  H15F 9638   6.392   0.876   7.714  1.7370  2.2873  0.0140
   7323SM  H15G 9639   6.373   1.004   7.595 -2.2930  0.2574  0.3332
   7323SM  C16F 9640   6.329   0.806   7.523  0.2671  0.7016  0.3637
   7323SM  H16F 9641   6.271   0.831   7.432  3.0559 -3.0023 -2.7410
   7323SM  H16G 9642   6.283   0.715   7.568  0.1199  1.0411  0.9124
   7323SM  C17F 9643   6.468   0.770   7.475 -0.0274 -0.3626  0.0089
   7323SM  H17F 9644   6.500   0.856   7.412 -2.5568 -0.7975 -2.0661
   7323SM  H17G 9645   6.470   0.685   7.404 -0.3767  0.2917 -0.8071
   7323SM  C18F 9646   6.574   0.738   7.579 -0.3557 -0.3570  0.4394
   7323SM  H18F 9647   6.600   0.825   7.643 -0.5571 -0.1677  0.2658
   7323SM  H18G 9648   6.667   0.720   7.523  0.5301 -0.1250  1.7874
   7323SM  C19F 9649   6.536   0.621   7.666 -0.1497 -0.8376 -0.1729
   7323SM  H19F 9650   6.495   0.536   7.607  0.3536 -0.0728 -1.6641
   7323SM  H19G 9651   6.453   0.645   7.737  1.3462  0.7085  1.1242
   7323SM  C20F 9652   6.652   0.565   7.745 -0.1181 -0.0520 -0.6568
   7323SM  H20F 9653   6.745   0.608   7.702 -0.4840 -0.1150 -1.5229
   7323SM  H20G 9654   6.650   0.454   7.746 -1.3199 -0.1114  2.1964
   7323SM  C21F 9655   6.657   0.607   7.890 -0.2319 -0.3460 -0.4279
   7323SM  H21F 9656   6.723   0.536   7.944 -0.0747 -0.1394 -0.3443
   7323SM  H21G 9657   6.557   0.599   7.938  0.2360 -3.1449  0.2466
   7323SM  C22F 9658   6.707   0.749   7.927  0.7269 -0.4856  0.5378
   7323SM  H22F 9659   6.623   0.815   7.895  0.7430 -1.2146 -1.0954
   7323SM  H22G 9660   6.799   0.783   7.875 -0.4677  2.1935 -0.0170
   7323SM  C23F 9661   6.726   0.768   8.071 -0.0520  0.2410  0.1526
   7323SM  H23F 9662   6.812   0.704   8.102 -0.0667 -1.2609 -2.6370
   7323SM  H23G 9663   6.642   0.736   8.136  0.2088 -1.3636 -0.2671
   7323SM  H23H 9664   6.748   0.872   8.103  1.3418 -0.3116  1.1213
   7423SM     N 9665   1.746   3.254   9.776  0.3770 -0.0258 -0.6494
   7423SM   C15 9666   1.630   3.256   9.872  0.4525  0.0589  0.0264
   7423SM  H15A 9667   1.662   3.280   9.973 -1.3493  0.3373  0.5803
   7423SM  H15B 9668   1.588   3.157   9.867 -1.9684  0.9732  0.4398
   7423SM  H15C 9669   1.555   3.328   9.844 -1.3667 -1.6674  0.2121
   7423SM   C14 9670   1.849   3.158   9.823  0.0309 -0.2015 -0.3413
   7423SM  H14A 9671   1.804   3.060   9.831 -0.9426  0.3381  1.5100
   7423SM  H14B 9672   1.888   3.186   9.920 -1.0757 -1.8748  0.6448
   7423SM  H14C 9673   1.936   3.164   9.760  0.1661  1.1272 -0.0601
   7423SM   C13 9674   1.694   3.213   9.647 -0.4341  0.0179 -0.1103
   7423SM  H13A 9675   1.773   3.215   9.573  0.8552 -2.7904  1.0559
   7423SM  H13B 9676   1.605   3.266   9.615 -0.5655 -0.4729 -0.5840
   7423SM  H13C 9677   1.665   3.109   9.647  2.0720 -0.7370  1.2377
   7423SM   C12 9678   1.803   3.395   9.777  0.7082 -0.0257  0.2185
   7423SM  H12A 9679   1.843   3.412   9.875  2.0002 -0.0723 -0.2830
   7423SM  H12B 9680   1.721   3.466   9.774  0.3306 -0.0422  4.3530
   7423SM   C11 9681   1.918   3.431   9.677  0.1462 -0.2506  0.3882
   7423SM  H11A 9682   1.932   3.541   9.678  1.8490 -0.3743 -2.0550
   7423SM  H11B 9683   1.900   3.397   9.573  2.4708 -2.7521  0.6932
   7423SM     P 9684   2.166   3.454   9.753 -0.1910 -0.2056 -0.4432
   7423SM   O13 9685   2.134   3.543   9.864 -0.1261 -0.5742 -0.6354
   7423SM   O14 9686   2.290   3.371   9.766  0.4916  0.2171 -0.0237
   7423SM   O11 9687   2.193   3.537   9.627  0.2436 -0.3303 -0.0294
   7423SM   O12 9688   2.042   3.365   9.718  0.2363 -0.0776 -0.5987
   7423SM   C1S 9689   2.264   3.489   9.516 -0.5234 -0.0088 -0.4405
   7423SM   H1S 9690   2.305   3.386   9.530  1.2340  0.6134 -0.7841
   7423SM   H1T 9691   2.350   3.556   9.496 -2.1994  2.3254 -0.2308
   7423SM    NF 9692   2.258   3.412   9.289 -0.2538  0.0925 -0.7015
   7423SM   HNF 9693   2.311   3.462   9.221 -0.9438  1.6398 -0.1311
   7423SM   C2S 9694   2.183   3.486   9.387  0.0124 -0.2134  0.2429
   7423SM   H2S 9695   2.088   3.432   9.406 -0.5572  0.4825 -0.5117
   7423SM   C3S 9696   2.138   3.629   9.347  0.0485 -0.2491 -0.8632
   7423SM   H3S 9697   2.238   3.675   9.328  0.2966  0.1508  1.1701
   7423SM    O3 9698   2.082   3.712   9.450 -0.6879 -0.0838 -0.1875
   7423SM   HO3 9699   2.098   3.650   9.522 -0.1076  0.2004 -0.0665
   7423SM   C4S 9700   2.064   3.624   9.219  0.0631 -0.0529  0.3476
   7423SM   H4S 9701   2.121   3.621   9.125 -1.0302 -2.9722 -0.3217
   7423SM   C5S 9702   1.928   3.624   9.209 -0.5052  0.6481  0.5893
   7423SM   H5S 9703   1.873   3.611   9.304 -0.1950  0.1286  0.7045
   7423SM   C6S 9704   1.844   3.612   9.084 -0.2570 -0.0567  1.2155
   7423SM   H6S 9705   1.760   3.683   9.096 -0.2623  0.4486 -1.3671
   7423SM   H6T 9706   1.808   3.507   9.073  1.1780 -0.6396  1.7691
   7423SM   C7S 9707   1.921   3.647   8.954  0.6912 -0.4127  0.8817
   7423SM   H7S 9708   1.995   3.568   8.931 -0.0095 -0.4123 -1.7228
   7423SM   H7T 9709   1.981   3.740   8.966 -1.1312  0.7635  1.3990
   7423SM   C8S 9710   1.825   3.656   8.830  0.4147  0.0411  0.3955
   7423SM   H8S 9711   1.767   3.561   8.820  1.9197 -0.8370 -0.3946
   7423SM   H8T 9712   1.892   3.665   8.742  0.6423  0.8247  0.6420
   7423SM   C9S 9713   1.738   3.790   8.831  0.2292 -0.4153  0.3470
   7423SM   H9S 9714   1.814   3.869   8.812  0.3463 -0.8901 -1.2999
   7423SM   H9T 9715   1.700   3.808   8.933  0.2340 -1.3339  0.5235
   7423SM  C10S 9716   1.629   3.794   8.731  0.1655 -0.5514  0.2297
   7423SM  H10S 9717   1.554   3.875   8.734 -0.3778 -1.0585  2.0050
   7423SM  H10T 9718   1.572   3.698   8.737  0.0053 -0.4953 -0.4067
   7423SM  C11S 9719   1.685   3.806   8.595 -0.3668  0.0305  0.9633
   7423SM  H11S 9720   1.787   3.763   8.591 -0.2240  0.3098  1.4460
   7423SM  H11T 9721   1.695   3.911   8.560  2.6348 -0.8322 -1.1191
   7423SM  C12S 9722   1.600   3.747   8.482 -0.1487  0.3079  0.1336
   7423SM  H12S 9723   1.501   3.797   8.474 -0.1299  0.1850 -1.0481
   7423SM  H12T 9724   1.587   3.637   8.492 -1.7209  0.3323 -1.2189
   7423SM  C13S 9725   1.674   3.751   8.343 -0.3615  0.1810 -0.1044
   7423SM  H13S 9726   1.607   3.694   8.275 -1.2054  1.1432 -0.1059
   7423SM  H13T 9727   1.775   3.707   8.358  0.9331  2.4700 -1.4235
   7423SM  C14S 9728   1.694   3.887   8.290  0.1457 -0.0852  0.2463
   7423SM  H14S 9729   1.766   3.947   8.348  0.5204 -0.4780  0.1887
   7423SM  H14T 9730   1.592   3.929   8.302  0.2004  0.0978  0.0773
   7423SM  C15S 9731   1.730   3.884   8.140  0.5365 -0.5335 -0.1795
   7423SM  H15S 9732   1.729   3.988   8.101  3.1212 -0.5873 -0.5860
   7423SM  H15T 9733   1.669   3.816   8.077  1.3290 -0.6760 -0.8195
   7423SM  C16S 9734   1.871   3.826   8.120  0.1457 -0.4447  0.4187
   7423SM  H16S 9735   1.896   3.826   8.012 -2.6298  1.1496 -0.3316
   7423SM  H16T 9736   1.883   3.723   8.161 -2.0466 -1.6132 -1.5648
   7423SM  C17S 9737   1.978   3.919   8.177 -0.2769 -0.4790  0.4435
   7423SM  H17S 9738   1.985   3.908   8.287 -0.9139  1.0821  0.6572
   7423SM  H17T 9739   1.947   4.022   8.151  0.4587 -0.4667 -0.4623
   7423SM  C18S 9740   2.117   3.884   8.123 -0.2516  0.2532 -0.3221
   7423SM  H18S 9741   2.143   3.784   8.164  3.1746  1.2551  0.3106
   7423SM  H18T 9742   2.180   3.966   8.165 -2.3721  1.6051  0.3535
   7423SM  H18U 9743   2.129   3.889   8.012 -0.3423  0.2609 -0.3310
   7423SM   C1F 9744   2.285   3.280   9.294  0.4323  0.7724 -0.7448
   7423SM    OF 9745   2.217   3.205   9.359  0.3813  0.4401 -0.4649
   7423SM   C2F 9746   2.379   3.223   9.199 -0.7746 -0.3050  0.2490
   7423SM   H2F 9747   2.425   3.129   9.238 -2.3949 -1.9935 -1.6783
   7423SM   H2G 9748   2.457   3.294   9.166 -1.0907  0.8681  1.8964
   7423SM   C3F 9749   2.307   3.179   9.072  0.0627 -0.4303  0.0253
   7423SM   H3F 9750   2.255   3.270   9.034 -0.9679 -1.1486 -0.3347
   7423SM   H3G 9751   2.232   3.098   9.089 -0.4733 -0.9834 -4.0023
   7423SM   C4F 9752   2.407   3.125   8.974 -0.2097 -0.0259  0.2364
   7423SM   H4F 9753   2.464   3.043   9.022 -2.2755 -0.3284  2.3185
   7423SM   H4G 9754   2.483   3.188   8.922 -0.4405 -0.7703 -1.0477
   7423SM   C5F 9755   2.334   3.060   8.854 -0.0282  0.6484  0.0335
   7423SM   H5F 9756   2.277   3.146   8.812 -2.5056 -0.1951  1.4793
   7423SM   H5G 9757   2.263   2.979   8.881 -0.0635  0.3502 -0.9040
   7423SM   C6F 9758   2.436   2.999   8.749  0.0498 -0.3671 -0.8193
   7423SM   H6F 9759   2.489   2.929   8.817 -0.6265  1.5471  1.8563
   7423SM   H6G 9760   2.504   3.080   8.713 -1.0252  0.1908 -1.6720
   7423SM   C7F 9761   2.376   2.934   8.627 -0.1361  0.8543  0.7684
   7423SM   H7F 9762   2.308   2.854   8.665 -1.2877  0.6846 -1.4641
   7423SM   H7G 9763   2.443   2.869   8.568 -3.6853 -1.8483 -0.6466
   7423SM   C8F 9764   2.307   3.038   8.540 -0.2231 -0.0330 -0.0854
   7423SM   H8F 9765   2.383   3.111   8.505  1.4034 -2.3384 -1.6343
   7423SM   H8G 9766   2.227   3.097   8.589 -1.4632 -1.2242 -0.6342
   7423SM   C9F 9767   2.241   2.973   8.414  0.8343  0.4124 -0.9218
   7423SM   H9F 9768   2.138   2.953   8.451  2.4571 -2.4262  2.7979
   7423SM   H9G 9769   2.295   2.881   8.382  2.2929  0.2418  1.7024
   7423SM  C10F 9770   2.220   3.079   8.306  0.1720  0.1677  0.4485
   7423SM  H10F 9771   2.315   3.134   8.286  0.3745  0.1125  1.2218
   7423SM  H10G 9772   2.147   3.157   8.337 -2.6953 -2.3421  0.4565
   7423SM  C11F 9773   2.173   3.016   8.170  0.4301  0.1064 -0.2178
   7423SM  H11F 9774   2.108   3.095   8.127  0.6376  0.3303 -0.1219
   7423SM  H11G 9775   2.108   2.930   8.197  0.6964 -0.5079 -1.4333
   7423SM  C12F 9776   2.283   2.980   8.078  0.3379  0.1725 -0.0575
   7423SM  H12F 9777   2.251   2.928   7.985  1.1850  1.3870 -1.0751
   7423SM  H12G 9778   2.356   2.917   8.133  1.9305  1.4625 -0.6071
   7423SM  C13F 9779   2.381   3.094   8.035 -1.0423  0.0544  0.1015
   7423SM  H13F 9780   2.427   3.124   8.131 -0.0059 -0.4419 -0.2224
   7423SM  H13G 9781   2.323   3.183   8.002 -0.8411  0.3360  0.5029
   7423SM  C14F 9782   2.487   3.038   7.944  0.3984  0.1189  0.2446
   7423SM  H14F 9783   2.478   2.929   7.926 -0.3512 -0.1427  2.0899
   7423SM  H14G 9784   2.591   3.051   7.982 -0.1179  2.7499  0.9375
   7423SM  C15F 9785   2.480   3.098   7.800 -0.8424 -0.0524  0.0313
   7423SM  H15F 9786   2.569   3.065   7.742  0.6675  1.6298  1.3108
   7423SM  H15G 9787   2.492   3.208   7.804 -0.7648 -0.0423 -0.4202
   7423SM  C16F 9788   2.345   3.082   7.722  0.0782  0.0175 -0.1032
   7423SM  H16F 9789   2.270   3.151   7.764 -0.7260 -0.5148 -0.6380
   7423SM  H16G 9790   2.305   2.979   7.734  0.7032 -0.1091  0.9988
   7423SM  C17F 9791   2.360   3.107   7.571 -0.1908  0.0362  0.3434
   7423SM  H17F 9792   2.456   3.070   7.529 -0.7134 -0.3653 -0.5353
   7423SM  H17G 9793   2.375   3.216   7.566  0.5852 -0.0116  1.3719
   7423SM  C18F 9794   2.248   3.046   7.492 -0.1805  0.0566  0.5412
   7423SM  H18F 9795   2.238   2.938   7.516 -0.1153  0.0755  0.6560
   7423SM  H18G 9796   2.271   3.044   7.384 -2.1789  1.2496  0.0544
   7423SM  C19F 9797   2.108   3.110   7.507  0.2676 -0.2956  0.0009
   7423SM  H19F 9798   2.082   3.110   7.615 -2.2910  2.2252 -0.4690
   7423SM  H19G 9799   2.028   3.055   7.451  1.8387 -0.4108 -2.2930
   7423SM  C20F 9800   2.106   3.256   7.452 -0.4294 -0.3937 -0.6777
   7423SM  H20F 9801   2.142   3.248   7.348 -0.2087 -1.2496 -0.5440
   7423SM  H20G 9802   2.186   3.313   7.505 -0.4572 -0.0677 -0.9864
   7423SM  C21F 9803   1.971   3.328   7.473  0.4620  0.4483  0.3721
   7423SM  H21F 9804   1.941   3.311   7.579  0.1935 -1.2417  0.0512
   7423SM  H21G 9805   1.893   3.265   7.425  1.9031 -0.2669 -1.1211
   7423SM  C22F 9806   1.974   3.470   7.410  0.0956 -0.1247  0.0254
   7423SM  H22F 9807   1.985   3.445   7.302 -2.7900  0.9458 -0.6189
   7423SM  H22G 9808   2.070   3.514   7.445  0.9575 -2.3807  0.6597
   7423SM  C23F 9809   1.854   3.565   7.413  0.6880  0.0156  0.1096
   7423SM  H23F 9810   1.761   3.510   7.388  0.3203  1.5462 -2.2349
   7423SM  H23G 9811   1.866   3.654   7.347 -1.2072  0.4907  0.3646
   7423SM  H23H 9812   1.836   3.594   7.519  0.4929  0.8332 -0.1430
   7523SM     N 9813   0.446   5.428   9.715 -0.2142  0.0591  0.6397
   7523SM   C15 9814   0.389   5.452   9.582 -0.4198 -0.5190  0.4744
   7523SM  H15A 9815   0.307   5.522   9.571 -0.1554 -0.3294 -0.3656
   7523SM  H15B 9816   0.364   5.354   9.544  0.0860  0.2277 -1.9233
   7523SM  H15C 9817   0.464   5.475   9.508  0.5507 -1.7006  1.0404
   7523SM   C14 9818   0.560   5.330   9.699  0.0075  0.0121  0.5803
   7523SM  H14A 9819   0.636   5.369   9.633 -1.5392 -0.7196 -1.7865
   7523SM  H14B 9820   0.536   5.235   9.653 -0.1236  0.3778 -0.1264
   7523SM  H14C 9821   0.609   5.316   9.794  0.3259 -3.6398  0.0085
   7523SM   C13 9822   0.505   5.560   9.757  0.6087  0.0081  0.2043
   7523SM  H13A 9823   0.423   5.630   9.754  0.2541 -0.3810  0.6718
   7523SM  H13B 9824   0.578   5.604   9.691  0.3422  1.8560  1.0641
   7523SM  H13C 9825   0.537   5.556   9.860  0.8948 -0.1222  0.1097
   7523SM   C12 9826   0.339   5.384   9.819  0.0616 -0.0221 -0.2074
   7523SM  H12A 9827   0.387   5.365   9.914 -0.0845 -2.2508 -0.5194
   7523SM  H12B 9828   0.295   5.292   9.785  2.8924 -1.1658 -1.0874
   7523SM   C11 9829   0.228   5.488   9.838  1.0908  0.2027 -0.2055
   7523SM  H11A 9830   0.262   5.589   9.869  0.0673  0.0832  1.3815
   7523SM  H11B 9831   0.169   5.462   9.928 -0.4608 -0.8639 -1.4759
   7523SM     P 9832   0.033   5.371   9.689  0.1567  0.3389  0.0693
   7523SM   O13 9833   0.107   5.246   9.663 -0.5578  0.0252 -0.5423
   7523SM   O14 9834  -0.077   5.368   9.788 -0.3355  0.1555  0.3004
   7523SM   O11 9835  -0.020   5.412   9.556  0.1686 -0.1911  0.2982
   7523SM   O12 9836   0.128   5.492   9.729  0.0435  0.3601  0.4370
   7523SM   C1S 9837   0.032   5.514   9.474 -0.4676  0.1206 -0.1777
   7523SM   H1S 9838   0.137   5.492   9.446 -0.1426 -0.5282  1.4598
   7523SM   H1T 9839   0.033   5.612   9.525 -0.9965  1.1065 -1.9494
   7523SM    NF 9840  -0.003   5.611   9.247 -0.1898 -0.6411  0.3531
   7523SM   HNF 9841  -0.020   5.709   9.246 -0.2977 -0.5844  2.4854
   7523SM   C2S 9842  -0.058   5.528   9.349  0.4030  0.4378  0.8719
   7523SM   H2S 9843  -0.075   5.425   9.311  1.3936  0.1679  1.1367
   7523SM   C3S 9844  -0.191   5.584   9.405 -0.2265 -0.6265 -0.8911
   7523SM   H3S 9845  -0.163   5.680   9.452 -1.9898  0.7442 -2.4749
   7523SM    O3 9846  -0.255   5.511   9.510 -0.1536 -0.4124  0.3791
   7523SM   HO3 9847  -0.191   5.443   9.532 -1.1837 -1.2045  1.0310
   7523SM   C4S 9848  -0.284   5.631   9.292 -0.0845 -0.7366  0.4628
   7523SM   H4S 9849  -0.268   5.735   9.260 -0.4456 -1.0742 -0.8473
   7523SM   C5S 9850  -0.366   5.552   9.225  0.0680  0.3097 -0.2193
   7523SM   H5S 9851  -0.358   5.445   9.248 -0.7415 -0.0454 -1.4930
   7523SM   C6S 9852  -0.449   5.595   9.112 -0.3132 -0.2596  0.3914
   7523SM   H6S 9853  -0.532   5.654   9.157  0.6226  1.1555  0.3320
   7523SM   H6T 9854  -0.497   5.507   9.063 -2.3068  0.9610  0.0110
   7523SM   C7S 9855  -0.388   5.687   9.004 -0.0526 -0.2589 -0.1660
   7523SM   H7S 9856  -0.316   5.621   8.949  0.3904 -1.8584  2.1700
   7523SM   H7T 9857  -0.323   5.764   9.051 -1.4075  0.5679  0.3882
   7523SM   C8S 9858  -0.494   5.748   8.917 -0.0906  0.2230 -0.3573
   7523SM   H8S 9859  -0.596   5.738   8.961 -0.4976  2.0039 -0.8537
   7523SM   H8T 9860  -0.499   5.695   8.820 -2.5381  2.2120 -1.3912
   7523SM   C9S 9861  -0.461   5.893   8.883  0.1083  0.0532  0.4057
   7523SM   H9S 9862  -0.357   5.907   8.846  0.5404  0.4407  1.6831
   7523SM   H9T 9863  -0.455   5.949   8.979  0.0996  1.3892 -0.3442
   7523SM  C10S 9864  -0.558   5.963   8.790 -0.5608  0.5673  0.1364
   7523SM  H10S 9865  -0.518   6.063   8.760 -0.3311  1.6169  3.5883
   7523SM  H10T 9866  -0.647   5.989   8.851 -0.8293 -1.0868  0.4709
   7523SM  C11S 9867  -0.596   5.882   8.663  0.3764  0.1536  0.3516
   7523SM  H11S 9868  -0.653   5.789   8.687 -0.6541  0.6254 -0.2348
   7523SM  H11T 9869  -0.505   5.841   8.614  1.2361 -1.6132  3.1944
   7523SM  C12S 9870  -0.678   5.975   8.568 -0.0996 -0.0502 -0.4591
   7523SM  H12S 9871  -0.618   6.063   8.533 -0.2783 -0.2753 -1.3541
   7523SM  H12T 9872  -0.762   6.008   8.632  1.1777 -0.9319  1.7736
   7523SM  C13S 9873  -0.731   5.894   8.448 -0.0372 -0.0571  0.6917
   7523SM  H13S 9874  -0.799   5.816   8.488  0.2896 -0.4190  0.5504
   7523SM  H13T 9875  -0.649   5.843   8.394 -0.6653 -0.9210  0.5323
   7523SM  C14S 9876  -0.808   5.969   8.344  0.4226  0.3847  0.4756
   7523SM  H14S 9877  -0.767   6.070   8.322 -0.7669  0.6409 -0.7001
   7523SM  H14T 9878  -0.913   5.977   8.381 -0.9068 -3.0795 -1.9399
   7523SM  C15S 9879  -0.797   5.901   8.204  0.0662 -0.3978 -0.0972
   7523SM  H15S 9880  -0.859   5.809   8.212  0.7984 -0.7830  1.3921
   7523SM  H15T 9881  -0.694   5.863   8.191  0.5081  0.3117  1.2049
   7523SM  C16S 9882  -0.835   5.986   8.078 -0.0895  0.1224 -0.3125
   7523SM  H16S 9883  -0.819   5.939   7.979 -0.7138  1.9037 -1.3165
   7523SM  H16T 9884  -0.774   6.079   8.090  0.6008 -0.3435 -0.1575
   7523SM  C17S 9885  -0.974   6.048   8.068 -0.0702  0.0199 -0.8726
   7523SM  H17S 9886  -0.949   6.139   8.009  3.3875  0.2568  0.6740
   7523SM  H17T 9887  -1.008   6.088   8.166  1.8756  0.0502 -0.1479
   7523SM  C18S 9888  -1.082   5.958   8.008  0.2866  0.3650  0.5108
   7523SM  H18S 9889  -1.173   6.009   7.971  0.1598  0.9487  1.6018
   7523SM  H18T 9890  -1.109   5.883   8.084  1.1507 -0.4401  0.0470
   7523SM  H18U 9891  -1.040   5.915   7.914  0.8741  1.5104  0.2243
   7523SM   C1F 9892   0.114   5.580   9.182  0.4003 -1.7023 -0.5453
   7523SM    OF 9893   0.166   5.469   9.191  0.2822  0.1357  0.4514
   7523SM   C2F 9894   0.165   5.690   9.098 -0.7286  0.4113  0.3270
   7523SM   H2F 9895   0.093   5.775   9.095 -0.6479  0.4904  0.5680
   7523SM   H2G 9896   0.172   5.650   8.995  1.3539 -0.5719  0.8032
   7523SM   C3F 9897   0.306   5.739   9.138 -0.4480  0.1580 -0.5961
   7523SM   H3F 9898   0.342   5.812   9.061  2.4988  1.1900  1.5768
   7523SM   H3G 9899   0.375   5.653   9.147 -1.5616 -0.9712 -2.2581
   7523SM   C4F 9900   0.306   5.821   9.269  0.4133  0.1569 -0.1618
   7523SM   H4F 9901   0.243   5.753   9.331 -0.5147 -1.0556 -2.3007
   7523SM   H4G 9902   0.246   5.914   9.255 -0.8741 -0.2884  1.9752
   7523SM   C5F 9903   0.444   5.833   9.339  0.4984 -0.8473  0.2266
   7523SM   H5F 9904   0.479   5.729   9.357 -0.1295 -1.4385 -1.6635
   7523SM   H5G 9905   0.412   5.879   9.435 -1.4858 -0.0913 -0.7445
   7523SM   C6F 9906   0.545   5.927   9.275 -0.4650  0.0531  0.1228
   7523SM   H6F 9907   0.589   5.883   9.183  1.8256  1.5824  0.3866
   7523SM   H6G 9908   0.634   5.935   9.341  0.0330  0.1892 -0.5485
   7523SM   C7F 9909   0.496   6.065   9.236 -0.1493  0.7261 -0.4832
   7523SM   H7F 9910   0.442   6.107   9.324 -0.9105 -1.6714  0.2816
   7523SM   H7G 9911   0.413   6.057   9.162  0.1761 -2.6908 -0.6067
   7523SM   C8F 9912   0.601   6.154   9.172  1.2555 -0.5131 -0.0069
   7523SM   H8F 9913   0.613   6.101   9.075  1.6236  0.6079 -0.5962
   7523SM   H8G 9914   0.699   6.157   9.225  0.3664  0.4070  1.6650
   7523SM   C9F 9915   0.540   6.302   9.146  0.3548  0.2211  0.6035
   7523SM   H9F 9916   0.530   6.356   9.242 -0.8344 -1.8086  1.7062
   7523SM   H9G 9917   0.430   6.296   9.126  0.3136  0.9792  0.5725
   7523SM  C10F 9918   0.628   6.383   9.057 -0.5663 -0.0538 -0.5469
   7523SM  H10F 9919   0.624   6.339   8.955 -2.4569  0.2452 -0.6463
   7523SM  H10G 9920   0.732   6.371   9.094 -0.5267  1.5237 -0.0952
   7523SM  C11F 9921   0.585   6.534   9.065  0.7048 -0.1362  0.1740
   7523SM  H11F 9922   0.650   6.594   9.132  0.7542  0.7918 -0.6746
   7523SM  H11G 9923   0.479   6.546   9.096  0.8985  3.2840 -0.0366
   7523SM  C12F 9924   0.590   6.599   8.924 -0.2274  0.6032  0.1559
   7523SM  H12F 9925   0.689   6.572   8.882 -0.1480  1.4683 -0.2274
   7523SM  H12G 9926   0.586   6.710   8.932 -2.1609  0.6105 -0.4453
   7523SM  C13F 9927   0.473   6.558   8.833 -0.1902 -0.0441  1.0756
   7523SM  H13F 9928   0.370   6.561   8.875 -1.4341 -2.8539 -1.3749
   7523SM  H13G 9929   0.470   6.450   8.808 -0.2274  0.3073 -0.5393
   7523SM  C14F 9930   0.466   6.638   8.699  0.3659  0.6268 -0.2606
   7523SM  H14F 9931   0.570   6.655   8.664 -0.0750  1.1993 -1.3400
   7523SM  H14G 9932   0.407   6.731   8.713 -3.7783 -1.5646 -1.4574
   7523SM  C15F 9933   0.388   6.561   8.583  0.2959  0.2255 -0.9241
   7523SM  H15F 9934   0.284   6.562   8.622  0.7678 -0.2308  0.4087
   7523SM  H15G 9935   0.417   6.454   8.592 -1.9539 -0.3954 -0.3662
   7523SM  C16F 9936   0.394   6.620   8.445  0.8427 -0.2975 -0.5209
   7523SM  H16F 9937   0.323   6.556   8.388 -1.3288  3.1615 -2.0361
   7523SM  H16G 9938   0.497   6.612   8.404  0.8676 -0.4137 -0.4358
   7523SM  C17F 9939   0.357   6.766   8.441  0.3202  0.8356 -0.1297
   7523SM  H17F 9940   0.294   6.771   8.533 -0.4248  1.6197 -0.6719
   7523SM  H17G 9941   0.292   6.792   8.355 -1.0060  1.6556  1.0772
   7523SM  C18F 9942   0.481   6.858   8.456 -0.2371 -0.1448 -0.5332
   7523SM  H18F 9943   0.553   6.798   8.516 -2.1853 -1.4958  0.5787
   7523SM  H18G 9944   0.438   6.945   8.509 -2.8552 -0.9223 -1.2580
   7523SM  C19F 9945   0.550   6.893   8.322 -0.1426 -0.4609 -0.2691
   7523SM  H19F 9946   0.463   6.923   8.258 -0.8886 -3.0156 -0.5474
   7523SM  H19G 9947   0.599   6.805   8.276 -0.9279 -1.0882  0.0699
   7523SM  C20F 9948   0.630   7.027   8.338 -0.6659 -0.4056 -0.2279
   7523SM  H20F 9949   0.725   7.012   8.284  0.3176  1.0901  1.0131
   7523SM  H20G 9950   0.656   7.031   8.446  0.5446 -2.5916 -0.3751
   7523SM  C21F 9951   0.559   7.158   8.285 -0.4933 -0.7563 -0.3230
   7523SM  H21F 9952   0.454   7.169   8.318  0.0909  5.0708  0.5746
   7523SM  H21G 9953   0.565   7.148   8.175  2.2264 -1.1664 -0.2197
   7523SM  C22F 9954   0.637   7.277   8.333  0.5141  0.5322 -0.7447
   7523SM  H22F 9955   0.651   7.270   8.443  1.1989  1.2882 -0.7794
   7523SM  H22G 9956   0.574   7.367   8.314 -0.6933  0.1002  0.9440
   7523SM  C23F 9957   0.776   7.298   8.269 -0.2308 -0.2373  0.0971
   7523SM  H23F 9958   0.845   7.217   8.299 -0.5554  0.2888  2.4889
   7523SM  H23G 9959   0.817   7.394   8.309 -0.7118  0.4792 -1.0792
   7523SM  H23H 9960   0.784   7.311   8.159  4.7755  0.8235  0.3526
   7623SM     N 9961   0.232   4.570   9.849 -0.2241  1.0866  0.0286
   7623SM   C15 9962   0.188   4.686   9.933 -0.2341 -0.1792  0.0329
   7623SM  H15A 9963   0.258   4.769   9.935  0.5664 -0.8195 -0.5489
   7623SM  H15B 9964   0.176   4.650  10.034  0.2880 -2.0484 -0.5372
   7623SM  H15C 9965   0.095   4.729   9.900  0.7804  2.3079  0.1892
   7623SM   C14 9966   0.372   4.517   9.891 -0.4697 -0.5640  0.2605
   7623SM  H14A 9967   0.429   4.608   9.877 -0.8468 -0.6106 -1.9296
   7623SM  H14B 9968   0.412   4.439   9.829  0.4578  1.0768 -1.2979
   7623SM  H14C 9969   0.374   4.489   9.996  1.8656  1.1127  0.7501
   7623SM   C13 9970   0.145   4.456   9.879 -0.5274  0.3358 -0.4980
   7623SM  H13A 9971   0.174   4.357   9.845 -0.6642 -0.4911  1.6520
   7623SM  H13B 9972   0.045   4.486   9.850  0.1290  0.8434 -2.3673
   7623SM  H13C 9973   0.143   4.446   9.986  1.1850 -1.2598 -0.5589
   7623SM   C12 9974   0.230   4.602   9.700 -0.2711  0.8577 -0.4370
   7623SM  H12A 9975   0.128   4.607   9.665 -1.3460 -0.4799  2.1809
   7623SM  H12B 9976   0.264   4.511   9.652 -1.6241  1.5445 -2.8707
   7623SM   C11 9977   0.296   4.728   9.645  0.6760 -0.1259 -0.2143
   7623SM  H11A 9978   0.239   4.812   9.692  0.2183  0.0252 -1.0261
   7623SM  H11B 9979   0.262   4.733   9.539  0.3979  1.4764 -0.0791
   7623SM     P 9980   0.527   4.639   9.586  0.0240 -0.2768 -0.0115
   7623SM   O13 9981   0.662   4.661   9.630 -0.3613 -0.3101 -1.0584
   7623SM   O14 9982   0.480   4.501   9.596 -0.3700 -0.3923 -0.1203
   7623SM   O11 9983   0.517   4.684   9.437 -0.0713  0.0556  0.3108
   7623SM   O12 9984   0.434   4.741   9.663  0.0736  0.7011 -0.0302
   7623SM   C1S 9985   0.518   4.823   9.398  0.3564  0.1126 -0.0523
   7623SM   H1S 9986   0.617   4.871   9.414 -0.0411  1.0481 -0.2854
   7623SM   H1T 9987   0.456   4.884   9.468  0.4070 -1.8569  1.8204
   7623SM    NF 9988   0.516   4.955   9.181  0.0180  0.2269 -0.7253
   7623SM   HNF 9989   0.445   5.022   9.159 -0.5356  1.1064  3.1170
   7623SM   C2S 9990   0.472   4.834   9.249 -0.0610 -0.1529  0.1554
   7623SM   H2S 9991   0.533   4.762   9.191  2.2245  2.3150 -0.7276
   7623SM   C3S 9992   0.322   4.800   9.220 -0.3039  0.4510  0.1933
   7623SM   H3S 9993   0.261   4.865   9.285  1.4324  0.7454  1.6179
   7623SM    O3 9994   0.289   4.661   9.253 -0.4955  0.1223  0.3911
   7623SM   HO3 9995   0.359   4.626   9.309  0.1118  1.3928  0.4603
   7623SM   C4S 9996   0.294   4.824   9.073 -0.3683 -0.8614 -0.6448
   7623SM   H4S 9997   0.251   4.922   9.048 -0.1688 -0.6572 -0.1993
   7623SM   C5S 9998   0.298   4.746   8.965  0.3062  0.0819 -0.2661
   7623SM   H5S 9999   0.333   4.642   8.972  0.7543  0.2539  0.0628
   7623SM   C6S10000   0.257   4.792   8.828  0.1668  0.7003  0.1093
   7623SM   H6S10001   0.303   4.725   8.752  0.7629  1.7441 -0.4742
   7623SM   H6T10002   0.317   4.884   8.810 -0.3361  0.8561 -0.7957
   7623SM   C7S10003   0.101   4.808   8.806  0.0591  1.0252  0.1259
   7623SM   H7S10004   0.063   4.871   8.890 -0.4296  0.2072  0.5387
   7623SM   H7T10005   0.053   4.708   8.816 -0.9480  1.6601  2.0897
   7623SM   C8S10006   0.076   4.876   8.672 -0.2737  0.1870 -0.4445
   7623SM   H8S10007   0.131   4.823   8.592 -0.9482 -0.0761 -0.7371
   7623SM   H8T10008   0.123   4.977   8.681  1.8729 -0.7093 -1.0147
   7623SM   C9S10009  -0.071   4.891   8.641 -0.0805 -0.6103 -0.4852
   7623SM   H9S10010  -0.116   4.937   8.732  1.1404 -1.7327  0.7289
   7623SM   H9T10011  -0.133   4.804   8.613 -1.0737 -0.6074  1.5596
   7623SM  C10S10012  -0.089   4.994   8.531  0.2927  0.1394  0.2722
   7623SM  H10S10013  -0.037   4.961   8.439 -0.5198  0.7880 -0.4377
   7623SM  H10T10014  -0.043   5.092   8.557 -1.5154  1.2724 -0.5942
   7623SM  C11S10015  -0.245   5.020   8.501  0.3973  0.0349 -0.0553
   7623SM  H11S10016  -0.283   5.072   8.591 -0.2845  1.5621 -1.1763
   7623SM  H11T10017  -0.286   4.918   8.484  0.0442  0.1465  0.1182
   7623SM  C12S10018  -0.282   5.111   8.379 -0.2231 -0.2133  0.2630
   7623SM  H12S10019  -0.235   5.062   8.291 -1.9332  2.5358 -2.3922
   7623SM  H12T10020  -0.237   5.212   8.390  0.5386 -0.4056 -0.8904
   7623SM  C13S10021  -0.433   5.110   8.359  0.5596  0.1482  0.1067
   7623SM  H13S10022  -0.481   5.203   8.398  2.4745  0.7639  1.1554
   7623SM  H13T10023  -0.480   5.020   8.403  2.3712 -0.5810  0.6547
   7623SM  C14S10024  -0.466   5.097   8.207  1.0578  0.5367  0.0157
   7623SM  H14S10025  -0.463   4.989   8.181  0.8830  0.0653  1.8114
   7623SM  H14T10026  -0.384   5.148   8.151  2.3468 -1.4626 -0.0246
   7623SM  C15S10027  -0.611   5.136   8.168  0.8285 -0.6766 -0.0236
   7623SM  H15S10028  -0.606   5.247   8.179 -0.5315 -0.6599  0.7077
   7623SM  H15T10029  -0.673   5.100   8.253  1.8703  1.0275  1.5167
   7623SM  C16S10030  -0.651   5.095   8.032 -0.0045 -0.0267 -0.3338
   7623SM  H16S10031  -0.651   4.984   8.034 -0.9094 -0.0747 -1.5068
   7623SM  H16T10032  -0.578   5.123   7.953 -0.4247  0.6565 -0.4876
   7623SM  C17S10033  -0.788   5.147   7.981  0.1025  0.0612  0.4289
   7623SM  H17S10034  -0.771   5.256   7.966  0.3719 -0.1095 -0.5668
   7623SM  H17T10035  -0.865   5.128   8.058  0.4726 -0.3971  0.6926
   7623SM  C18S10036  -0.835   5.076   7.843 -0.0614 -0.2976 -0.5600
   7623SM  H18S10037  -0.822   4.966   7.857 -2.2756 -0.3602  1.6237
   7623SM  H18T10038  -0.759   5.108   7.768  2.0345  0.7685  1.8685
   7623SM  H18U10039  -0.936   5.111   7.812 -0.2995 -0.1821  0.3335
   7623SM   C1F10040   0.641   4.984   9.152 -0.4901  0.0817 -1.1753
   7623SM    OF10041   0.734   4.895   9.163  0.0613 -0.4480 -0.3630
   7623SM   C2F10042   0.661   5.115   9.079  0.4630  1.3378 -0.5560
   7623SM   H2F10043   0.768   5.140   9.087  1.1839 -0.8391 -2.3448
   7623SM   H2G10044   0.607   5.200   9.125  1.4199  1.6847 -0.0572
   7623SM   C3F10045   0.617   5.104   8.931 -0.6205  0.1297 -0.3857
   7623SM   H3F10046   0.641   5.001   8.897 -1.5664 -0.5045  0.8117
   7623SM   H3G10047   0.686   5.170   8.874  1.3305 -1.9556 -0.5448
   7623SM   C4F10048   0.469   5.140   8.908  0.1700 -1.0177  0.3718
   7623SM   H4F10049   0.438   5.232   8.962  0.9024 -1.5267  1.7111
   7623SM   H4G10050   0.397   5.060   8.938 -0.1206 -1.1299 -0.5823
   7623SM   C5F10051   0.436   5.179   8.759 -0.0125 -0.5566  0.7985
   7623SM   H5F10052   0.449   5.090   8.694  0.0660  0.1914 -0.2261
   7623SM   H5G10053   0.514   5.254   8.733 -0.4086 -1.0483 -2.2023
   7623SM   C6F10054   0.294   5.236   8.739 -0.7188  0.2218 -0.5689
   7623SM   H6F10055   0.290   5.318   8.813 -0.7919  2.5399 -2.9969
   7623SM   H6G10056   0.227   5.151   8.767 -0.8517  0.6108  0.3148
   7623SM   C7F10057   0.276   5.286   8.604 -0.1517  0.3673  0.5957
   7623SM   H7F10058   0.355   5.361   8.586  0.1730  0.0426  0.6581
   7623SM   H7G10059   0.183   5.347   8.611 -1.0521 -0.7710 -0.7212
   7623SM   C8F10060   0.279   5.182   8.494  0.4668  0.0184  1.0490
   7623SM   H8F10061   0.186   5.120   8.498 -2.1923  3.5854  0.2153
   7623SM   H8G10062   0.372   5.121   8.494  0.0779 -0.6149  0.0578
   7623SM   C9F10063   0.267   5.239   8.351 -0.2972 -0.7732  1.4089
   7623SM   H9F10064   0.264   5.156   8.278 -0.5776  0.3077  0.1531
   7623SM   H9G10065   0.357   5.303   8.335  0.0484 -1.6812 -0.5917
   7623SM  C10F10066   0.145   5.325   8.322  0.3778  0.2376 -0.6763
   7623SM  H10F10067   0.169   5.426   8.363 -0.1040  1.1924 -2.5949
   7623SM  H10G10068   0.057   5.280   8.372 -0.6409  2.3180 -0.5028
   7623SM  C11F10069   0.134   5.350   8.173 -0.1254 -0.3673  0.0225
   7623SM  H11F10070   0.092   5.267   8.111 -1.2541 -1.3750  2.0277
   7623SM  H11G10071   0.226   5.379   8.118 -2.0274 -1.9622 -4.4553
   7623SM  C12F10072   0.023   5.461   8.146 -0.5014  0.0202 -0.3972
   7623SM  H12F10073  -0.060   5.444   8.218 -1.0021  2.1139 -0.4181
   7623SM  H12G10074  -0.019   5.459   8.043 -3.3736 -3.9646  0.5801
   7623SM  C13F10075   0.078   5.600   8.170 -0.2479  0.4488 -0.2517
   7623SM  H13F10076   0.185   5.604   8.141 -0.7026 -1.3582 -2.3721
   7623SM  H13G10077   0.071   5.617   8.280  2.7927  1.7764 -0.1676
   7623SM  C14F10078  -0.010   5.713   8.114  0.3423  0.1147 -1.0010
   7623SM  H14F10079   0.035   5.806   8.154  1.5164 -0.4710 -0.9161
   7623SM  H14G10080  -0.115   5.706   8.148  0.9965  1.6406  1.5703
   7623SM  C15F10081  -0.007   5.719   7.960  0.2600 -0.1884  0.0385
   7623SM  H15F10082  -0.072   5.639   7.918  0.1094 -0.4311  0.7265
   7623SM  H15G10083   0.100   5.711   7.930 -0.0890  0.5546 -1.5281
   7623SM  C16F10084  -0.067   5.845   7.901 -0.4864 -0.3344 -0.2615
   7623SM  H16F10085  -0.032   5.926   7.968 -0.6136 -0.4724 -0.0263
   7623SM  H16G10086  -0.178   5.842   7.905 -0.4382 -1.3457  1.8697
   7623SM  C17F10087  -0.040   5.873   7.746  0.2571 -0.0554 -0.2505
   7623SM  H17F10088   0.052   5.931   7.728  0.3749  0.0060  0.4958
   7623SM  H17G10089  -0.130   5.929   7.711  0.3919  0.8869  0.8616
   7623SM  C18F10090  -0.052   5.747   7.660 -0.4231  0.1188 -0.6865
   7623SM  H18F10091  -0.142   5.693   7.698  0.5228  0.0340  1.5991
   7623SM  H18G10092   0.032   5.677   7.677 -0.4151 -0.0099 -1.2245
   7623SM  C19F10093  -0.067   5.777   7.513  0.0872  0.3433  1.2739
   7623SM  H19F10094   0.013   5.850   7.487 -0.4792  0.1532 -1.3365
   7623SM  H19G10095  -0.168   5.822   7.502  0.3866  0.4709 -2.2319
   7623SM  C20F10096  -0.058   5.659   7.405 -0.0330  0.0766  0.0028
   7623SM  H20F10097  -0.130   5.578   7.429  0.9091 -0.5982  0.6412
   7623SM  H20G10098   0.039   5.604   7.408 -1.1370 -2.6025 -4.2161
   7623SM  C21F10099  -0.086   5.700   7.262  0.1159  0.3675  0.0905
   7623SM  H21F10100  -0.184   5.752   7.256  0.2013  0.3806 -1.6057
   7623SM  H21G10101  -0.098   5.609   7.200  0.5547  0.1275  0.3561
   7623SM  C22F10102   0.020   5.792   7.198 -1.1577  0.6404 -0.4136
   7623SM  H22F10103   0.115   5.736   7.180 -1.5069 -1.5512  3.4204
   7623SM  H22G10104   0.046   5.871   7.272  1.3319  1.2554 -1.8451
   7623SM  C23F10105  -0.021   5.862   7.072  0.2695 -0.0328 -0.0909
   7623SM  H23F10106   0.056   5.935   7.043 -1.1946  1.4107 -0.4738
   7623SM  H23G10107  -0.118   5.915   7.084  1.5323  1.8976  2.6155
   7623SM  H23H10108  -0.040   5.797   6.984 -1.7938 -0.5605  0.6779
   7723SM     N10109   1.226   2.107   9.722  0.0588  0.5818 -0.0127
   7723SM   C1510110   1.295   2.069   9.595  0.0742 -0.7001 -0.1983
   7723SM  H15A10111   1.401   2.090   9.593 -0.2032  0.8253 -1.0975
   7723SM  H15B10112   1.248   2.115   9.509 -0.8832  3.5424  2.2559
   7723SM  H15C10113   1.291   1.963   9.579  0.9321 -0.9997  1.3781
   7723SM   C1410114   1.078   2.068   9.720  0.2207 -0.3409  0.6776
   7723SM  H14A10115   1.019   2.126   9.651 -0.9955 -0.8757  1.2390
   7723SM  H14B10116   1.024   2.096   9.810 -0.9903  0.5312 -0.2917
   7723SM  H14C10117   1.055   1.963   9.709  0.8926 -0.3691 -0.6630
   7723SM   C1310118   1.291   2.016   9.829  0.1743 -0.4780 -0.5900
   7723SM  H13A10119   1.280   1.912   9.801 -0.9242 -0.8546  1.0891
   7723SM  H13B10120   1.237   2.026   9.922  0.2142  0.0901 -0.6270
   7723SM  H13C10121   1.397   2.034   9.837 -0.2505  1.9439  0.4153
   7723SM   C1210122   1.247   2.256   9.740  0.2512 -0.7572  0.5671
   7723SM  H12A10123   1.188   2.320   9.676  1.1962  0.6634  1.0634
   7723SM  H12B10124   1.350   2.280   9.719  0.4989 -1.8231  0.5361
   7723SM   C1110125   1.223   2.300   9.890 -0.1901 -0.2228  0.1208
   7723SM  H11A10126   1.276   2.395   9.914  0.6262 -1.1005  2.0154
   7723SM  H11B10127   1.280   2.230   9.954  0.9839 -0.1365 -0.7796
   7723SM     P10128   0.990   2.408   9.865  0.3534 -0.0208  0.0016
   7723SM   O1310129   0.860   2.379   9.926  0.3981  0.0201  0.5270
   7723SM   O1410130   1.043   2.548   9.874 -0.6355 -0.5012  0.7501
   7723SM   O1110131   0.978   2.363   9.712  0.1318 -0.2978 -0.0532
   7723SM   O1210132   1.086   2.310   9.930 -0.1279  0.4686  0.1620
   7723SM   C1S10133   0.856   2.389   9.637  0.0656 -0.0746 -0.0233
   7723SM   H1S10134   0.801   2.478   9.674  0.3677  0.9028 -1.8252
   7723SM   H1T10135   0.788   2.301   9.644 -0.2186  0.1717  0.3186
   7723SM    NF10136   0.767   2.384   9.405 -0.0554  0.0896  0.2103
   7723SM   HNF10137   0.776   2.293   9.364  1.6358  1.1283 -1.9017
   7723SM   C2S10138   0.879   2.417   9.481  0.2533  0.0731 -0.6359
   7723SM   H2S10139   0.896   2.527   9.485  0.0728  0.1546 -1.6466
   7723SM   C3S10140   1.023   2.367   9.433  0.6791 -0.1406  0.7918
   7723SM   H3S10141   1.022   2.261   9.464 -1.4754 -0.5214 -0.3947
   7723SM    O310142   1.141   2.433   9.493 -0.2676 -0.9333 -0.3719
   7723SM   HO310143   1.128   2.454   9.586 -1.3443 -1.9323 -0.2687
   7723SM   C4S10144   1.041   2.395   9.281 -0.1732  0.5760 -0.1877
   7723SM   H4S10145   0.995   2.489   9.248  1.0602  1.3771  0.3033
   7723SM   C5S10146   1.080   2.307   9.186 -0.5333 -0.1680  0.5906
   7723SM   H5S10147   1.105   2.205   9.217  4.4987  1.0655  1.5450
   7723SM   C6S10148   1.085   2.335   9.037 -0.4933 -0.2678 -0.8480
   7723SM   H6S10149   1.088   2.240   8.981 -2.0465 -0.4684 -0.6249
   7723SM   H6T10150   1.182   2.387   9.018  0.0310 -1.0904 -0.4833
   7723SM   C7S10151   0.976   2.428   8.980 -0.9039  0.6069 -0.0082
   7723SM   H7S10152   0.968   2.529   9.025 -1.5614  0.2615  0.6668
   7723SM   H7T10153   0.875   2.386   9.000 -1.0254  1.4310  1.2207
   7723SM   C8S10154   0.997   2.444   8.827  0.5533 -0.5688  0.4359
   7723SM   H8S10155   0.937   2.530   8.792  0.3872 -1.1567 -0.7433
   7723SM   H8T10156   0.958   2.351   8.781  1.2243 -0.1894 -0.9630
   7723SM   C9S10157   1.147   2.463   8.779  0.0430  0.0822 -0.2685
   7723SM   H9S10158   1.203   2.367   8.788 -0.8250 -0.5216 -1.0995
   7723SM   H9T10159   1.192   2.543   8.842  0.9391 -0.5543 -0.0783
   7723SM  C10S10160   1.165   2.492   8.626 -0.0083  0.5004  0.0371
   7723SM  H10S10161   1.101   2.578   8.598  1.3123  2.4431  2.5517
   7723SM  H10T10162   1.117   2.412   8.566  0.5609  1.4160 -1.7095
   7723SM  C11S10163   1.313   2.512   8.580  0.9224  0.2559  0.6951
   7723SM  H11S10164   1.369   2.417   8.570  0.4975 -0.1060  1.6009
   7723SM  H11T10165   1.367   2.565   8.662  1.9329 -0.3945  0.4668
   7723SM  C12S10166   1.325   2.588   8.447  0.4128 -0.6107 -0.4745
   7723SM  H12S10167   1.269   2.683   8.462 -0.6471 -1.2623 -0.2078
   7723SM  H12T10168   1.274   2.541   8.361 -0.5260 -0.1640 -0.1691
   7723SM  C13S10169   1.470   2.623   8.417 -0.0843  0.2305  0.4831
   7723SM  H13S10170   1.534   2.533   8.425 -2.0534 -1.3112 -0.4341
   7723SM  H13T10171   1.501   2.691   8.500 -0.2123  1.6026 -0.5534
   7723SM  C14S10172   1.477   2.710   8.286 -0.1884 -0.4190  0.2453
   7723SM  H14S10173   1.429   2.808   8.309  0.7888 -0.5775  3.4311
   7723SM  H14T10174   1.419   2.652   8.211 -1.0370 -0.8564  1.2164
   7723SM  C15S10175   1.611   2.743   8.228 -0.2048  1.0093  0.4100
   7723SM  H15S10176   1.671   2.806   8.297 -1.6005  0.5624  2.1126
   7723SM  H15T10177   1.593   2.797   8.133  0.0844  0.4615  0.0356
   7723SM  C16S10178   1.700   2.620   8.198 -0.1089  0.6314 -0.4340
   7723SM  H16S10179   1.652   2.553   8.123 -0.5133  0.5116 -0.0737
   7723SM  H16T10180   1.707   2.574   8.299 -0.1576  0.4673 -0.5048
   7723SM  C17S10181   1.846   2.647   8.165  0.4834 -0.5371  1.0560
   7723SM  H17S10182   1.876   2.724   8.239  0.7571 -0.3158  0.7187
   7723SM  H17T10183   1.855   2.688   8.062 -0.6395  0.5205  1.3493
   7723SM  C18S10184   1.941   2.526   8.183  0.0762 -0.1976  0.2424
   7723SM  H18S10185   2.044   2.562   8.205 -1.0425  1.5616  3.2719
   7723SM  H18T10186   1.930   2.468   8.088  3.7803  1.7986 -1.6382
   7723SM  H18U10187   1.905   2.468   8.270  3.5484 -1.4182  0.9970
   7723SM   C1F10188   0.653   2.449   9.412  0.3027 -0.0980  0.6528
   7723SM    OF10189   0.638   2.547   9.487 -0.0109 -0.2230  0.2723
   7723SM   C2F10190   0.555   2.392   9.313  0.3925  0.4011  0.2860
   7723SM   H2F10191   0.471   2.353   9.374  0.7956 -0.6272  0.2104
   7723SM   H2G10192   0.601   2.314   9.248 -1.8024  0.6383 -1.6682
   7723SM   C3F10193   0.504   2.496   9.213  0.0086 -0.0500  0.4958
   7723SM   H3F10194   0.496   2.592   9.269  0.3520 -0.0094  0.4788
   7723SM   H3G10195   0.402   2.480   9.173  0.3515 -0.6356 -0.1599
   7723SM   C4F10196   0.594   2.530   9.086 -0.3939 -0.7530  0.2089
   7723SM   H4F10197   0.579   2.443   9.019 -1.0448  0.1293 -0.8232
   7723SM   H4G10198   0.698   2.537   9.124 -0.6185  1.3492  0.5587
   7723SM   C5F10199   0.539   2.652   9.008 -0.5723  1.5102  0.1898
   7723SM   H5F10200   0.545   2.744   9.071  3.1692  0.4533  1.6644
   7723SM   H5G10201   0.437   2.645   8.964  0.3024  0.2192 -1.7897
   7723SM   C6F10202   0.640   2.679   8.893 -0.1217 -0.4242 -0.2813
   7723SM   H6F10203   0.739   2.630   8.904  0.1697  0.0592 -0.6888
   7723SM   H6G10204   0.652   2.789   8.879 -0.4901 -0.1579  1.3737
   7723SM   C7F10205   0.583   2.630   8.762 -0.0457 -0.3237  0.4560
   7723SM   H7F10206   0.486   2.682   8.746  0.9261  1.4251  0.0333
   7723SM   H7G10207   0.561   2.521   8.767  1.8233 -0.7371  0.2465
   7723SM   C8F10208   0.673   2.655   8.637 -0.1339  0.3876 -0.1656
   7723SM   H8F10209   0.765   2.594   8.651 -0.9071 -1.3233 -1.9415
   7723SM   H8G10210   0.711   2.759   8.630  0.5340  0.1097 -0.8497
   7723SM   C9F10211   0.616   2.616   8.505  0.1088  0.0536  0.6404
   7723SM   H9F10212   0.552   2.699   8.468  0.5315 -0.0952 -0.4538
   7723SM   H9G10213   0.553   2.525   8.518  0.0283 -0.2363 -1.4348
   7723SM  C10F10214   0.716   2.589   8.395  0.4915 -0.0419  0.3397
   7723SM  H10F10215   0.676   2.544   8.302  0.0476 -0.3156  0.6531
   7723SM  H10G10216   0.791   2.517   8.435 -0.9463 -0.8422  1.7491
   7723SM  C11F10217   0.783   2.717   8.350 -0.9105 -0.2039 -1.0993
   7723SM  H11F10218   0.839   2.759   8.436  0.4032 -3.1315 -0.3860
   7723SM  H11G10219   0.709   2.788   8.308 -1.2394  0.6814  0.8941
   7723SM  C12F10220   0.903   2.692   8.259  0.3444 -0.0041  0.0083
   7723SM  H12F10221   0.869   2.630   8.174  1.5819  0.8670 -1.1621
   7723SM  H12G10222   0.978   2.639   8.321 -0.2548  2.0236  2.6786
   7723SM  C13F10223   0.967   2.822   8.207 -1.0127  0.7316  0.5807
   7723SM  H13F10224   1.018   2.881   8.286  1.5718  0.0218 -0.4335
   7723SM  H13G10225   0.892   2.884   8.154 -1.4178  0.9794  1.4399
   7723SM  C14F10226   1.091   2.784   8.123  0.3189 -0.3731  0.0366
   7723SM  H14F10227   1.049   2.701   8.062 -1.3652  0.4548 -0.0105
   7723SM  H14G10228   1.173   2.742   8.184  0.4538  0.1520  0.2277
   7723SM  C15F10229   1.143   2.903   8.035  0.5430 -0.3056  0.2445
   7723SM  H15F10230   1.158   2.982   8.111  1.8771 -2.2582  2.1427
   7723SM  H15G10231   1.060   2.928   7.966 -0.8903 -0.5748  1.8225
   7723SM  C16F10232   1.277   2.880   7.964  0.4260  0.0907  0.2240
   7723SM  H16F10233   1.357   2.892   8.040 -1.7289  1.5254  2.4242
   7723SM  H16G10234   1.293   2.963   7.893  0.0935 -0.6818 -0.7730
   7723SM  C17F10235   1.287   2.736   7.905  1.2190  0.1540 -0.0004
   7723SM  H17F10236   1.202   2.727   7.835 -0.4239  1.2527  1.7620
   7723SM  H17G10237   1.288   2.666   7.992 -0.9226 -1.0623 -0.8898
   7723SM  C18F10238   1.413   2.709   7.810 -0.3546  0.6729 -0.3805
   7723SM  H18F10239   1.502   2.757   7.857  0.4261 -1.2850  0.2263
   7723SM  H18G10240   1.390   2.755   7.711  0.2048 -0.9531 -1.3146
   7723SM  C19F10241   1.450   2.558   7.814  0.2813 -0.1089 -0.1276
   7723SM  H19F10242   1.378   2.511   7.744  0.6149 -0.1613 -0.4365
   7723SM  H19G10243   1.445   2.525   7.920 -0.1810  0.1919 -0.0487
   7723SM  C20F10244   1.602   2.526   7.777 -0.1764  0.1426  0.1088
   7723SM  H20F10245   1.672   2.589   7.836 -1.3442  1.3182  0.2691
   7723SM  H20G10246   1.610   2.550   7.669  0.2093 -0.0410  0.0942
   7723SM  C21F10247   1.639   2.375   7.802  0.4834 -0.1270 -0.8900
   7723SM  H21F10248   1.574   2.324   7.728  0.2956  0.5269 -1.1816
   7723SM  H21G10249   1.609   2.350   7.906 -0.1455  0.2302 -0.9801
   7723SM  C22F10250   1.781   2.350   7.777 -0.0173 -0.2881 -0.1456
   7723SM  H22F10251   1.837   2.374   7.870 -1.4226 -0.4075  0.7697
   7723SM  H22G10252   1.827   2.414   7.698  4.0326 -1.4527  1.0273
   7723SM  C23F10253   1.799   2.201   7.748 -0.3514 -0.2484 -0.1700
   7723SM  H23F10254   1.899   2.181   7.704 -0.6559 -1.3227 -0.4154
   7723SM  H23G10255   1.723   2.165   7.676  0.1392  0.7986 -1.2362
   7723SM  H23H10256   1.777   2.142   7.840 -2.0444  1.2336  0.4364
   7823SM     N10257   0.442   6.147  10.100  0.2752  0.2683  0.3140
   7823SM   C1510258   0.459   6.282  10.029  0.5190 -0.1412 -0.5831
   7823SM  H15A10259   0.481   6.358  10.103 -1.2880 -1.1593  1.0906
   7823SM  H15B10260   0.363   6.320   9.998  0.5801  1.3233  0.9091
   7823SM  H15C10261   0.532   6.275   9.950  0.8236  0.0462 -0.3236
   7823SM   C1410262   0.573   6.102  10.148 -1.0284  0.4657 -0.3264
   7823SM  H14A10263   0.565   5.996  10.168  1.3407  0.2061 -0.4645
   7823SM  H14B10264   0.609   6.152  10.237  0.0711  0.3628 -0.7009
   7823SM  H14C10265   0.647   6.123  10.072  0.9825  0.1925  1.4652
   7823SM   C1310266   0.354   6.166  10.225 -0.4623 -0.2834  0.2477
   7823SM  H13A10267   0.259   6.211  10.200 -0.0797 -0.0350 -0.8723
   7823SM  H13B10268   0.407   6.242  10.281  1.1174  0.6861 -2.3650
   7823SM  H13C10269   0.347   6.081  10.290  0.0569 -0.1452  0.4933
   7823SM   C1210270   0.360   6.044  10.011 -0.4523 -0.3169 -0.3499
   7823SM  H12A10271   0.356   5.952  10.066 -0.8536  0.0507  0.2409
   7823SM  H12B10272   0.420   6.023   9.924 -1.2726  0.6446 -1.1838
   7823SM   C1110273   0.215   6.083   9.969  0.5194  1.1002 -0.3069
   7823SM  H11A10274   0.159   6.116  10.059 -0.2367  1.0643 -0.7530
   7823SM  H11B10275   0.158   5.989   9.951 -1.4792  1.4806  3.2170
   7823SM     P10276   0.248   6.144   9.711  0.3446  0.3231 -0.3428
   7823SM   O1310277   0.388   6.113   9.712 -0.4301 -0.5614 -0.4087
   7823SM   O1410278   0.159   6.033   9.663  0.1182 -0.1290  0.2989
   7823SM   O1110279   0.207   6.270   9.619 -0.5284 -0.2507  0.2263
   7823SM   O1210280   0.200   6.180   9.865 -0.0031 -0.2191  0.5449
   7823SM   C1S10281   0.298   6.388   9.636 -0.1304  0.6634 -0.3945
   7823SM   H1S10282   0.395   6.366   9.684  0.3629  0.5172 -1.4341
   7823SM   H1T10283   0.256   6.467   9.701  2.2307  1.2951  0.4220
   7823SM    NF10284   0.420   6.549   9.498  0.6860  0.1920  0.4709
   7823SM   HNF10285   0.399   6.645   9.513 -0.2583 -0.0930  1.0546
   7823SM   C2S10286   0.305   6.456   9.497  0.0482 -0.2493  0.3476
   7823SM   H2S10287   0.327   6.380   9.419  1.2319  1.1010 -0.6776
   7823SM   C3S10288   0.166   6.517   9.461  0.0329 -0.7336  0.5804
   7823SM   H3S10289   0.154   6.593   9.542  1.7368 -1.5716  1.6621
   7823SM    O310290   0.052   6.434   9.484  0.0261  0.2055 -0.5606
   7823SM   HO310291   0.100   6.357   9.516  0.1674  0.4335 -0.2182
   7823SM   C4S10292   0.161   6.592   9.326  0.6263  0.3236 -1.0765
   7823SM   H4S10293   0.185   6.699   9.337 -0.8196  0.5136  0.6151
   7823SM   C5S10294   0.136   6.537   9.208 -0.0020  0.0592 -0.1803
   7823SM   H5S10295   0.117   6.429   9.194  0.4191  0.0052 -0.3328
   7823SM   C6S10296   0.139   6.609   9.076  0.4459  0.2905  0.0108
   7823SM   H6S10297   0.033   6.604   9.042  0.2602 -2.0964  0.7557
   7823SM   H6T10298   0.190   6.543   9.003 -1.1571  0.1631 -1.0539
   7823SM   C7S10299   0.179   6.758   9.085 -0.7144  0.5504 -0.7124
   7823SM   H7S10300   0.284   6.748   9.122 -1.5919 -1.7021  1.4802
   7823SM   H7T10301   0.108   6.800   9.160  1.0461  0.4719  1.0774
   7823SM   C8S10302   0.177   6.836   8.954 -0.0683 -0.3136 -0.1987
   7823SM   H8S10303   0.071   6.838   8.920  0.2978  1.2577 -1.3722
   7823SM   H8T10304   0.230   6.794   8.866 -0.4887  0.5714 -0.8871
   7823SM   C9S10305   0.213   6.983   8.961 -0.3478 -0.6972  0.4956
   7823SM   H9S10306   0.323   6.993   8.971 -0.3049  1.8268 -1.4023
   7823SM   H9T10307   0.170   7.018   9.057 -2.3881  0.5981 -0.8055
   7823SM  C10S10308   0.168   7.077   8.850  0.8210 -0.0611  0.5751
   7823SM  H10S10309   0.201   7.182   8.864  1.1840  0.1084 -1.3845
   7823SM  H10T10310   0.057   7.089   8.851  0.7975 -0.1872 -0.1152
   7823SM  C11S10311   0.202   7.040   8.709 -0.7892  0.0507  0.1632
   7823SM  H11S10312   0.204   6.930   8.696 -0.6871  0.0448  0.2280
   7823SM  H11T10313   0.311   7.054   8.696 -0.7181 -0.5493  0.0767
   7823SM  C12S10314   0.119   7.102   8.593  0.7109  0.2083 -0.2282
   7823SM  H12S10315   0.153   7.206   8.572 -0.6617  0.7998  0.3813
   7823SM  H12T10316   0.012   7.111   8.621  0.5002  2.1530 -1.4946
   7823SM  C13S10317   0.114   7.021   8.467 -0.1265 -0.1600  1.3836
   7823SM  H13S10318   0.051   6.931   8.485  1.6874 -2.0481 -1.1032
   7823SM  H13T10319   0.217   6.990   8.440 -1.0424 -0.7429 -1.9253
   7823SM  C14S10320   0.067   7.102   8.347  0.6099  0.5480  0.8656
   7823SM  H14S10321   0.124   7.197   8.338  0.2388  0.8478  1.6158
   7823SM  H14T10322  -0.038   7.131   8.371  0.1021 -1.0724  0.7384
   7823SM  C15S10323   0.053   7.032   8.210 -0.2902 -0.1843  0.0478
   7823SM  H15S10324  -0.039   7.056   8.151  0.5030 -2.7860 -2.5289
   7823SM  H15T10325   0.047   6.923   8.232  0.3757 -0.3972 -0.7476
   7823SM  C16S10326   0.176   7.064   8.121 -0.4379 -0.1548  0.4991
   7823SM  H16S10327   0.154   7.015   8.024  0.6284  2.5590 -1.2270
   7823SM  H16T10328   0.273   7.027   8.159 -0.8901 -0.0345  1.8476
   7823SM  C17S10329   0.185   7.211   8.076 -0.0679 -0.7239  0.3341
   7823SM  H17S10330   0.224   7.271   8.161 -0.1365  0.0052 -0.1372
   7823SM  H17T10331   0.089   7.258   8.047  0.0071 -1.3891 -1.1208
   7823SM  C18S10332   0.280   7.228   7.958  0.0066  0.0966 -0.2219
   7823SM  H18S10333   0.378   7.182   7.985 -0.5558 -0.9729  0.0884
   7823SM  H18T10334   0.299   7.337   7.946 -1.2163  0.4301  0.7634
   7823SM  H18U10335   0.253   7.166   7.870  1.0929  0.0344 -0.5230
   7823SM   C1F10336   0.545   6.512   9.496 -0.2925  0.7003 -0.2597
   7823SM    OF10337   0.571   6.389   9.486  0.0147 -0.2022  0.2834
   7823SM   C2F10338   0.650   6.619   9.495 -0.6072  0.3579 -0.3159
   7823SM   H2F10339   0.647   6.702   9.570 -1.5937  1.4223 -1.4788
   7823SM   H2G10340   0.636   6.660   9.392  0.2034 -0.6372 -0.8312
   7823SM   C3F10341   0.790   6.552   9.494  0.1687  0.5229 -0.9799
   7823SM   H3F10342   0.799   6.485   9.582  0.0656  2.4094  0.5294
   7823SM   H3G10343   0.874   6.624   9.507  1.8987 -1.7198  1.4576
   7823SM   C4F10344   0.832   6.486   9.367  0.7019  0.1022 -0.5095
   7823SM   H4F10345   0.812   6.551   9.279  0.1941 -0.2791 -0.6763
   7823SM   H4G10346   0.767   6.396   9.357  0.9179  0.1104 -2.3178
   7823SM   C5F10347   0.974   6.432   9.371  0.5359  0.8526 -0.4632
   7823SM   H5F10348   0.991   6.358   9.452  1.3119  0.1310 -1.2565
   7823SM   H5G10349   1.039   6.521   9.377  1.0361  0.3946  2.4285
   7823SM   C6F10350   1.012   6.335   9.260 -0.3721 -0.2666  0.3722
   7823SM   H6F10351   0.955   6.362   9.168 -0.3567 -1.3139  0.0480
   7823SM   H6G10352   0.980   6.230   9.275 -1.7171  0.3375  2.1715
   7823SM   C7F10353   1.163   6.336   9.248  0.4678  0.1440 -0.2821
   7823SM   H7F10354   1.223   6.270   9.315  1.3820  1.4104  0.1879
   7823SM   H7G10355   1.206   6.437   9.266 -1.9272  0.9190  1.7321
   7823SM   C8F10356   1.198   6.307   9.098  0.4735 -0.2412 -0.9388
   7823SM   H8F10357   1.304   6.337   9.083  1.1463 -2.4884 -1.0485
   7823SM   H8G10358   1.142   6.389   9.048 -0.5052 -1.2832 -1.6030
   7823SM   C9F10359   1.144   6.178   9.035 -0.2643 -0.1264 -0.2175
   7823SM   H9F10360   1.041   6.177   9.079  0.1892 -1.0357  0.8788
   7823SM   H9G10361   1.209   6.097   9.074  0.9770  0.4987 -0.9304
   7823SM  C10F10362   1.138   6.187   8.886 -1.0346  0.4201 -0.1057
   7823SM  H10F10363   1.242   6.206   8.854 -1.1125 -0.3557 -0.8780
   7823SM  H10G10364   1.084   6.278   8.851  1.1394  1.5722 -0.6740
   7823SM  C11F10365   1.093   6.064   8.821  0.0333 -0.3954 -0.5511
   7823SM  H11F10366   1.155   5.982   8.862  0.3332 -0.0581 -0.3141
   7823SM  H11G10367   1.111   6.056   8.712  0.5436 -2.9223 -0.3491
   7823SM  C12F10368   0.944   6.045   8.836 -0.5599 -0.4459  0.0725
   7823SM  H12F10369   0.914   6.088   8.933 -1.9849  0.4795 -0.7438
   7823SM  H12G10370   0.912   5.938   8.835 -3.9403  0.4673  1.1199
   7823SM  C13F10371   0.869   6.120   8.721 -0.4656 -0.2652 -0.0306
   7823SM  H13F10372   0.874   6.055   8.631 -2.2892 -0.8666  0.2584
   7823SM  H13G10373   0.920   6.217   8.704  0.4797 -0.9827 -1.4852
   7823SM  C14F10374   0.717   6.156   8.736  0.3399  0.4838  0.4228
   7823SM  H14F10375   0.680   6.223   8.656 -3.0780 -0.8945  0.6843
   7823SM  H14G10376   0.692   6.193   8.838 -1.7789 -1.8706  0.8661
   7823SM  C15F10377   0.630   6.032   8.710  0.6506  0.2608  0.4294
   7823SM  H15F10378   0.645   5.938   8.766 -1.9961 -0.0573  0.7545
   7823SM  H15G10379   0.674   5.998   8.614 -0.4630  0.3459 -0.1292
   7823SM  C16F10380   0.485   6.059   8.676  0.2844  0.0699  0.4044
   7823SM  H16F10381   0.447   5.984   8.602 -2.6181  0.2831  1.5586
   7823SM  H16G10382   0.486   6.153   8.617  0.7268  0.0859  0.4343
   7823SM  C17F10383   0.399   6.068   8.797 -0.5805 -0.0267  0.8216
   7823SM  H17F10384   0.440   6.148   8.863  1.0171  0.6922 -0.9231
   7823SM  H17G10385   0.396   5.969   8.847 -0.9115  0.0019  0.8617
   7823SM  C18F10386   0.253   6.127   8.768 -0.1213  0.0043  0.3646
   7823SM  H18F10387   0.199   6.051   8.708 -0.4135 -0.0708  0.7235
   7823SM  H18G10388   0.264   6.217   8.704  0.9964  0.5210  1.2521
   7823SM  C19F10389   0.161   6.164   8.886 -0.3261  0.0303 -0.1755
   7823SM  H19F10390   0.217   6.218   8.965  1.4031  0.3688 -1.5854
   7823SM  H19G10391   0.123   6.066   8.924 -0.7782  0.4392  0.4416
   7823SM  C20F10392   0.042   6.253   8.844 -0.5559  0.1443  0.2828
   7823SM  H20F10393  -0.020   6.203   8.766  1.0896 -1.1834 -0.2530
   7823SM  H20G10394   0.073   6.347   8.793 -0.7148 -1.0327 -2.1549
   7823SM  C21F10395  -0.049   6.295   8.956 -0.7043  0.4167  0.0464
   7823SM  H21F10396  -0.112   6.386   8.938 -2.1984 -0.5097  0.4126
   7823SM  H21G10397   0.011   6.318   9.047  1.1259 -0.5199 -0.8674
   7823SM  C22F10398  -0.151   6.189   8.993  0.3623  0.1144  0.8064
   7823SM  H22F10399  -0.091   6.096   8.984  1.5872  0.9926 -0.7698
   7823SM  H22G10400  -0.222   6.183   8.908 -0.9547  0.3781  1.8477
   7823SM  C23F10401  -0.219   6.207   9.130  0.5867 -0.0741  0.1863
   7823SM  H23F10402  -0.137   6.196   9.205  2.9944 -0.0738 -2.2788
   7823SM  H23G10403  -0.291   6.125   9.150 -0.7592  1.3416  1.4042
   7823SM  H23H10404  -0.268   6.306   9.135  0.4207 -0.0662 -1.1209
   7923SM     N10405   7.011   0.893   9.470  0.6733 -0.2177  0.3030
   7923SM   C1510406   6.984   0.762   9.531  0.0771  0.3721 -0.8764
   7923SM  H15A10407   6.888   0.755   9.582  0.0202 -1.3452 -1.1493
   7923SM  H15B10408   7.053   0.746   9.612 -0.7305  2.7642  0.3788
   7923SM  H15C10409   6.983   0.683   9.458  0.1754 -0.1659 -0.3075
   7923SM   C1410410   6.899   0.935   9.383  0.1314 -0.4436 -0.3037
   7923SM  H14A10411   6.912   1.041   9.369 -3.2258  0.4694  2.2633
   7923SM  H14B10412   6.807   0.918   9.437  0.8725 -0.8744  0.8632
   7923SM  H14C10413   6.892   0.877   9.292  2.7397 -1.5716  0.1129
   7923SM   C1310414   7.013   0.989   9.587  0.2691 -0.2643  0.5254
   7923SM  H13A10415   6.930   0.976   9.655 -1.4235  1.1609 -1.1588
   7923SM  H13B10416   7.009   1.091   9.553  2.1945 -0.7409 -1.3610
   7923SM  H13C10417   7.107   0.983   9.640  0.6103  1.8797  0.2517
   7923SM   C1210418   7.138   0.885   9.390 -0.5653  0.4716 -0.4937
   7923SM  H12A10419   7.226   0.896   9.451 -0.0590 -0.8628 -0.9530
   7923SM  H12B10420   7.138   0.971   9.325 -1.8837 -1.5756 -3.4213
   7923SM   C1110421   7.163   0.762   9.292 -0.0220 -0.1938 -0.5688
   7923SM  H11A10422   7.260   0.781   9.242  2.4282 -1.9106  3.1549
   7923SM  H11B10423   7.070   0.761   9.231 -1.9539  1.9498  2.0486
   7923SM     P10424   7.313   0.601   9.438 -0.4041  0.2690 -0.0729
   7923SM   O1310425   7.365   0.723   9.507 -0.4498  1.1479 -0.9421
   7923SM   O1410426   7.291   0.470   9.510  0.3861 -0.1523 -0.3803
   7923SM   O1110427   7.404   0.583   9.317 -0.2482 -0.4426 -0.3602
   7923SM   O1210428   7.178   0.632   9.359 -0.2482 -0.1080 -0.3409
   7923SM   C1S10429   7.430   0.462   9.250 -0.5077 -0.5988  0.1378
   7923SM   H1S10430   7.351   0.385   9.266 -1.6211 -0.0760 -2.3653
   7923SM   H1T10431   7.530   0.424   9.279 -2.3060 -3.4990  3.4433
   7923SM    NF10432   7.435   0.351   9.029 -0.1825 -0.2068 -0.0604
   7923SM   HNF10433   7.526   0.321   9.004  0.3988  0.9632  0.5776
   7923SM   C2S10434   7.429   0.490   9.096 -0.1596  0.4387  0.0614
   7923SM   H2S10435   7.332   0.538   9.071 -1.3196 -1.9647 -0.4103
   7923SM   C3S10436   7.536   0.596   9.057  0.2592  0.3098 -0.6252
   7923SM   H3S10437   7.635   0.546   9.064 -0.3551 -0.6982  1.2965
   7923SM    O310438   7.533   0.717   9.127 -0.2804  0.0262 -0.2572
   7923SM   HO310439   7.488   0.697   9.209 -1.4418  0.0356 -0.8703
   7923SM   C4S10440   7.516   0.638   8.904  0.2903  0.5323 -1.1336
   7923SM   H4S10441   7.582   0.577   8.841 -1.1877  0.3788 -2.6375
   7923SM   C5S10442   7.430   0.725   8.854 -0.6170  0.0340  0.6252
   7923SM   H5S10443   7.364   0.785   8.920 -1.6100  0.3357 -0.5994
   7923SM   C6S10444   7.396   0.745   8.711 -0.8181 -0.2558 -0.1100
   7923SM   H6S10445   7.290   0.710   8.706 -0.8266 -0.1985 -0.3358
   7923SM   H6T10446   7.462   0.683   8.646 -2.1203  0.0494 -1.8074
   7923SM   C7S10447   7.413   0.890   8.662  0.2591  0.2759  1.3458
   7923SM   H7S10448   7.517   0.922   8.687  0.3069  0.3953  0.9931
   7923SM   H7T10449   7.342   0.955   8.718 -0.0486 -0.2470  1.5711
   7923SM   C8S10450   7.393   0.907   8.509 -0.4471 -0.4367 -0.1323
   7923SM   H8S10451   7.454   0.833   8.453 -0.3481  0.0886 -0.7228
   7923SM   H8T10452   7.427   1.007   8.474  0.6740 -0.9575 -0.5860
   7923SM   C9S10453   7.249   0.895   8.461  0.9318 -0.0935  0.4066
   7923SM   H9S10454   7.210   0.799   8.501  2.3300  0.0122  2.1886
   7923SM   H9T10455   7.236   0.884   8.351 -1.7884 -1.7615  0.8067
   7923SM  C10S10456   7.163   1.014   8.500 -0.1598  0.3399 -0.3928
   7923SM  H10S10457   7.208   1.102   8.450  1.0142  0.1296  0.2512
   7923SM  H10T10458   7.156   1.014   8.611 -2.6626 -2.0856 -0.4419
   7923SM  C11S10459   7.013   0.995   8.472  0.3093  0.3708  0.4944
   7923SM  H11S10460   6.995   1.024   8.366  0.8830  0.6713  0.4798
   7923SM  H11T10461   6.952   1.076   8.517 -0.8333 -0.2533  0.1283
   7923SM  C12S10462   6.948   0.863   8.508  0.4124  0.0913  0.0095
   7923SM  H12S10463   6.960   0.853   8.618  1.7848  1.2819 -0.0047
   7923SM  H12T10464   7.003   0.782   8.455 -1.6775 -1.3242 -0.1526
   7923SM  C13S10465   6.799   0.854   8.462 -0.8999  0.9257  0.3208
   7923SM  H13S10466   6.797   0.857   8.351 -0.3439  0.5900  0.2964
   7923SM  H13T10467   6.755   0.942   8.513 -0.5073 -1.0294  4.4543
   7923SM  C14S10468   6.720   0.721   8.491  0.1957  1.3035  0.3562
   7923SM  H14S10469   6.795   0.643   8.465  1.0454  2.9202 -2.4249
   7923SM  H14T10470   6.624   0.720   8.435 -1.5092  0.7860  3.0868
   7923SM  C15S10471   6.682   0.712   8.639  0.2491 -0.1915 -0.4556
   7923SM  H15S10472   6.604   0.787   8.664  1.0148  0.4412  0.1097
   7923SM  H15T10473   6.777   0.744   8.688 -0.7099  0.3723  1.1293
   7923SM  C16S10474   6.644   0.572   8.699 -0.3328  0.1776 -0.0612
   7923SM  H16S10475   6.730   0.504   8.718  0.8363  1.7040  0.3908
   7923SM  H16T10476   6.576   0.522   8.627  0.4361  0.0224 -0.6953
   7923SM  C17S10477   6.582   0.586   8.842 -0.1537  0.9772  0.3422
   7923SM  H17S10478   6.544   0.484   8.865  1.6025 -0.0495 -0.9474
   7923SM  H17T10479   6.495   0.654   8.832 -1.0087 -0.2177 -0.7310
   7923SM  C18S10480   6.666   0.623   8.957 -0.3633 -0.4875 -0.1144
   7923SM  H18S10481   6.712   0.530   8.998  0.5619  0.0414  0.0685
   7923SM  H18T10482   6.614   0.676   9.040  0.7613  1.7678 -0.7738
   7923SM  H18U10483   6.748   0.685   8.916  1.7989 -2.6945  0.6029
   7923SM   C1F10484   7.325   0.281   9.002  0.1093  0.1224 -0.1896
   7923SM    OF10485   7.210   0.322   9.034  0.0770  0.4509  0.2102
   7923SM   C2F10486   7.352   0.141   8.954  0.0739  0.0237 -0.4912
   7923SM   H2F10487   7.401   0.088   9.039  0.6046  2.2299  0.6538
   7923SM   H2G10488   7.422   0.151   8.869 -0.5181  3.3582 -0.7283
   7923SM   C3F10489   7.235   0.060   8.894  0.4362  0.3310 -0.0586
   7923SM   H3F10490   7.193   0.134   8.822  0.5242  0.8898  0.4543
   7923SM   H3G10491   7.152   0.050   8.968  0.4279  1.4288  0.0975
   7923SM   C4F10492   7.266  -0.075   8.821 -0.2213 -0.0194 -0.5005
   7923SM   H4F10493   7.317  -0.147   8.888 -0.6126 -0.7870 -1.0162
   7923SM   H4G10494   7.327  -0.057   8.730  0.0398 -3.5679 -1.1553
   7923SM   C5F10495   7.139  -0.147   8.777 -0.3075  0.8643 -0.5717
   7923SM   H5F10496   7.087  -0.101   8.690 -0.6447  0.1720 -0.7464
   7923SM   H5G10497   7.063  -0.159   8.857 -0.2901  1.0533 -0.5261
   7923SM   C6F10498   7.172  -0.290   8.725 -0.2188 -0.0932  0.6053
   7923SM   H6F10499   7.236  -0.346   8.796  0.0773 -1.5636 -0.7713
   7923SM   H6G10500   7.238  -0.290   8.636 -0.4405 -1.9716  0.4051
   7923SM   C7F10501   7.047  -0.365   8.697  0.0132  0.4733 -0.1452
   7923SM   H7F10502   6.988  -0.313   8.619  2.5302  0.2350 -2.3571
   7923SM   H7G10503   6.974  -0.385   8.778 -0.0933 -1.8148 -0.7496
   7923SM   C8F10504   7.074  -0.502   8.631 -0.1126 -0.4696  0.1234
   7923SM   H8F10505   7.100  -0.578   8.708 -0.3117 -2.0428 -1.3040
   7923SM   H8G10506   7.155  -0.487   8.557  0.3110 -1.3311  0.4005
   7923SM   C9F10507   6.966  -0.567   8.541 -0.7330  0.9948  0.2067
   7923SM   H9F10508   7.005  -0.668   8.515 -0.4467  1.6857 -2.3730
   7923SM   H9G10509   6.947  -0.519   8.443 -0.7161 -2.3281 -1.5849
   7923SM  C10F10510   6.825  -0.566   8.617  0.0013 -0.7977  0.5899
   7923SM  H10F10511   6.808  -0.457   8.631 -0.1255 -0.5046 -1.5499
   7923SM  H10G10512   6.858  -0.618   8.710  0.5137 -1.3444  0.1087
   7923SM  C11F10513   6.700  -0.627   8.545  0.2691  0.3167  0.0846
   7923SM  H11F10514   6.727  -0.724   8.499 -0.4158  0.5897 -0.8993
   7923SM  H11G10515   6.678  -0.564   8.457  1.5209 -0.8431 -1.1031
   7923SM  C12F10516   6.581  -0.654   8.638 -0.4278 -0.2974  0.0991
   7923SM  H12F10517   6.549  -0.555   8.675 -0.3325  0.5853 -2.0254
   7923SM  H12G10518   6.630  -0.707   8.723 -1.7345  0.3394  1.2779
   7923SM  C13F10519   6.466  -0.749   8.590 -0.7047  0.1753  0.2091
   7923SM  H13F10520   6.393  -0.758   8.673 -3.0110 -0.5700 -1.7644
   7923SM  H13G10521   6.503  -0.848   8.554 -2.1727  0.1366 -1.3404
   7923SM  C14F10522   6.380  -0.683   8.477 -0.0501 -0.2687  0.8139
   7923SM  H14F10523   6.432  -0.659   8.382 -3.2860  0.6880 -0.8293
   7923SM  H14G10524   6.353  -0.587   8.525  1.3004 -0.8804  3.0188
   7923SM  C15F10525   6.239  -0.740   8.442  0.0953  0.0588 -0.3597
   7923SM  H15F10526   6.180  -0.750   8.535 -2.0742  2.7268 -1.2925
   7923SM  H15G10527   6.247  -0.839   8.392 -1.8749  0.7937 -2.3377
   7923SM  C16F10528   6.149  -0.663   8.348  0.1490 -0.0208  0.0307
   7923SM  H16F10529   6.192  -0.673   8.246 -0.2919 -0.3850 -0.1245
   7923SM  H16G10530   6.135  -0.558   8.381 -2.1734 -0.0463 -0.7047
   7923SM  C17F10531   6.008  -0.721   8.342 -0.1469  0.5919  0.0163
   7923SM  H17F10532   5.954  -0.701   8.437  0.1248 -1.3375  0.6183
   7923SM  H17G10533   6.013  -0.830   8.323  1.2700  0.7301 -0.5043
   7923SM  C18F10534   5.935  -0.661   8.223 -0.5946  0.5378  0.3164
   7923SM  H18F10535   5.998  -0.688   8.135  0.0143  1.7507  0.3435
   7923SM  H18G10536   5.934  -0.549   8.219 -3.6252  0.5745 -0.8083
   7923SM  C19F10537   5.795  -0.716   8.195  0.2352  0.1630  0.8630
   7923SM  H19F10538   5.741  -0.661   8.274  1.2254  0.8745  1.0691
   7923SM  H19G10539   5.796  -0.827   8.204  0.4294 -0.1767 -2.3102
   7923SM  C20F10540   5.731  -0.673   8.062  0.4951  0.2947  0.1326
   7923SM  H20F10541   5.794  -0.725   7.987  0.7040 -1.6715  1.5769
   7923SM  H20G10542   5.722  -0.563   8.054 -1.2571  0.2031  0.5715
   7923SM  C21F10543   5.588  -0.716   8.031  1.0015 -0.2454  0.1386
   7923SM  H21F10544   5.534  -0.683   8.122  2.7652 -0.2046  1.2130
   7923SM  H21G10545   5.570  -0.825   8.029  0.2465 -0.1380 -2.0983
   7923SM  C22F10546   5.541  -0.650   7.901  0.4058 -0.4615 -0.2175
   7923SM  H22F10547   5.598  -0.690   7.814  0.8039 -0.7312  0.1655
   7923SM  H22G10548   5.560  -0.541   7.913 -1.8138 -0.0346 -0.0889
   7923SM  C23F10549   5.392  -0.666   7.867  0.7959  0.1550  0.0268
   7923SM  H23F10550   5.366  -0.626   7.767 -0.9350 -2.0752 -0.4659
   7923SM  H23G10551   5.324  -0.614   7.938  0.8594  1.0336 -0.5340
   7923SM  H23H10552   5.365  -0.773   7.859  0.4506  0.2294  0.1748
   8023SM     N10553   0.473   8.932   9.319 -0.2680 -0.5133  0.6676
   8023SM   C1510554   0.355   8.843   9.283  0.1996 -0.4016 -0.9295
   8023SM  H15A10555   0.346   8.818   9.178 -0.1691  0.3597 -1.0853
   8023SM  H15B10556   0.267   8.904   9.300  0.3836 -0.3320 -0.1776
   8023SM  H15C10557   0.339   8.761   9.351  1.0183  1.7144  1.9866
   8023SM   C1410558   0.447   8.994   9.453 -0.4977 -0.2604  0.5413
   8023SM  H14A10559   0.526   9.060   9.484 -0.7008  0.1807  0.1406
   8023SM  H14B10560   0.429   8.917   9.526 -0.4265 -1.6791 -0.8568
   8023SM  H14C10561   0.356   9.052   9.441 -0.6039 -0.6902 -0.9081
   8023SM   C1310562   0.599   8.857   9.326 -0.1073  0.8862 -0.7329
   8023SM  H13A10563   0.639   8.815   9.235 -1.1121 -1.3122 -0.2258
   8023SM  H13B10564   0.585   8.771   9.390 -2.0642  0.7979 -1.2070
   8023SM  H13C10565   0.675   8.922   9.365 -0.1992  1.1319 -0.9622
   8023SM   C1210566   0.484   9.045   9.217  0.4395  0.6684 -0.1909
   8023SM  H12A10567   0.526   9.008   9.125 -0.8117 -2.2498  0.2732
   8023SM  H12B10568   0.553   9.120   9.252 -0.5344  1.0624  0.9480
   8023SM   C1110569   0.359   9.115   9.173  0.6493  0.3633  0.7778
   8023SM  H11A10570   0.280   9.046   9.135  1.4705 -0.4211  0.4454
   8023SM  H11B10571   0.387   9.190   9.096 -1.5576  0.0048 -0.4839
   8023SM     P10572   0.157   9.241   9.269 -0.1879 -0.2895  0.4279
   8023SM   O1310573   0.066   9.161   9.352 -0.2219 -0.0417  0.0049
   8023SM   O1410574   0.154   9.385   9.304 -0.3356  0.0955  0.1794
   8023SM   O1110575   0.115   9.243   9.118 -0.2366 -0.0013  0.5518
   8023SM   O1210576   0.306   9.184   9.287 -0.6026 -0.2345  0.5720
   8023SM   C1S10577   0.168   9.346   9.028  0.4330 -0.6983 -0.6591
   8023SM   H1S10578   0.261   9.391   9.069 -0.2300 -1.1139  1.4177
   8023SM   H1T10579   0.097   9.432   9.024 -0.3334 -1.2929 -0.0136
   8023SM    NF10580   0.288   9.376   8.806  0.0222  0.3717 -0.2584
   8023SM   HNF10581   0.250   9.410   8.721  0.2684  1.3777  0.0296
   8023SM   C2S10582   0.200   9.290   8.887  0.0141  0.0151  0.0061
   8023SM   H2S10583   0.258   9.201   8.920 -1.0130  0.6148  4.0277
   8023SM   C3S10584   0.074   9.244   8.803 -0.0464 -0.2163 -0.3547
   8023SM   H3S10585   0.022   9.333   8.763 -0.5879 -0.5052 -0.3087
   8023SM    O310586  -0.016   9.173   8.884  0.1227  0.1208  0.2648
   8023SM   HO310587   0.017   9.193   8.971  0.9580 -0.3429  0.0668
   8023SM   C4S10588   0.120   9.148   8.704  0.4126 -0.6957 -0.3122
   8023SM   H4S10589   0.162   9.056   8.747 -0.3741 -0.0666  1.9645
   8023SM   C5S10590   0.116   9.158   8.569  0.4626 -0.4802 -0.5871
   8023SM   H5S10591   0.075   9.248   8.522  0.0620 -1.1113 -1.4904
   8023SM   C6S10592   0.164   9.050   8.480 -0.7516 -0.1687  0.3476
   8023SM   H6S10593   0.091   9.053   8.397  0.2354  1.2104 -0.5006
   8023SM   H6T10594   0.170   8.953   8.535 -1.1968 -0.5745 -0.3049
   8023SM   C7S10595   0.295   9.073   8.412  0.5632 -0.6845 -0.4788
   8023SM   H7S10596   0.371   9.116   8.481  1.2051  1.0986 -2.1868
   8023SM   H7T10597   0.285   9.137   8.322  0.9949 -0.7463 -0.5742
   8023SM   C8S10598   0.358   8.943   8.356 -0.0280 -0.4524  0.4404
   8023SM   H8S10599   0.400   8.958   8.254 -2.5141  0.7030 -0.4785
   8023SM   H8T10600   0.276   8.869   8.348 -0.7758  0.2026  1.8762
   8023SM   C9S10601   0.477   8.893   8.453 -0.5229 -0.2827  0.4108
   8023SM   H9S10602   0.549   8.975   8.475 -0.0766 -0.1467 -1.4251
   8023SM   H9T10603   0.516   8.805   8.398 -0.2327 -1.8040  2.8713
   8023SM  C10S10604   0.439   8.830   8.583 -0.9167  0.8393  0.9812
   8023SM  H10S10605   0.359   8.761   8.549  0.9595 -0.6492 -0.5598
   8023SM  H10T10606   0.393   8.898   8.659  0.2584  0.7749  1.7692
   8023SM  C11S10607   0.549   8.752   8.647 -0.2410 -0.3544  0.4617
   8023SM  H11S10608   0.593   8.672   8.584  4.3396  1.1443  1.4399
   8023SM  H11T10609   0.499   8.708   8.736  0.0675  2.0135  1.8629
   8023SM  C12S10610   0.663   8.842   8.697 -0.4341  0.2332 -0.5315
   8023SM  H12S10611   0.618   8.937   8.731 -0.5907 -0.1268  0.2779
   8023SM  H12T10612   0.734   8.859   8.613  0.6609 -2.8628 -0.3450
   8023SM  C13S10613   0.743   8.774   8.808 -0.2649 -0.2496 -0.1226
   8023SM  H13S10614   0.766   8.668   8.782  0.6403 -0.2691  0.7228
   8023SM  H13T10615   0.675   8.760   8.894  0.6266 -1.6405  0.3868
   8023SM  C14S10616   0.867   8.844   8.854 -0.4485 -0.6791 -0.4277
   8023SM  H14S10617   0.920   8.782   8.929  1.9512  1.9947  0.2883
   8023SM  H14T10618   0.845   8.938   8.910  2.0395  0.3866 -1.0938
   8023SM  C15S10619   0.970   8.889   8.744  0.6224 -0.3941  0.3709
   8023SM  H15S10620   0.928   8.950   8.662  1.0206 -2.5690 -1.5655
   8023SM  H15T10621   1.004   8.795   8.695  1.5747  0.3233 -0.3879
   8023SM  C16S10622   1.094   8.941   8.805  0.7552  0.2262  0.3013
   8023SM  H16S10623   1.133   8.866   8.876 -0.2600  0.1456  0.7882
   8023SM  H16T10624   1.079   9.038   8.857 -1.5224 -0.3357  0.7947
   8023SM  C17S10625   1.199   8.960   8.693 -0.0355 -0.5831  0.2159
   8023SM  H17S10626   1.148   9.018   8.612 -1.4269 -1.5394  0.3738
   8023SM  H17T10627   1.217   8.868   8.633 -0.6752  1.8662 -4.2172
   8023SM  C18S10628   1.328   9.021   8.740 -0.1736 -0.2172  0.3438
   8023SM  H18S10629   1.309   9.111   8.804  0.0947 -0.2737  0.5054
   8023SM  H18T10630   1.386   9.061   8.654 -1.4528 -0.7024 -0.7756
   8023SM  H18U10631   1.391   8.953   8.801  1.7836  1.9722  0.9559
   8023SM   C1F10632   0.408   9.415   8.851 -0.1227 -0.1612 -0.3543
   8023SM    OF10633   0.463   9.343   8.934 -0.2450 -0.7871 -1.0795
   8023SM   C2F10634   0.465   9.536   8.788  0.2287 -0.9460 -0.1690
   8023SM   H2F10635   0.452   9.623   8.856  0.0593 -0.4199 -0.8618
   8023SM   H2G10636   0.420   9.542   8.687  0.6460 -0.7762 -0.3486
   8023SM   C3F10637   0.618   9.525   8.779 -0.5814 -0.5132  0.1681
   8023SM   H3F10638   0.628   9.428   8.726  2.2231 -0.5673  0.6475
   8023SM   H3G10639   0.668   9.513   8.878  0.0719 -2.5949 -0.3616
   8023SM   C4F10640   0.690   9.639   8.703 -0.0205  0.1705 -0.1529
   8023SM   H4F10641   0.639   9.658   8.606  1.0348 -1.4631 -1.0672
   8023SM   H4G10642   0.790   9.600   8.674  0.2338  0.6059  0.1320
   8023SM   C5F10643   0.712   9.766   8.792 -0.1641  0.2169  0.3025
   8023SM   H5F10644   0.757   9.733   8.888 -1.2307 -0.5534  0.5601
   8023SM   H5G10645   0.616   9.818   8.817  0.1505  1.4108 -0.8651
   8023SM   C6F10646   0.806   9.861   8.719 -0.0779  0.5468 -0.4692
   8023SM   H6F10647   0.810   9.951   8.784  0.9888 -0.3299  0.7223
   8023SM   H6G10648   0.764   9.880   8.618  0.0929 -2.2163 -1.1340
   8023SM   C7F10649   0.947   9.811   8.694  0.6433  0.1606  0.4011
   8023SM   H7F10650   1.010   9.896   8.657 -0.0160  0.6401  0.3696
   8023SM   H7G10651   0.931   9.748   8.603 -2.4077  2.4453 -0.8245
   8023SM   C8F10652   1.014   9.726   8.804  0.0919 -0.6207  0.0806
   8023SM   H8F10653   0.964   9.628   8.819 -0.8596 -0.1672 -0.0548
   8023SM   H8G10654   1.019   9.776   8.903 -2.7629 -1.2205  0.6208
   8023SM   C9F10655   1.160   9.693   8.775 -0.1625  0.3156 -0.3372
   8023SM   H9F10656   1.193   9.662   8.877 -3.0668  0.5977  0.7797
   8023SM   H9G10657   1.211   9.786   8.744  2.0456 -0.9982 -0.9362
   8023SM  C10F10658   1.173   9.581   8.673 -0.4295 -0.3885 -0.2803
   8023SM  H10F10659   1.127   9.622   8.580  0.6683  0.1581 -0.5997
   8023SM  H10G10660   1.103   9.501   8.706 -1.9815  0.7715 -0.6539
   8023SM  C11F10661   1.310   9.550   8.633  0.0601  0.0195 -0.0623
   8023SM  H11F10662   1.364   9.552   8.730 -1.0543  2.9587  0.6202
   8023SM  H11G10663   1.348   9.631   8.568  2.1326 -1.4836 -0.8294
   8023SM  C12F10664   1.338   9.421   8.566 -0.3615 -0.2694 -0.7879
   8023SM  H12F10665   1.336   9.354   8.655  1.9751  0.6506  0.0527
   8023SM  H12G10666   1.444   9.430   8.532 -0.1273 -1.6368 -0.4865
   8023SM  C13F10667   1.240   9.374   8.467  0.1067  0.2918 -0.1604
   8023SM  H13F10668   1.166   9.451   8.440  0.0047 -0.4674 -2.2247
   8023SM  H13G10669   1.178   9.292   8.508 -1.0697  0.5729 -1.3381
   8023SM  C14F10670   1.311   9.319   8.345 -0.2803  0.7796  0.1119
   8023SM  H14F10671   1.249   9.252   8.281  0.7368 -1.6364  1.5221
   8023SM  H14G10672   1.394   9.254   8.381  0.5657  0.5567 -2.0771
   8023SM  C15F10673   1.379   9.425   8.258 -0.1035  0.5091  0.7315
   8023SM  H15F10674   1.410   9.524   8.299  0.8606  0.7580 -0.5314
   8023SM  H15G10675   1.292   9.458   8.198  1.3375  1.5496 -0.8783
   8023SM  C16F10676   1.487   9.370   8.163  0.1426 -0.3451  0.4167
   8023SM  H16F10677   1.428   9.292   8.109 -0.3784  1.2232 -1.4071
   8023SM  H16G10678   1.569   9.327   8.225  1.4136 -0.7366 -1.4130
   8023SM  C17F10679   1.523   9.478   8.059 -0.6245  0.2275  0.7079
   8023SM  H17F10680   1.569   9.566   8.108  3.7478 -2.2523  1.5801
   8023SM  H17G10681   1.433   9.522   8.011 -0.8399 -0.2206  0.6930
   8023SM  C18F10682   1.629   9.447   7.954  0.7623 -0.0884 -0.5767
   8023SM  H18F10683   1.706   9.390   8.011 -0.4969 -1.9253 -0.6286
   8023SM  H18G10684   1.675   9.540   7.915  1.5553 -0.2021  0.0622
   8023SM  C19F10685   1.575   9.364   7.833 -0.3357 -0.2568  0.4265
   8023SM  H19F10686   1.499   9.425   7.779  1.1652  0.0576 -1.4406
   8023SM  H19G10687   1.530   9.273   7.877  2.8724 -1.2968  1.8667
   8023SM  C20F10688   1.681   9.317   7.734  0.3222  0.4346 -1.0724
   8023SM  H20F10689   1.644   9.224   7.686  1.0710 -1.1615  1.2711
   8023SM  H20G10690   1.758   9.259   7.788  0.3825  1.3351 -0.1553
   8023SM  C21F10691   1.723   9.423   7.632  0.1392  0.3421  0.2878
   8023SM  H21F10692   1.770   9.370   7.546 -1.8488  1.8589 -1.8437
   8023SM  H21G10693   1.799   9.480   7.689 -0.4088  0.1132  1.2636
   8023SM  C22F10694   1.623   9.528   7.580 -0.4527  0.4013  0.2559
   8023SM  H22F10695   1.589   9.597   7.660  1.9530  0.6738  1.1110
   8023SM  H22G10696   1.530   9.478   7.544  0.3340 -1.3837  0.5610
   8023SM  C23F10697   1.682   9.616   7.469 -0.3571  0.6538  0.2139
   8023SM  H23F10698   1.712   9.557   7.379  1.1271  1.2239  0.2992
   8023SM  H23G10699   1.776   9.664   7.503 -0.2032 -0.9574  2.2053
   8023SM  H23H10700   1.612   9.697   7.440 -2.8824 -1.2274  0.7007
   8123SM     N10701   3.837   3.842   6.199  0.5043 -0.0261  0.6983
   8123SM   C1510702   3.886   3.732   6.102  0.1716  0.0173  0.0140
   8123SM  H15A10703   3.854   3.632   6.126  1.3334 -0.8317 -1.7696
   8123SM  H15B10704   3.991   3.731   6.123  0.3730 -3.2500 -0.6850
   8123SM  H15C10705   3.863   3.751   5.998 -0.1690  0.5808  0.1861
   8123SM   C1410706   3.893   3.979   6.158 -0.9498 -0.3525 -0.2648
   8123SM  H14A10707   3.840   4.066   6.194 -1.7407 -0.6412 -0.7112
   8123SM  H14B10708   3.900   3.992   6.051 -2.5321  3.0562 -0.0584
   8123SM  H14C10709   3.996   3.995   6.189  0.3763  1.1444 -4.6888
   8123SM   C1310710   3.692   3.861   6.173 -0.5994  0.2764  0.1291
   8123SM  H13A10711   3.672   3.893   6.072  1.7360  1.3377 -0.0574
   8123SM  H13B10712   3.655   3.936   6.241 -1.3759  1.2447 -1.3251
   8123SM  H13C10713   3.641   3.769   6.198  1.7427 -0.7762  1.4000
   8123SM   C1210714   3.883   3.821   6.347 -0.4280 -0.5978 -0.4907
   8123SM  H12A10715   3.865   3.719   6.376 -0.3174  0.0111  1.8780
   8123SM  H12B10716   3.825   3.879   6.417  0.9974  0.8952 -0.4761
   8123SM   C1110717   4.026   3.843   6.382  0.3172 -0.6708 -0.0618
   8123SM  H11A10718   4.035   3.833   6.492 -1.6867 -3.8543 -0.0594
   8123SM  H11B10719   4.054   3.945   6.348  1.3676 -1.2846 -1.1561
   8123SM     P10720   4.258   3.795   6.273  0.0237  0.1058  0.1814
   8123SM   O1310721   4.331   3.685   6.215 -0.5390  0.0778 -0.1861
   8123SM   O1410722   4.244   3.912   6.183  0.6594  0.0781  0.0919
   8123SM   O1110723   4.344   3.838   6.398 -0.5120 -0.0292 -0.0271
   8123SM   O1210724   4.114   3.749   6.322 -0.1028  0.1046 -0.1782
   8123SM   C1S10725   4.345   3.967   6.453  0.0768 -0.5801 -0.0407
   8123SM   H1S10726   4.242   4.009   6.453  0.1004 -0.3031  3.3378
   8123SM   H1T10727   4.407   4.032   6.387  0.5150  1.1433  1.9574
   8123SM    NF10728   4.381   4.101   6.662 -0.2200 -0.4082 -0.2748
   8123SM   HNF10729   4.461   4.160   6.669 -1.6253  1.5789 -0.2182
   8123SM   C2S10730   4.403   3.971   6.596 -0.0868 -0.2830 -0.1728
   8123SM   H2S10731   4.353   3.895   6.660 -1.1074  1.2067  0.8707
   8123SM   C3S10732   4.553   3.935   6.579 -0.1938 -0.4720  0.4116
   8123SM   H3S10733   4.596   4.003   6.502 -1.7672  0.2314  0.1309
   8123SM    O310734   4.583   3.808   6.519  0.4688  0.2325 -0.0647
   8123SM   HO310735   4.501   3.765   6.497  0.8273 -1.0058  0.9036
   8123SM   C4S10736   4.627   3.952   6.713  0.5013 -0.9747  0.4135
   8123SM   H4S10737   4.652   4.053   6.750 -0.8917 -0.9365  1.3478
   8123SM   C5S10738   4.632   3.846   6.794 -0.6347 -0.5821 -0.9925
   8123SM   H5S10739   4.582   3.752   6.767 -0.5050  0.0640 -3.6889
   8123SM   C6S10740   4.674   3.844   6.940 -0.5987  0.0293 -0.2461
   8123SM   H6S10741   4.739   3.928   6.972  0.1741 -1.0630  1.1773
   8123SM   H6T10742   4.744   3.759   6.955 -0.4758  0.1320 -0.2390
   8123SM   C7S10743   4.560   3.831   7.040  0.0188  0.3158  0.3872
   8123SM   H7S10744   4.589   3.823   7.148  1.7145 -0.4322 -0.0857
   8123SM   H7T10745   4.502   3.740   7.015  0.3062  0.2261  0.0419
   8123SM   C8S10746   4.452   3.940   7.041  0.5485 -0.2468 -0.3903
   8123SM   H8S10747   4.435   3.980   6.938 -0.2614 -1.4954 -0.7636
   8123SM   H8T10748   4.492   4.022   7.105 -0.7655  0.0397  0.0864
   8123SM   C9S10749   4.323   3.885   7.102  0.0999 -0.3485  0.3336
   8123SM   H9S10750   4.334   3.819   7.190  1.1143 -2.1146 -1.0618
   8123SM   H9T10751   4.273   3.839   7.014 -1.8458  0.2637  1.0498
   8123SM  C10S10752   4.216   3.997   7.147  0.4091 -0.2164 -0.3886
   8123SM  H10S10753   4.113   3.958   7.162  0.8757 -0.8854  1.1719
   8123SM  H10T10754   4.218   4.075   7.067 -0.3511  1.9398  1.5640
   8123SM  C11S10755   4.256   4.058   7.281  0.0703 -0.0689 -0.1032
   8123SM  H11S10756   4.357   4.104   7.291  0.8330 -2.0763  2.6053
   8123SM  H11T10757   4.262   3.977   7.357  0.5985 -0.3483 -0.4346
   8123SM  C12S10758   4.161   4.169   7.336 -0.1541 -0.8090 -0.9051
   8123SM  H12S10759   4.061   4.122   7.349  0.5717 -1.8999  1.1428
   8123SM  H12T10760   4.152   4.251   7.261 -1.0125  0.4221  0.4776
   8123SM  C13S10761   4.197   4.229   7.473  0.4208  0.0717 -0.0198
   8123SM  H13S10762   4.302   4.265   7.484  0.6054 -0.1506 -0.9761
   8123SM  H13T10763   4.178   4.148   7.547 -0.6296 -1.4601 -1.8723
   8123SM  C14S10764   4.103   4.340   7.521 -0.2445 -0.5348 -0.3476
   8123SM  H14S10765   4.000   4.298   7.522  0.2751 -1.8757  1.0042
   8123SM  H14T10766   4.115   4.425   7.451  2.6951 -1.5662 -1.2559
   8123SM  C15S10767   4.132   4.383   7.667 -0.7631 -0.6624  0.6324
   8123SM  H15S10768   4.238   4.414   7.675 -0.1218 -2.5124 -0.2457
   8123SM  H15T10769   4.128   4.298   7.738  0.6148  0.5154  2.1892
   8123SM  C16S10770   4.040   4.498   7.707 -0.3985 -0.1625  0.4125
   8123SM  H16S10771   3.968   4.526   7.628 -0.9158 -0.7588  0.6630
   8123SM  H16T10772   4.105   4.588   7.714 -0.0878 -0.2487 -1.1423
   8123SM  C17S10773   3.960   4.471   7.837 -0.5439 -0.1523  0.4529
   8123SM  H17S10774   4.030   4.429   7.913 -0.6459 -2.2902 -0.5637
   8123SM  H17T10775   3.889   4.392   7.804 -0.6888  0.9677 -2.1543
   8123SM  C18S10776   3.880   4.588   7.891 -0.0462 -0.2643 -0.7294
   8123SM  H18S10777   3.950   4.660   7.938 -0.9239 -0.9552  1.8170
   8123SM  H18T10778   3.805   4.557   7.967  2.5886 -1.8056  1.4339
   8123SM  H18U10779   3.829   4.629   7.801  0.2233  0.2820 -0.6375
   8123SM   C1F10780   4.263   4.155   6.693  0.2709 -0.1409  0.2437
   8123SM    OF10781   4.168   4.088   6.670  0.4467  0.3236 -1.0793
   8123SM   C2F10782   4.255   4.296   6.738 -0.1661 -0.8251  0.0106
   8123SM   H2F10783   4.236   4.374   6.661  2.0824 -0.5758 -0.3587
   8123SM   H2G10784   4.354   4.320   6.782  0.7058 -1.2811 -1.6163
   8123SM   C3F10785   4.157   4.317   6.856 -0.1997 -0.0749  0.0493
   8123SM   H3F10786   4.152   4.228   6.922 -3.8957  1.1447  1.6911
   8123SM   H3G10787   4.057   4.321   6.808 -0.6511  1.9963  1.0418
   8123SM   C4F10788   4.173   4.444   6.943  0.0954  0.1897 -0.6510
   8123SM   H4F10789   4.085   4.445   7.011 -1.6943 -2.2779 -2.7069
   8123SM   H4G10790   4.181   4.536   6.881  0.8172  0.9206  0.5008
   8123SM   C5F10791   4.302   4.441   7.016 -0.2251  0.3091 -0.6120
   8123SM   H5F10792   4.393   4.447   6.953  0.4139 -0.4514  0.2034
   8123SM   H5G10793   4.316   4.352   7.081  1.2321  1.4422  0.7345
   8123SM   C6F10794   4.309   4.553   7.119 -0.0153 -0.1077  0.3123
   8123SM   H6F10795   4.221   4.541   7.186 -1.7235  0.0154 -1.7724
   8123SM   H6G10796   4.284   4.650   7.071 -2.5931 -1.0557 -0.4765
   8123SM   C7F10797   4.439   4.548   7.201  0.1910  0.1182 -0.1047
   8123SM   H7F10798   4.517   4.587   7.133 -0.7264 -0.7680 -1.7352
   8123SM   H7G10799   4.464   4.450   7.246 -1.6329  0.5439  2.0277
   8123SM   C8F10800   4.423   4.646   7.320 -0.0215  0.2229 -0.3454
   8123SM   H8F10801   4.335   4.611   7.378  1.0444  1.0645  1.8978
   8123SM   H8G10802   4.394   4.748   7.286  0.4545  0.2465 -0.6844
   8123SM   C9F10803   4.534   4.658   7.425  0.3170  0.4747  0.1447
   8123SM   H9F10804   4.599   4.743   7.395  0.8765 -0.1329 -0.4042
   8123SM   H9G10805   4.586   4.559   7.426 -0.2295  0.0862 -2.2559
   8123SM  C10F10806   4.481   4.670   7.569  0.2843  0.5817 -0.0258
   8123SM  H10F10807   4.566   4.662   7.641 -1.8061  1.0555  2.6509
   8123SM  H10G10808   4.417   4.583   7.593  0.3791  0.6141  0.3437
   8123SM  C11F10809   4.419   4.805   7.602 -0.4583  0.8300 -0.3919
   8123SM  H11F10810   4.340   4.835   7.530  0.5499 -0.9174 -2.3276
   8123SM  H11G10811   4.502   4.879   7.602 -0.1674  0.6091  2.0867
   8123SM  C12F10812   4.347   4.792   7.739 -0.2405 -0.5208  0.2603
   8123SM  H12F10813   4.431   4.769   7.808  2.0400 -0.5981 -2.3702
   8123SM  H12G10814   4.274   4.709   7.729 -1.8234  0.9331 -0.7248
   8123SM  C13F10815   4.276   4.922   7.780 -1.0250  0.1952  0.8094
   8123SM  H13F10816   4.188   4.931   7.712  0.0766  1.0446 -0.5642
   8123SM  H13G10817   4.343   5.007   7.753 -0.1591 -0.6578  0.2384
   8123SM  C14F10818   4.243   4.937   7.926  0.3583 -0.8728  0.3791
   8123SM  H14F10819   4.338   4.918   7.980  1.5087  0.5144 -1.0643
   8123SM  H14G10820   4.166   4.861   7.954 -1.4986 -0.1180 -2.2933
   8123SM  C15F10821   4.188   5.075   7.964  0.2466  0.0464  0.2793
   8123SM  H15F10822   4.147   5.063   8.067  2.0919 -1.3379  0.8968
   8123SM  H15G10823   4.108   5.107   7.894  0.6158 -2.3808 -1.3649
   8123SM  C16F10824   4.291   5.194   7.962 -0.6025 -0.0446  0.0356
   8123SM  H16F10825   4.343   5.203   7.865 -1.6212  1.8638 -0.3881
   8123SM  H16G10826   4.371   5.170   8.036 -0.6424 -0.6080 -0.1028
   8123SM  C17F10827   4.236   5.331   8.007  0.4220  0.2728 -1.0317
   8123SM  H17F10828   4.194   5.324   8.110  0.4565 -1.9700 -1.1200
   8123SM  H17G10829   4.161   5.370   7.935 -1.0979  0.4104  0.5729
   8123SM  C18F10830   4.355   5.430   8.014  0.1838  0.2527 -0.3144
   8123SM  H18F10831   4.312   5.533   8.009  0.4591  0.4204  0.6220
   8123SM  H18G10832   4.421   5.427   7.925  0.0645 -0.1083 -0.3917
   8123SM  C19F10833   4.445   5.413   8.136 -0.2416  0.4027 -0.2210
   8123SM  H19F10834   4.504   5.320   8.125  0.1685  0.4849  1.0417
   8123SM  H19G10835   4.379   5.404   8.225  0.9518  0.1165  0.6613
   8123SM  C20F10836   4.537   5.534   8.166  0.6243 -0.7533  0.1743
   8123SM  H20F10837   4.472   5.613   8.210 -0.2538 -0.9940 -0.6731
   8123SM  H20G10838   4.562   5.574   8.065  1.8531 -2.4168 -0.2255
   8123SM  C21F10839   4.659   5.509   8.251  0.1671  0.7723 -0.0486
   8123SM  H21F10840   4.693   5.410   8.214  0.0664  1.0857 -0.9902
   8123SM  H21G10841   4.620   5.487   8.353  0.4370 -2.3145 -0.5222
   8123SM  C22F10842   4.761   5.623   8.269 -0.1480  1.0676  1.0387
   8123SM  H22F10843   4.764   5.675   8.171 -1.8611  0.0140  0.3771
   8123SM  H22G10844   4.860   5.574   8.282 -1.0355 -0.7933  1.2205
   8123SM  C23F10845   4.740   5.721   8.377  0.1234 -0.4955 -0.7440
   8123SM  H23F10846   4.648   5.782   8.363 -0.3626 -0.8013  0.9474
   8123SM  H23G10847   4.830   5.784   8.391  0.1224 -0.9277  1.5930
   8123SM  H23H10848   4.732   5.652   8.463 -0.1475 -0.7397 -0.9603
   8223SM     N10849   5.582   5.489   5.848 -0.7906  0.2349  0.0206
   8223SM   C1510850   5.575   5.574   5.731 -0.5588 -0.4990 -0.3233
   8223SM  H15A10851   5.637   5.663   5.731 -0.2253 -0.7327 -0.3695
   8223SM  H15B10852   5.474   5.604   5.705 -0.5461  2.9928  2.7637
   8223SM  H15C10853   5.623   5.522   5.650  0.6742  1.5287 -0.9711
   8223SM   C1410854   5.721   5.451   5.881 -0.0066  0.1015  0.3174
   8223SM  H14A10855   5.763   5.399   5.796 -2.5890 -1.6807  0.0301
   8223SM  H14B10856   5.743   5.397   5.972  2.5203 -0.6981 -0.6670
   8223SM  H14C10857   5.772   5.546   5.892 -2.0586  1.9498 -3.7367
   8223SM   C1310858   5.534   5.578   5.963  0.9518 -0.3271 -0.0327
   8223SM  H13A10859   5.545   5.534   6.060 -0.9335  1.3833  1.0239
   8223SM  H13B10860   5.430   5.603   5.952  1.1237  0.6798  0.5395
   8223SM  H13C10861   5.589   5.671   5.966  1.3317 -0.4106 -2.1656
   8223SM   C1210862   5.491   5.371   5.831 -0.0099 -1.0921  0.1088
   8223SM  H12A10863   5.525   5.316   5.745  0.1833 -0.4778 -0.2143
   8223SM  H12B10864   5.394   5.411   5.805 -0.4421 -0.9695  1.7849
   8223SM   C1110865   5.476   5.270   5.950 -0.5456 -0.1209  0.0122
   8223SM  H11A10866   5.458   5.331   6.041  0.7682 -0.0339  0.2370
   8223SM  H11B10867   5.574   5.218   5.960  0.3405  1.5586  0.3137
   8223SM     P10868   5.340   5.056   6.019  0.3483  0.0534  0.4111
   8223SM   O1310869   5.200   5.005   6.012  0.4898 -0.7467 -0.7372
   8223SM   O1410870   5.453   4.955   6.008 -0.1104 -0.5400  0.4812
   8223SM   O1110871   5.361   5.128   6.156  0.5974  0.0115  0.7638
   8223SM   O1210872   5.367   5.178   5.920 -0.4099  0.3286 -0.1619
   8223SM   C1S10873   5.295   5.082   6.276  0.1828 -0.1298 -0.0521
   8223SM   H1S10874   5.328   4.979   6.301  1.1917  0.5477  1.5441
   8223SM   H1T10875   5.185   5.076   6.262  0.1100  0.3738  0.2805
   8223SM    NF10876   5.237   5.136   6.506 -0.4328  0.2772 -0.5671
   8223SM   HNF10877   5.172   5.206   6.533  0.0706  0.1046  1.2028
   8223SM   C2S10878   5.325   5.180   6.400 -0.0003 -0.7537  0.8887
   8223SM   H2S10879   5.431   5.164   6.428 -0.0792 -2.0665  0.4892
   8223SM   C3S10880   5.285   5.326   6.369  0.0490 -0.1799  0.3195
   8223SM   H3S10881   5.177   5.338   6.344  0.3899  1.4396 -0.5435
   8223SM    O310882   5.353   5.368   6.252  0.2785 -0.2452  0.3814
   8223SM   HO310883   5.383   5.287   6.211  0.1882  1.0126 -2.4564
   8223SM   C4S10884   5.315   5.423   6.475 -0.1154 -0.2058 -0.4807
   8223SM   H4S10885   5.227   5.457   6.531 -0.6090 -1.9165 -0.1342
   8223SM   C5S10886   5.432   5.470   6.523 -0.1817  0.2492 -0.6452
   8223SM   H5S10887   5.532   5.432   6.498  0.5316  0.0185  2.1380
   8223SM   C6S10888   5.452   5.576   6.633  0.0878 -0.2174 -0.1395
   8223SM   H6S10889   5.534   5.640   6.591  0.5739 -0.7617 -0.0350
   8223SM   H6T10890   5.503   5.525   6.717  1.5328 -0.6555 -1.2305
   8223SM   C7S10891   5.319   5.647   6.666 -0.0788  0.1168  0.3619
   8223SM   H7S10892   5.243   5.581   6.713 -0.3522  1.1001  1.3560
   8223SM   H7T10893   5.287   5.713   6.582 -0.5053  1.3854  1.4724
   8223SM   C8S10894   5.326   5.746   6.788  0.4729 -0.3915  0.0118
   8223SM   H8S10895   5.400   5.825   6.764 -0.7049  0.0404 -2.6133
   8223SM   H8T10896   5.366   5.690   6.875 -1.7743 -0.7871  0.8705
   8223SM   C9S10897   5.203   5.819   6.834  1.1229  0.0515 -0.2135
   8223SM   H9S10898   5.134   5.752   6.890 -0.8359  2.9401  1.0938
   8223SM   H9T10899   5.139   5.875   6.762 -1.3461  0.9935  2.5432
   8223SM  C10S10900   5.242   5.931   6.932 -0.3323  0.4222  0.6217
   8223SM  H10S10901   5.313   6.003   6.886  0.3782  0.4874  1.7839
   8223SM  H10T10902   5.291   5.871   7.012  1.7266  0.4822 -0.5384
   8223SM  C11S10903   5.127   6.005   6.993  0.3290 -0.3081  0.0232
   8223SM  H11S10904   5.072   5.953   7.073  1.6830 -2.7882 -0.5477
   8223SM  H11T10905   5.050   6.042   6.921 -0.3166  2.7914  2.1283
   8223SM  C12S10906   5.166   6.150   7.048  0.0453 -1.0864  0.6773
   8223SM  H12S10907   5.189   6.217   6.963 -2.1748 -1.3064 -0.1544
   8223SM  H12T10908   5.266   6.149   7.097  0.7377  0.6693 -0.5791
   8223SM  C13S10909   5.070   6.200   7.153  0.2156 -0.2899 -0.3470
   8223SM  H13S10910   5.034   6.131   7.233  2.3545  0.1582  1.0855
   8223SM  H13T10911   4.981   6.242   7.102  0.3184  1.3079  0.7266
   8223SM  C14S10912   5.136   6.319   7.228  0.6364 -0.3539  0.8059
   8223SM  H14S10913   5.048   6.377   7.262 -0.8083 -0.8230 -1.8471
   8223SM  H14T10914   5.182   6.383   7.149  0.7779 -0.4680  0.7956
   8223SM  C15S10915   5.232   6.298   7.340 -0.7279  0.6502 -0.5889
   8223SM  H15S10916   5.269   6.385   7.399 -0.0301 -0.3778  0.5376
   8223SM  H15T10917   5.327   6.254   7.303  0.1382 -0.5090  2.6374
   8223SM  C16S10918   5.186   6.196   7.451 -0.3104  0.1790 -0.8118
   8223SM  H16S10919   5.268   6.191   7.525 -0.3568  0.7261 -0.7210
   8223SM  H16T10920   5.180   6.095   7.404 -0.4587 -1.0608  1.7192
   8223SM  C17S10921   5.059   6.232   7.533 -0.2278  0.0628 -0.1513
   8223SM  H17S10922   4.976   6.262   7.465 -1.5332 -0.3527  1.2077
   8223SM  H17T10923   5.081   6.324   7.591 -0.4797 -0.8029  1.3713
   8223SM  C18S10924   5.012   6.124   7.623 -0.2765 -0.2939  0.5577
   8223SM  H18S10925   5.091   6.109   7.699  0.9728  2.5446 -0.0462
   8223SM  H18T10926   5.003   6.026   7.572  0.1027 -1.0840  1.9775
   8223SM  H18U10927   4.908   6.146   7.656  0.1226 -1.0882  2.4564
   8223SM   C1F10928   5.243   5.014   6.569 -0.1622 -0.3755  0.3639
   8223SM    OF10929   5.338   4.939   6.547 -0.2573  0.4416 -0.0534
   8223SM   C2F10930   5.134   4.976   6.661  0.0843 -0.1737  0.9667
   8223SM   H2F10931   5.046   4.941   6.603  0.7307  1.0923 -0.8639
   8223SM   H2G10932   5.106   5.056   6.733 -0.7942  1.7865 -1.4453
   8223SM   C3F10933   5.185   4.867   6.764 -0.7898 -0.7171  0.2561
   8223SM   H3F10934   5.285   4.889   6.807 -0.6311 -0.2221 -0.3578
   8223SM   H3G10935   5.183   4.763   6.724  0.5283 -0.7699  0.2749
   8223SM   C4F10936   5.089   4.841   6.878  0.3343 -0.5047  0.8323
   8223SM   H4F10937   4.993   4.879   6.839  1.6780  0.0871 -2.2069
   8223SM   H4G10938   5.119   4.903   6.964  0.5284  0.2021  0.2640
   8223SM   C5F10939   5.083   4.698   6.933  0.9288 -0.5832 -0.0223
   8223SM   H5F10940   5.187   4.661   6.952 -0.1673 -2.1526  3.9373
   8223SM   H5G10941   5.029   4.642   6.853  1.0489 -0.9958  0.1834
   8223SM   C6F10942   4.998   4.688   7.061 -0.2631 -0.4054 -0.1625
   8223SM   H6F10943   4.892   4.719   7.044  0.4539  0.7100 -3.3925
   8223SM   H6G10944   5.047   4.756   7.133 -0.9902  0.3437 -0.3581
   8223SM   C7F10945   5.014   4.546   7.123 -0.1786 -0.1050 -0.3699
   8223SM   H7F10946   4.981   4.469   7.049  0.1089 -1.6109  1.0132
   8223SM   H7G10947   4.943   4.549   7.208 -1.2270 -2.9733 -1.0082
   8223SM   C8F10948   5.155   4.501   7.164  1.3667 -0.2890 -0.0487
   8223SM   H8F10949   5.209   4.588   7.207  0.5833 -0.0586  0.4794
   8223SM   H8G10950   5.204   4.458   7.074  0.6252  0.9870 -1.0994
   8223SM   C9F10951   5.155   4.369   7.252 -0.4456 -0.0623 -0.0608
   8223SM   H9F10952   5.260   4.334   7.266  0.4151  2.2684 -0.3954
   8223SM   H9G10953   5.106   4.283   7.200  0.4444 -0.5454 -0.1237
   8223SM  C10F10954   5.093   4.376   7.390 -0.1326 -0.1932  0.3063
   8223SM  H10F10955   5.099   4.277   7.440  0.7440 -1.6827 -2.5493
   8223SM  H10G10956   4.986   4.405   7.381  0.2853  1.7901  1.2739
   8223SM  C11F10957   5.144   4.484   7.488  0.2385 -0.0976  0.3204
   8223SM  H11F10958   5.112   4.577   7.438 -2.9184 -1.5598 -0.5967
   8223SM  H11G10959   5.254   4.471   7.480  0.0793 -1.1132 -0.3684
   8223SM  C12F10960   5.080   4.472   7.631  0.2689  0.5471 -0.1007
   8223SM  H12F10961   4.971   4.461   7.613 -0.0793  1.7901  1.0329
   8223SM  H12G10962   5.097   4.571   7.678 -0.3322  0.2408  0.7889
   8223SM  C13F10963   5.126   4.348   7.712 -0.2415  0.8525  0.4046
   8223SM  H13F10964   5.184   4.375   7.803  1.9160  0.7000 -0.8612
   8223SM  H13G10965   5.197   4.301   7.641 -1.0918  1.2724 -0.7484
   8223SM  C14F10966   5.012   4.254   7.754  0.4279  0.4283 -0.0156
   8223SM  H14F10967   4.944   4.244   7.667 -1.3952  0.8624  1.2976
   8223SM  H14G10968   4.947   4.304   7.830  1.7659  0.4293  1.1793
   8223SM  C15F10969   5.059   4.113   7.793  0.4256 -0.1418  0.4838
   8223SM  H15F10970   5.132   4.119   7.877 -0.6819 -3.6127  1.8611
   8223SM  H15G10971   5.119   4.061   7.715 -0.2267 -0.0581 -0.0773
   8223SM  C16F10972   4.937   4.028   7.835  0.0727  0.1147  0.7922
   8223SM  H16F10973   4.872   3.990   7.753 -0.9412  1.2768  1.0230
   8223SM  H16G10974   4.871   4.099   7.890 -2.3565 -0.3111 -1.4136
   8223SM  C17F10975   4.989   3.921   7.940  0.0660  0.1063  0.2874
   8223SM  H17F10976   5.032   3.979   8.024 -1.0539 -0.0962  1.0172
   8223SM  H17G10977   5.085   3.870   7.915  0.3495 -0.8628  3.0789
   8223SM  C18F10978   4.879   3.830   7.989  0.6985  0.1633 -0.1941
   8223SM  H18F10979   4.911   3.778   8.082 -2.9471 -0.3925  0.9132
   8223SM  H18G10980   4.842   3.750   7.920 -0.7601 -0.0936  0.8340
   8223SM  C19F10981   4.748   3.912   8.017 -0.9550 -0.3845 -0.8758
   8223SM  H19F10982   4.705   3.948   7.921 -1.3638 -2.4914 -1.5371
   8223SM  H19G10983   4.785   3.990   8.086  2.4878 -1.9548 -0.7264
   8223SM  C20F10984   4.631   3.845   8.081  0.5870 -0.7779 -0.4285
   8223SM  H20F10985   4.655   3.785   8.172  1.4703  2.8098  1.9153
   8223SM  H20G10986   4.585   3.775   8.008  1.0655  0.7137 -2.2296
   8223SM  C21F10987   4.540   3.947   8.155 -0.4666 -0.1028 -0.3032
   8223SM  H21F10988   4.515   4.032   8.087 -1.2266 -0.7949 -0.9174
   8223SM  H21G10989   4.606   3.990   8.233  0.9152  1.6753 -2.3424
   8223SM  C22F10990   4.414   3.879   8.215  0.3715 -0.3780  0.1633
   8223SM  H22F10991   4.447   3.800   8.286  1.4130  0.0964  0.2321
   8223SM  H22G10992   4.352   3.823   8.142  1.2394 -0.5349 -0.4762
   8223SM  C23F10993   4.322   3.978   8.276  0.3329 -0.3750 -0.2758
   8223SM  H23F10994   4.371   4.043   8.352 -2.2489  1.5381 -0.0876
   8223SM  H23G10995   4.238   3.923   8.324  0.7814  0.8324  2.0600
   8223SM  H23H10996   4.272   4.042   8.201 -1.3952 -0.7917  0.4602
   8323SM     N10997   6.291   4.430   5.826 -0.1791  0.1809 -0.4091
   8323SM   C1510998   6.282   4.284   5.768 -0.1902 -0.3658  0.2230
   8323SM  H15A10999   6.317   4.288   5.666  1.3203  0.4673  0.7472
   8323SM  H15B11000   6.181   4.244   5.766  0.2633 -1.6172  0.7712
   8323SM  H15C11001   6.348   4.221   5.827  1.2357  1.1227  0.2894
   8323SM   C1411002   6.432   4.481   5.789 -0.6094  0.6986  0.1183
   8323SM  H14A11003   6.449   4.574   5.841  0.1033  1.3920 -1.2951
   8323SM  H14B11004   6.456   4.485   5.684  0.4718  1.2822  0.3719
   8323SM  H14C11005   6.515   4.420   5.822  0.6535  0.5963 -2.9407
   8323SM   C1311006   6.189   4.523   5.757  0.1714  0.4469  0.3026
   8323SM  H13A11007   6.200   4.625   5.791 -1.3574  1.6982 -2.6223
   8323SM  H13B11008   6.088   4.486   5.761 -0.7699  2.4838 -1.9158
   8323SM  H13C11009   6.209   4.530   5.651  0.3676 -1.9176  0.1298
   8323SM   C1211010   6.267   4.420   5.981 -0.0134 -0.1990  0.1804
   8323SM  H12A11011   6.340   4.350   6.018  1.3641 -0.2399 -2.3353
   8323SM  H12B11012   6.169   4.379   5.998 -1.0349  2.4822  1.2081
   8323SM   C1111013   6.273   4.553   6.065  0.4314  0.1947  0.1062
   8323SM  H11A11014   6.363   4.613   6.039  0.3916  1.0030  1.7590
   8323SM  H11B11015   6.288   4.524   6.171 -0.5024  0.1072  0.2235
   8323SM     P11016   6.013   4.630   6.113  0.1005  0.2033  0.2358
   8323SM   O1311017   5.947   4.745   6.044  0.2112  0.2543 -0.8107
   8323SM   O1411018   5.935   4.503   6.103 -0.2827  0.1014 -0.1985
   8323SM   O1111019   6.046   4.655   6.260 -0.1806  0.3054  0.0850
   8323SM   O1211020   6.154   4.631   6.043 -0.1007 -0.1541 -0.3690
   8323SM   C1S11021   6.120   4.753   6.320  0.9311  0.1675 -1.4657
   8323SM   H1S11022   6.082   4.855   6.297  0.0259  0.3298  0.4758
   8323SM   H1T11023   6.225   4.755   6.287  1.9662 -0.8624  1.3849
   8323SM    NF11024   6.152   4.858   6.538  0.4604  1.3443 -0.1826
   8323SM   HNF11025   6.246   4.855   6.571  1.0054  1.1933 -1.7057
   8323SM   C2S11026   6.094   4.738   6.474 -0.0980 -1.0143  0.1658
   8323SM   H2S11027   5.983   4.733   6.482 -0.2597  1.3799  0.2388
   8323SM   C3S11028   6.155   4.601   6.515 -0.4450 -0.2005  0.1290
   8323SM   H3S11029   6.263   4.610   6.493 -0.8580  0.6171 -1.7612
   8323SM    O311030   6.108   4.483   6.458  0.1429  0.5959  0.3712
   8323SM   HO311031   6.056   4.517   6.385  0.3884  2.6772  1.1110
   8323SM   C4S11032   6.135   4.576   6.662 -0.3019 -0.3349  0.1715
   8323SM   H4S11033   6.032   4.573   6.700  0.1536 -0.0517  1.4812
   8323SM   C5S11034   6.234   4.593   6.752  0.0895 -0.2868 -0.0444
   8323SM   H5S11035   6.340   4.608   6.725  0.4190 -0.3120  1.1541
   8323SM   C6S11036   6.226   4.562   6.897  0.0581  0.0042 -0.0983
   8323SM   H6S11037   6.295   4.485   6.938 -1.4174 -0.0076  2.6225
   8323SM   H6T11038   6.126   4.518   6.917  0.5480 -1.4719 -0.7745
   8323SM   C7S11039   6.231   4.681   7.000  0.0820  0.2954  0.0366
   8323SM   H7S11040   6.168   4.767   6.971 -0.1065 -0.5648 -2.2306
   8323SM   H7T11041   6.333   4.727   6.999  0.7605 -1.1534 -0.2023
   8323SM   C8S11042   6.183   4.648   7.140 -0.2069  0.1931  0.3558
   8323SM   H8S11043   6.247   4.575   7.193 -2.2621 -0.2467  2.4281
   8323SM   H8T11044   6.080   4.605   7.135 -1.2285  2.0469  3.0391
   8323SM   C9S11045   6.170   4.775   7.230 -0.3775 -0.2163  0.8958
   8323SM   H9S11046   6.091   4.839   7.184  0.7360  0.1238 -0.6238
   8323SM   H9T11047   6.266   4.831   7.224 -0.6992  0.1836 -1.0690
   8323SM  C10S11048   6.132   4.738   7.371  0.1557  0.1304 -1.6396
   8323SM  H10S11049   6.216   4.685   7.420 -0.5058 -0.0556 -0.6596
   8323SM  H10T11050   6.045   4.670   7.356  2.4919 -3.0746 -1.5939
   8323SM  C11S11051   6.103   4.861   7.459  0.1344 -0.5955 -0.3833
   8323SM  H11S11052   6.193   4.926   7.465 -0.8585  0.7557  0.5275
   8323SM  H11T11053   6.103   4.847   7.570  1.6068  0.0944 -0.2652
   8323SM  C12S11054   5.986   4.948   7.423 -0.3846  0.5189  0.8686
   8323SM  H12S11055   5.896   4.885   7.410 -0.5564  1.1609 -1.8739
   8323SM  H12T11056   6.002   4.996   7.323 -2.3879  0.1594  0.3261
   8323SM  C13S11057   5.956   5.060   7.526  0.1968 -0.4314 -0.4037
   8323SM  H13S11058   6.054   5.076   7.575 -0.0549 -1.0747  0.3408
   8323SM  H13T11059   5.889   5.019   7.606 -0.1838 -1.4279 -1.2113
   8323SM  C14S11060   5.883   5.175   7.457 -0.0155  0.2676  0.2732
   8323SM  H14S11061   5.931   5.207   7.362 -1.8536 -0.3177 -0.8986
   8323SM  H14T11062   5.883   5.261   7.527 -0.1275  0.1805  0.3800
   8323SM  C15S11063   5.739   5.139   7.420  0.8040  0.2555 -0.2692
   8323SM  H15S11064   5.670   5.121   7.504  0.0573  2.6918 -0.2952
   8323SM  H15T11065   5.736   5.043   7.364 -0.9751  0.2624 -0.2481
   8323SM  C16S11066   5.677   5.252   7.334  0.1313  0.1487  0.5405
   8323SM  H16S11067   5.725   5.273   7.236 -0.3296  0.2062  0.3255
   8323SM  H16T11068   5.683   5.348   7.389  0.8112  1.2438 -1.3619
   8323SM  C17S11069   5.527   5.231   7.309 -0.3380 -1.1384 -0.3400
   8323SM  H17S11070   5.478   5.210   7.407 -1.9324 -0.9299 -1.0566
   8323SM  H17T11071   5.509   5.134   7.258  1.6732 -0.1902 -3.0716
   8323SM  C18S11072   5.444   5.355   7.251 -0.5813 -0.7683 -0.1564
   8323SM  H18S11073   5.336   5.327   7.255 -0.9316  0.6022  0.3152
   8323SM  H18T11074   5.471   5.366   7.144  1.0536 -0.5719  0.2519
   8323SM  H18U11075   5.463   5.453   7.300 -2.4808  0.3843 -1.5755
   8323SM   C1F11076   6.091   4.981   6.536 -0.0442 -0.7917 -0.2172
   8323SM    OF11077   5.989   5.007   6.470 -0.2163  0.3189  0.2567
   8323SM   C2F11078   6.148   5.081   6.628 -0.1798 -0.6571 -1.3405
   8323SM   H2F11079   6.174   5.163   6.558 -0.0201 -0.0166 -0.5462
   8323SM   H2G11080   6.243   5.039   6.667 -0.0392 -0.9955 -2.0277
   8323SM   C3F11081   6.053   5.124   6.743  0.6418 -0.3561  0.0226
   8323SM   H3F11082   5.950   5.148   6.709  0.6916  1.7179  1.1556
   8323SM   H3G11083   6.095   5.212   6.796  1.8778 -1.1815  0.4549
   8323SM   C4F11084   6.037   5.025   6.862 -0.0969 -0.0281  0.0044
   8323SM   H4F11085   6.136   4.993   6.900 -0.0424  1.4496  1.2080
   8323SM   H4G11086   5.989   4.926   6.852 -0.3209 -0.2964  2.8729
   8323SM   C5F11087   5.970   5.088   6.986 -0.1356 -0.6068 -0.3986
   8323SM   H5F11088   5.987   5.197   6.999  0.6919 -0.7796 -0.0087
   8323SM   H5G11089   6.010   5.038   7.076 -2.8393  0.1409  1.3590
   8323SM   C6F11090   5.820   5.060   7.007 -0.0504  0.1082 -0.0150
   8323SM   H6F11091   5.803   5.082   7.115  0.0723 -0.9399  0.2269
   8323SM   H6G11092   5.811   4.952   6.984  2.0560  0.1471 -1.2977
   8323SM   C7F11093   5.735   5.144   6.917 -0.4606 -0.1709  0.1122
   8323SM   H7F11094   5.765   5.132   6.810  1.1381  1.3576  0.3302
   8323SM   H7G11095   5.752   5.252   6.937 -0.9671  0.4557 -2.4272
   8323SM   C8F11096   5.585   5.119   6.931 -0.1424 -0.4475 -1.0055
   8323SM   H8F11097   5.564   5.103   7.038  1.5310 -0.8155 -0.6926
   8323SM   H8G11098   5.565   5.026   6.874  1.2346 -2.3623  1.4684
   8323SM   C9F11099   5.501   5.234   6.887 -0.3564 -0.6938  0.7377
   8323SM   H9F11100   5.481   5.247   6.778  0.5700  0.5400  0.6903
   8323SM   H9G11101   5.546   5.328   6.925 -0.5883  0.1724 -1.0019
   8323SM  C10F11102   5.361   5.214   6.939 -0.1127  0.2734 -0.3622
   8323SM  H10F11103   5.362   5.181   7.045 -0.0750 -1.1332 -0.7899
   8323SM  H10G11104   5.322   5.124   6.888 -1.1145 -0.3880  1.4464
   8323SM  C11F11105   5.272   5.332   6.916  0.8769 -0.6421  0.0799
   8323SM  H11F11106   5.295   5.394   6.827 -3.0706  4.1490  1.9107
   8323SM  H11G11107   5.280   5.406   6.999 -1.3439  0.7690 -0.8900
   8323SM  C12F11108   5.124   5.299   6.928  0.3908 -0.0611 -0.0047
   8323SM  H12F11109   5.115   5.251   7.028  0.2498 -1.2447 -0.5790
   8323SM  H12G11110   5.099   5.227   6.848 -0.0047 -0.9553  0.9067
   8323SM  C13F11111   5.035   5.424   6.911 -1.0988 -0.0519  0.0449
   8323SM  H13F11112   5.085   5.501   6.848  2.3540 -2.1977 -0.0756
   8323SM  H13G11113   5.015   5.471   7.010  3.6084 -1.6273  2.0654
   8323SM  C14F11114   4.901   5.387   6.834 -0.2769  0.2595 -0.2555
   8323SM  H14F11115   4.838   5.334   6.908 -0.1057 -1.1120 -1.0479
   8323SM  H14G11116   4.939   5.320   6.754 -0.8796  0.3646 -0.6330
   8323SM  C15F11117   4.835   5.511   6.770 -0.0616 -0.0350 -0.3965
   8323SM  H15F11118   4.782   5.471   6.680 -0.4097  1.1640 -0.7483
   8323SM  H15G11119   4.911   5.577   6.723  1.0636 -0.5421  0.6595
   8323SM  C16F11120   4.746   5.592   6.864 -0.3102  0.2391 -0.1797
   8323SM  H16F11121   4.814   5.657   6.924  0.3996 -1.3335  0.7907
   8323SM  H16G11122   4.703   5.518   6.935 -0.2981  0.5485  0.1531
   8323SM  C17F11123   4.639   5.672   6.794 -0.4270 -0.3297  0.7877
   8323SM  H17F11124   4.576   5.601   6.737  2.0028 -2.0145  0.0065
   8323SM  H17G11125   4.689   5.733   6.716 -1.1820  1.2683  1.5208
   8323SM  C18F11126   4.549   5.759   6.878  0.4996  0.6092 -0.2044
   8323SM  H18F11127   4.471   5.803   6.813 -0.0739 -0.3927 -0.2159
   8323SM  H18G11128   4.602   5.847   6.920 -0.5653  0.3636  1.7693
   8323SM  C19F11129   4.492   5.668   6.995 -0.0084  0.0158  0.3924
   8323SM  H19F11130   4.569   5.659   7.075  0.1115  0.4645  0.3320
   8323SM  H19G11131   4.470   5.572   6.944 -1.5142  0.8365 -0.5809
   8323SM  C20F11132   4.364   5.724   7.057  0.0739  0.7485 -0.4477
   8323SM  H20F11133   4.308   5.654   7.122  1.8400  0.9474  1.3942
   8323SM  H20G11134   4.285   5.735   6.980  0.7105 -1.6233 -1.5501
   8323SM  C21F11135   4.383   5.853   7.137  0.5864  0.6810  0.7096
   8323SM  H21F11136   4.372   5.936   7.064  0.5663 -2.1137 -2.7746
   8323SM  H21G11137   4.486   5.851   7.179  0.7107 -1.8073  0.4630
   8323SM  C22F11138   4.287   5.874   7.258 -0.6926  0.3552  0.2607
   8323SM  H22F11139   4.321   5.975   7.290 -0.1789  1.2213 -2.7055
   8323SM  H22G11140   4.316   5.799   7.334  0.5542  1.0985  0.5581
   8323SM  C23F11141   4.145   5.874   7.219 -0.0081  0.0582 -0.4484
   8323SM  H23F11142   4.074   5.864   7.304  1.3164 -1.9603  0.4824
   8323SM  H23G11143   4.128   5.785   7.154  2.3364 -1.9049  1.4420
   8323SM  H23H11144   4.115   5.970   7.171 -1.3989  1.2007  2.4662
   8423SM     N11145   4.897   3.104   5.765 -0.0848 -0.0682  0.1606
   8423SM   C1511146   4.967   2.974   5.720  0.1639 -0.2256  0.2874
   8423SM  H15A11147   4.977   2.986   5.613 -2.1648 -4.0186 -0.5488
   8423SM  H15B11148   4.913   2.884   5.748 -0.0668  0.1714  1.1696
   8423SM  H15C11149   5.064   2.963   5.766  0.7300  2.0548 -0.2351
   8423SM   C1411150   4.968   3.217   5.701  0.3359  0.2986 -0.2798
   8423SM  H14A11151   4.925   3.308   5.742  0.0715 -0.3638  0.9763
   8423SM  H14B11152   4.969   3.206   5.594  1.7887 -4.1117  0.0104
   8423SM  H14C11153   5.073   3.212   5.725  0.8161  1.9317 -1.7866
   8423SM   C1311154   4.764   3.100   5.701  0.5591 -0.3382 -0.0591
   8423SM  H13A11155   4.782   3.090   5.595  0.4988 -1.5087  0.0230
   8423SM  H13B11156   4.695   3.180   5.724 -2.4651 -2.3589 -1.4684
   8423SM  H13C11157   4.714   3.008   5.729  0.7028 -0.7545 -1.1123
   8423SM   C1211158   4.882   3.116   5.912  0.2616 -0.9497 -0.3720
   8423SM  H12A11159   4.829   3.030   5.951 -1.6369  0.5965  0.6931
   8423SM  H12B11160   4.807   3.190   5.937  0.4837 -1.1138  0.8514
   8423SM   C1111161   5.009   3.144   6.004  0.1870  0.3307 -0.4358
   8423SM  H11A11162   4.967   3.149   6.107  0.7224 -0.3112 -0.1821
   8423SM  H11B11163   5.038   3.244   5.965 -0.1093  0.4512 -0.3568
   8423SM     P11164   5.080   2.898   6.062 -0.3439  0.0345 -0.0879
   8423SM   O1311165   4.939   2.869   6.091 -0.0091 -0.0930  0.2926
   8423SM   O1411166   5.158   2.802   5.982 -1.0278  0.4102  0.2321
   8423SM   O1111167   5.151   2.916   6.200  0.5433  0.0334  0.0492
   8423SM   O1211168   5.103   3.040   5.991 -0.1295 -0.1224  0.7908
   8423SM   C1S11169   5.119   3.007   6.302  0.1338 -0.6755  0.8092
   8423SM   H1S11170   5.012   3.001   6.331  0.2369  0.6262  1.5299
   8423SM   H1T11171   5.135   3.110   6.263  0.3968 -0.2570  1.9804
   8423SM    NF11172   5.169   3.089   6.533 -0.1246 -0.1789 -0.2085
   8423SM   HNF11173   5.245   3.150   6.555 -0.2091  1.0942 -2.9896
   8423SM   C2S11174   5.192   2.980   6.438  0.3817 -0.3807 -0.0017
   8423SM   H2S11175   5.148   2.890   6.485 -2.0234  0.7985  0.1186
   8423SM   C3S11176   5.342   2.947   6.411 -0.2003 -0.8657  0.2225
   8423SM   H3S11177   5.391   3.028   6.352 -0.9759 -0.2799  0.3739
   8423SM    O311178   5.361   2.830   6.327  0.4436 -0.4125  0.1207
   8423SM   HO311179   5.282   2.826   6.273  0.1426 -2.1438  0.6150
   8423SM   C4S11180   5.409   2.930   6.540 -0.6981  0.2105 -0.3407
   8423SM   H4S11181   5.345   2.897   6.623 -1.4014  1.0681 -0.5222
   8423SM   C5S11182   5.535   2.959   6.573  0.4528  0.1809  0.0146
   8423SM   H5S11183   5.598   2.995   6.491  0.2835 -2.5438 -1.4296
   8423SM   C6S11184   5.610   2.947   6.701 -0.3721 -0.4128  0.2562
   8423SM   H6S11185   5.666   3.037   6.733 -2.0899  0.4314  1.0788
   8423SM   H6T11186   5.679   2.861   6.690 -1.7089 -1.3562 -1.1676
   8423SM   C7S11187   5.520   2.921   6.826 -0.1361  0.6304 -0.6429
   8423SM   H7S11188   5.595   2.904   6.906  1.0092  0.1382 -1.7886
   8423SM   H7T11189   5.463   2.827   6.812  2.2469 -1.1088  0.5340
   8423SM   C8S11190   5.425   3.036   6.860 -0.0508  0.6312  0.0341
   8423SM   H8S11191   5.340   3.021   6.789 -0.8478  0.3166  1.0227
   8423SM   H8T11192   5.478   3.129   6.831 -0.6361  1.4645  1.5277
   8423SM   C9S11193   5.382   3.025   7.001  0.3817  0.2621 -0.9846
   8423SM   H9S11194   5.468   3.042   7.069  0.3647 -0.4508 -0.7734
   8423SM   H9T11195   5.355   2.922   7.032  0.6700  0.6323  0.5729
   8423SM  C10S11196   5.266   3.125   7.031 -0.5988  0.0333  0.4053
   8423SM  H10S11197   5.169   3.086   6.994 -0.8747 -0.2025  1.3567
   8423SM  H10T11198   5.296   3.217   6.976  1.1232 -1.4458 -1.2444
   8423SM  C11S11199   5.254   3.162   7.177 -0.2900 -0.2848  0.3903
   8423SM  H11S11200   5.345   3.212   7.218 -0.1547  0.4264 -0.7283
   8423SM  H11T11201   5.231   3.068   7.231 -0.9008 -1.1874 -1.3589
   8423SM  C12S11202   5.138   3.259   7.189  0.0624 -0.0678 -0.6322
   8423SM  H12S11203   5.038   3.218   7.162 -0.2510  0.5505 -0.4351
   8423SM  H12T11204   5.167   3.346   7.127 -2.8167  1.7229  0.3249
   8423SM  C13S11205   5.122   3.301   7.338 -0.0300  0.4916  0.6212
   8423SM  H13S11206   5.221   3.329   7.379  0.3968 -1.3483  0.9171
   8423SM  H13T11207   5.083   3.215   7.397 -0.3642  0.3837  0.2441
   8423SM  C14S11208   5.027   3.420   7.349 -0.2782  0.6036  0.1172
   8423SM  H14S11209   4.926   3.374   7.336  0.6064 -0.7832 -2.8927
   8423SM  H14T11210   5.042   3.482   7.258 -0.6423 -1.1460 -1.2134
   8423SM  C15S11211   5.028   3.486   7.480 -0.3037 -0.6856  0.6313
   8423SM  H15S11212   5.128   3.531   7.500 -0.5167 -0.2231  0.6540
   8423SM  H15T11213   5.030   3.423   7.572 -0.1641 -0.0326  1.0893
   8423SM  C16S11214   4.920   3.589   7.501  0.1776 -0.5126 -0.7211
   8423SM  H16S11215   4.822   3.538   7.516  0.1598 -0.5310 -0.8862
   8423SM  H16T11216   4.903   3.646   7.406 -0.7110 -0.4760 -0.5532
   8423SM  C17S11217   4.954   3.691   7.613  0.1199  0.6418 -0.2287
   8423SM  H17S11218   4.937   3.630   7.704 -1.1969  1.5821  0.1886
   8423SM  H17T11219   4.874   3.767   7.622  1.2057  2.0868 -2.0643
   8423SM  C18S11220   5.099   3.751   7.619  0.6123 -0.4596 -0.3935
   8423SM  H18S11221   5.115   3.818   7.706  0.9452 -0.3116 -0.5649
   8423SM  H18T11222   5.119   3.818   7.532  1.4298 -0.0853  0.0716
   8423SM  H18U11223   5.179   3.675   7.611  0.2002 -0.9434  0.0616
   8423SM   C1F11224   5.053   3.117   6.580  0.0507 -0.1742 -1.3323
   8423SM    OF11225   4.957   3.062   6.538  0.8244 -0.2143 -0.1554
   8423SM   C2F11226   5.040   3.246   6.665  0.5122  0.2718  0.0376
   8423SM   H2F11227   4.988   3.322   6.604  1.1441  0.3475 -0.4210
   8423SM   H2G11228   5.138   3.287   6.697  0.7624  0.5683 -1.0710
   8423SM   C3F11229   4.962   3.210   6.790  0.6636  0.0624  0.2522
   8423SM   H3F11230   5.014   3.140   6.859  1.5855 -0.4283 -0.9261
   8423SM   H3G11231   4.863   3.172   6.758  0.9764 -0.0779 -0.5511
   8423SM   C4F11232   4.922   3.341   6.869  0.6312  0.3151 -0.1702
   8423SM   H4F11233   4.877   3.415   6.800  0.5626  3.0031  2.5523
   8423SM   H4G11234   5.006   3.395   6.918  0.3257  0.6693 -0.0369
   8423SM   C5F11235   4.816   3.315   6.974  0.4502  0.0589  0.4371
   8423SM   H5F11236   4.834   3.236   7.049  1.3511 -1.2481 -1.1052
   8423SM   H5G11237   4.715   3.286   6.940  0.1789 -2.5471  3.1005
   8423SM   C6F11238   4.798   3.455   7.056  0.2263 -0.1349  0.6192
   8423SM   H6F11239   4.803   3.547   6.994  1.6287  1.1169  2.4811
   8423SM   H6G11240   4.885   3.457   7.126  1.9599 -1.4977 -1.3534
   8423SM   C7F11241   4.664   3.458   7.128  0.3142 -0.5137  0.5224
   8423SM   H7F11242   4.588   3.410   7.063 -1.4239  2.0971  0.4996
   8423SM   H7G11243   4.634   3.562   7.151 -0.6314 -0.6629  0.0272
   8423SM   C8F11244   4.667   3.383   7.260  0.6055 -0.5054  0.4989
   8423SM   H8F11245   4.710   3.449   7.339 -1.3308 -1.5346  2.5444
   8423SM   H8G11246   4.733   3.294   7.245  1.3031  0.1011 -0.1001
   8423SM   C9F11247   4.529   3.333   7.303 -0.1445  0.2351  0.0289
   8423SM   H9F11248   4.490   3.268   7.221 -0.5319  1.6584 -0.9438
   8423SM   H9G11249   4.459   3.419   7.309  0.7431  0.9136  0.9372
   8423SM  C10F11250   4.533   3.259   7.433 -0.4806  0.1912 -0.0084
   8423SM  H10F11251   4.580   3.321   7.511  0.6862 -0.8203  0.1186
   8423SM  H10G11252   4.597   3.170   7.416 -2.2641 -1.4238  1.2207
   8423SM  C11F11253   4.392   3.210   7.479  0.4606 -0.1529 -0.2018
   8423SM  H11F11254   4.355   3.135   7.405 -0.5441 -0.5922  0.7254
   8423SM  H11G11255   4.329   3.300   7.464  0.5406 -0.4764 -3.0033
   8423SM  C12F11256   4.394   3.150   7.622 -0.2877 -0.1242  1.0928
   8423SM  H12F11257   4.427   3.211   7.708 -2.3037  0.5942  1.4091
   8423SM  H12G11258   4.472   3.071   7.624 -1.3254 -1.2727 -0.7488
   8423SM  C13F11259   4.261   3.094   7.665  0.0146  0.3308 -0.0419
   8423SM  H13F11260   4.230   3.015   7.594 -1.8102  0.9674 -0.0149
   8423SM  H13G11261   4.179   3.169   7.671 -0.5896 -0.3296  0.0062
   8423SM  C14F11262   4.263   3.028   7.806  0.6282 -0.3126 -0.0040
   8423SM  H14F11263   4.283   3.107   7.882 -0.6971  1.0350 -0.9840
   8423SM  H14G11264   4.351   2.960   7.807  1.1508  0.3451 -0.1542
   8423SM  C15F11265   4.137   2.949   7.846  0.1977 -0.4158  0.2870
   8423SM  H15F11266   4.142   2.858   7.783 -0.1004 -0.3236  0.1250
   8423SM  H15G11267   4.050   3.012   7.816  0.4498 -0.0148  0.3866
   8423SM  C16F11268   4.117   2.909   7.993  0.3030  0.2913 -0.0218
   8423SM  H16F11269   4.214   2.869   8.031  0.4924  0.8977  0.1472
   8423SM  H16G11270   4.035   2.835   7.994 -0.1741  0.8173  0.1686
   8423SM  C17F11271   4.062   3.026   8.072  0.1197 -0.1146  0.1627
   8423SM  H17F11272   3.959   3.047   8.033  0.0981  1.2468  0.8688
   8423SM  H17G11273   4.122   3.113   8.038  1.0396 -0.7603  0.1048
   8423SM  C18F11274   4.058   2.995   8.216 -0.3665 -0.0301 -0.0691
   8423SM  H18F11275   4.162   2.988   8.254 -0.2352 -3.2035 -0.7130
   8423SM  H18G11276   4.011   2.894   8.221 -2.5247  0.9070 -0.1241
   8423SM  C19F11277   3.961   3.085   8.293  0.3454 -0.6479  0.7096
   8423SM  H19F11278   3.857   3.069   8.260  0.1465 -1.8594  1.8555
   8423SM  H19G11279   3.981   3.192   8.267  0.6273 -0.7536  0.4938
   8423SM  C20F11280   3.979   3.066   8.440 -0.1611 -0.1551  0.1344
   8423SM  H20F11281   4.061   3.137   8.462  1.1206 -2.4127  3.4517
   8423SM  H20G11282   3.999   2.962   8.472 -0.1521 -0.1862  0.0291
   8423SM  C21F11283   3.865   3.109   8.533 -0.1462  0.2133  0.7020
   8423SM  H21F11284   3.883   3.092   8.642 -0.1250 -3.2157  0.2586
   8423SM  H21G11285   3.779   3.045   8.505  1.8762 -1.2232 -2.8977
   8423SM  C22F11286   3.822   3.250   8.508  0.6858  0.1566 -0.3188
   8423SM  H22F11287   3.776   3.271   8.409 -0.1578 -0.0457  0.0266
   8423SM  H22G11288   3.904   3.324   8.519  0.2613  0.3101  2.2579
   8423SM  C23F11289   3.725   3.284   8.621 -0.2175 -0.0825  0.5016
   8423SM  H23F11290   3.640   3.213   8.619  0.2244 -0.6963  2.2159
   8423SM  H23G11291   3.669   3.380   8.610  1.1246  0.6059 -0.7798
   8423SM  H23H11292   3.768   3.271   8.722 -0.9424  3.5933  1.4479
   8523SM     N11293   7.115   4.670   6.034 -0.2381  0.5636 -0.1986
   8523SM   C1511294   7.189   4.677   5.905 -0.0177 -0.1868  0.1185
   8523SM  H15A11295   7.124   4.654   5.822  0.3971  0.6575 -0.4501
   8523SM  H15B11296   7.268   4.603   5.896  1.1959  0.9792  0.7764
   8523SM  H15C11297   7.236   4.772   5.887 -0.0388 -0.3295 -0.7323
   8523SM   C1411298   7.098   4.527   6.074  0.3362  0.3879  0.4969
   8523SM  H14A11299   7.041   4.465   6.006 -0.2726 -1.5916  2.6748
   8523SM  H14B11300   7.051   4.513   6.170 -0.3719  0.6238  0.1909
   8523SM  H14C11301   7.193   4.476   6.069 -0.5498 -1.4492  1.5559
   8523SM   C1311302   7.201   4.749   6.134 -0.0496 -0.2386  0.1566
   8523SM  H13A11303   7.168   4.752   6.236  1.0447  2.6938  0.5189
   8523SM  H13B11304   7.207   4.849   6.095  1.6547 -0.6651 -0.7697
   8523SM  H13C11305   7.299   4.705   6.133 -0.2990 -0.8204  0.5855
   8523SM   C1211306   6.986   4.741   5.999  0.0310 -0.0270  0.4597
   8523SM  H12A11307   6.917   4.682   5.941 -0.3792  1.3644 -0.5140
   8523SM  H12B11308   7.020   4.818   5.932 -0.9167 -0.1740 -0.2063
   8523SM   C1111309   6.910   4.803   6.117  0.2757 -0.0260  0.0799
   8523SM  H11A11310   6.980   4.875   6.165 -0.8786  1.7771 -0.8430
   8523SM  H11B11311   6.878   4.718   6.182 -2.3743 -1.3679 -2.7255
   8523SM     P11312   6.663   4.819   6.012 -0.0583 -0.1779 -0.2228
   8523SM   O1311313   6.577   4.923   5.950  0.2570 -0.1650  0.3756
   8523SM   O1411314   6.707   4.714   5.917  0.2482  0.0378  0.3052
   8523SM   O1111315   6.581   4.756   6.133  0.2343  0.6579 -0.3660
   8523SM   O1211316   6.793   4.878   6.084 -0.3583  0.2621  0.3927
   8523SM   C1S11317   6.602   4.799   6.274  0.1472  0.0001  0.2125
   8523SM   H1S11318   6.539   4.889   6.296 -1.3642 -0.8830 -0.3399
   8523SM   H1T11319   6.708   4.821   6.300 -0.2181  0.9270  1.0236
   8523SM    NF11320   6.599   4.748   6.516 -0.4101  0.0082 -0.2418
   8523SM   HNF11321   6.677   4.711   6.566  1.3877  2.3601 -1.0985
   8523SM   C2S11322   6.572   4.692   6.381 -0.0258  0.2738  0.1290
   8523SM   H2S11323   6.464   4.668   6.368  0.1533 -0.5597  0.1249
   8523SM   C3S11324   6.654   4.559   6.351  0.4108  0.3512 -0.3901
   8523SM   H3S11325   6.762   4.587   6.359  0.6393 -0.9288  1.9448
   8523SM    O311326   6.657   4.517   6.213  0.3010  0.0330  0.1045
   8523SM   HO311327   6.628   4.593   6.161  0.3956 -0.5198 -0.7695
   8523SM   C4S11328   6.623   4.447   6.446  0.4450 -0.5538 -0.3131
   8523SM   H4S11329   6.700   4.420   6.519 -0.8155  3.1140  2.6837
   8523SM   C5S11330   6.513   4.384   6.432  0.9223  0.1664  0.2604
   8523SM   H5S11331   6.441   4.413   6.354 -0.1900  0.3602  1.3272
   8523SM   C6S11332   6.454   4.267   6.508  0.2202  0.2691  0.0379
   8523SM   H6S11333   6.477   4.174   6.451  0.8807 -0.3903  1.3244
   8523SM   H6T11334   6.344   4.276   6.519  0.2162 -0.9096  1.2576
   8523SM   C7S11335   6.507   4.242   6.651 -0.1355  0.8463  1.1081
   8523SM   H7S11336   6.489   4.322   6.726  0.5032 -0.8540  3.1834
   8523SM   H7T11337   6.608   4.201   6.632 -0.7728  0.2497 -1.3201
   8523SM   C8S11338   6.427   4.120   6.708  0.2517 -0.0161  0.2411
   8523SM   H8S11339   6.433   4.044   6.628  1.7561 -0.8788  1.1326
   8523SM   H8T11340   6.322   4.155   6.716  0.9695  2.2767  0.3065
   8523SM   C9S11341   6.481   4.082   6.844 -0.3350  0.0339  0.4726
   8523SM   H9S11342   6.484   4.175   6.905  0.5741 -0.7021  1.5841
   8523SM   H9T11343   6.581   4.036   6.830 -0.3884  0.0057  0.1735
   8523SM  C10S11344   6.398   3.990   6.925  0.5446 -0.2178  0.5431
   8523SM  H10S11345   6.371   3.901   6.866 -0.7760  0.7912 -0.4501
   8523SM  H10T11346   6.293   4.023   6.940 -0.4597 -1.9815 -2.0812
   8523SM  C11S11347   6.468   3.941   7.052 -1.0734  0.9147  0.5529
   8523SM  H11S11348   6.538   4.020   7.084  0.2314  0.2840 -0.6017
   8523SM  H11T11349   6.523   3.849   7.021 -0.2454  1.4369  0.4444
   8523SM  C12S11350   6.367   3.905   7.162 -0.2879 -0.1735  0.3055
   8523SM  H12S11351   6.290   3.835   7.123 -1.0900 -0.6128  2.5354
   8523SM  H12T11352   6.315   3.994   7.202  2.4548 -0.0662  4.0839
   8523SM  C13S11353   6.421   3.836   7.288  0.4016  0.0310  0.4074
   8523SM  H13S11354   6.513   3.894   7.309  0.5768 -0.0006 -0.2528
   8523SM  H13T11355   6.457   3.731   7.275  2.6772  0.5917  1.7137
   8523SM  C14S11356   6.323   3.832   7.406  0.7154 -0.8420  0.1028
   8523SM  H14S11357   6.230   3.773   7.387  0.3537 -0.0065 -0.7967
   8523SM  H14T11358   6.289   3.937   7.422  0.2050 -1.0099  0.1574
   8523SM  C15S11359   6.376   3.790   7.539 -0.1916  0.6232  0.4741
   8523SM  H15S11360   6.287   3.808   7.604 -0.9993  1.1589 -0.7341
   8523SM  H15T11361   6.452   3.866   7.566 -1.9122  1.9521  1.8488
   8523SM  C16S11362   6.428   3.647   7.543  0.4232  0.5271  0.1336
   8523SM  H16S11363   6.510   3.628   7.471 -0.0690 -2.0035  0.1562
   8523SM  H16T11364   6.344   3.586   7.505  1.3838  0.2483 -1.6018
   8523SM  C17S11365   6.479   3.599   7.680 -0.8152  0.1911  0.1344
   8523SM  H17S11366   6.558   3.671   7.706  0.6722 -0.6657 -1.7658
   8523SM  H17T11367   6.522   3.497   7.669  0.5187  0.6823  0.6930
   8523SM  C18S11368   6.375   3.581   7.793  0.4191 -0.2024 -0.5303
   8523SM  H18S11369   6.312   3.491   7.778  0.3242 -0.4539  1.1371
   8523SM  H18T11370   6.310   3.672   7.795 -0.7405 -1.0164 -0.3166
   8523SM  H18U11371   6.427   3.577   7.891  0.3495 -1.2397 -0.5294
   8523SM   C1F11372   6.542   4.841   6.589 -0.2518 -0.0373 -0.5918
   8523SM    OF11373   6.443   4.895   6.553  0.4969  0.3274 -0.2067
   8523SM   C2F11374   6.599   4.857   6.723  0.4560 -0.6400 -0.3089
   8523SM   H2F11375   6.694   4.915   6.728 -0.0393  0.0701  3.0892
   8523SM   H2G11376   6.623   4.760   6.772  0.9730 -0.2137  0.3118
   8523SM   C3F11377   6.497   4.939   6.802 -0.0096  0.7867  0.5279
   8523SM   H3F11378   6.400   4.885   6.800 -1.2212  2.9008 -0.5630
   8523SM   H3G11379   6.486   5.041   6.760  2.1570  2.0780  2.8549
   8523SM   C4F11380   6.548   4.961   6.946  0.0944  0.2245  0.0635
   8523SM   H4F11381   6.649   5.008   6.948 -0.1362  0.7067  1.0524
   8523SM   H4G11382   6.569   4.863   6.994  1.9499  1.0270  1.0016
   8523SM   C5F11383   6.446   5.030   7.046 -0.4601 -0.0500  0.1807
   8523SM   H5F11384   6.355   4.967   7.060  0.6139 -1.6728  0.1544
   8523SM   H5G11385   6.410   5.127   7.007  0.6757  0.2080 -0.2688
   8523SM   C6F11386   6.506   5.047   7.190  0.2136 -0.2510  0.1540
   8523SM   H6F11387   6.581   5.129   7.188  0.4413 -0.4611 -1.0625
   8523SM   H6G11388   6.553   4.949   7.213  0.8456 -0.3043 -1.2390
   8523SM   C7F11389   6.399   5.088   7.296 -0.0285 -0.1083  0.6758
   8523SM   H7F11390   6.313   5.020   7.281 -1.8176  2.1253  0.4393
   8523SM   H7G11391   6.365   5.187   7.259  0.2654 -0.6003 -1.0149
   8523SM   C8F11392   6.449   5.079   7.438  0.5718 -0.3269  0.1270
   8523SM   H8F11393   6.512   4.989   7.453 -1.3415 -1.7504 -0.0064
   8523SM   H8G11394   6.359   5.083   7.504 -1.8833  2.3986 -3.0686
   8523SM   C9F11395   6.519   5.210   7.466  0.2264  0.0036  0.4930
   8523SM   H9F11396   6.441   5.286   7.448 -0.2402 -1.1089 -2.6981
   8523SM   H9G11397   6.600   5.227   7.391  0.4045 -1.4114  0.3434
   8523SM  C10F11398   6.584   5.217   7.603  1.0296 -0.4063 -0.0332
   8523SM  H10F11399   6.654   5.132   7.617 -0.6064 -1.9641 -0.9349
   8523SM  H10G11400   6.504   5.217   7.680  0.6010  1.2941 -0.4380
   8523SM  C11F11401   6.654   5.359   7.618 -0.1853  0.3217 -0.2404
   8523SM  H11F11402   6.608   5.446   7.567 -2.6363 -1.5687 -1.4664
   8523SM  H11G11403   6.750   5.362   7.562 -0.5942 -1.1209 -1.0750
   8523SM  C12F11404   6.681   5.380   7.772 -0.3038 -0.0263  0.0309
   8523SM  H12F11405   6.587   5.368   7.830  0.1423 -1.2525  0.5206
   8523SM  H12G11406   6.723   5.482   7.790  0.3277 -0.1849 -0.5107
   8523SM  C13F11407   6.794   5.292   7.826 -0.0409  0.4575  0.2961
   8523SM  H13F11408   6.756   5.189   7.815  0.8306  0.2217 -0.6509
   8523SM  H13G11409   6.800   5.324   7.933  1.8489  0.7767  0.1298
   8523SM  C14F11410   6.930   5.310   7.758 -0.1075  0.3726 -0.3499
   8523SM  H14F11411   6.945   5.413   7.721 -0.6210  0.3638 -0.5996
   8523SM  H14G11412   6.938   5.247   7.666 -0.2096  0.7845 -0.6417
   8523SM  C15F11413   7.049   5.293   7.850 -0.0631  0.2551  0.7809
   8523SM  H15F11414   7.026   5.200   7.905 -0.2744  0.3674  0.8831
   8523SM  H15G11415   7.063   5.385   7.911  0.5147  0.6105  0.1255
   8523SM  C16F11416   7.185   5.269   7.778 -0.0891 -0.1376 -0.8341
   8523SM  H16F11417   7.208   5.354   7.710 -1.1806  0.9293  0.0818
   8523SM  H16G11418   7.185   5.170   7.727 -1.4157 -1.0091  0.7485
   8523SM  C17F11419   7.297   5.250   7.887 -0.4479 -0.7390  0.1333
   8523SM  H17F11420   7.277   5.150   7.932 -0.9565 -0.4048  0.6593
   8523SM  H17G11421   7.290   5.328   7.966  1.9528 -1.2616  0.9382
   8523SM  C18F11422   7.441   5.248   7.836 -0.2832  0.3009  0.6046
   8523SM  H18F11423   7.459   5.346   7.787  1.4653  0.0529  0.6786
   8523SM  H18G11424   7.449   5.165   7.763 -0.0353 -0.0614  1.0333
   8523SM  C19F11425   7.541   5.233   7.950  0.4896 -0.3308 -0.2837
   8523SM  H19F11426   7.520   5.145   8.015 -0.6616  1.0751  1.3612
   8523SM  H19G11427   7.522   5.318   8.019  3.1120  0.3744 -0.3415
   8523SM  C20F11428   7.683   5.240   7.901 -0.4488 -0.2387  0.0564
   8523SM  H20F11429   7.690   5.322   7.827 -1.9996 -0.3950 -0.2957
   8523SM  H20G11430   7.714   5.141   7.862  0.2626 -0.2855  0.7108
   8523SM  C21F11431   7.784   5.257   8.016  0.0570  0.3291  0.5160
   8523SM  H21F11432   7.754   5.180   8.091  2.6627  1.2845  2.6959
   8523SM  H21G11433   7.765   5.355   8.064 -2.1659 -0.4691  1.4414
   8523SM  C22F11434   7.924   5.222   7.978 -0.5345  0.4305 -0.0957
   8523SM  H22F11435   7.954   5.279   7.888  1.4766  0.1921  0.3631
   8523SM  H22G11436   7.924   5.113   7.956  0.8257 -0.2368  2.6756
   8523SM  C23F11437   8.030   5.243   8.086 -0.2590  0.5334 -1.0406
   8523SM  H23F11438   8.126   5.191   8.066  0.6278  1.2239  1.0857
   8523SM  H23G11439   8.006   5.179   8.174  1.2487 -0.2848 -1.1917
   8523SM  H23H11440   8.059   5.347   8.112 -0.3852  0.2037  0.5392
   8623SM     N11441   5.582   2.062   6.206 -0.6193 -0.1910  0.1452
   8623SM   C1511442   5.654   2.030   6.329 -0.7343  0.0820  0.3062
   8623SM  H15A11443   5.692   1.929   6.324 -1.0569  0.0355 -1.9588
   8623SM  H15B11444   5.597   2.052   6.418 -0.6199  2.3804 -0.1206
   8623SM  H15C11445   5.746   2.088   6.332  0.8161 -2.1429 -1.5333
   8623SM   C1411446   5.672   2.040   6.087  0.4592 -0.7387  0.0129
   8623SM  H14A11447   5.700   1.936   6.085  0.1302 -0.8191 -1.3840
   8623SM  H14B11448   5.759   2.102   6.097 -0.7054  1.8128 -3.6276
   8623SM  H14C11449   5.621   2.069   5.996 -3.0318 -0.4626  1.8584
   8623SM   C1311450   5.460   1.978   6.199  0.0218 -0.7988  0.1863
   8623SM  H13A11451   5.408   2.006   6.109 -1.5370  0.0311  1.3043
   8623SM  H13B11452   5.392   1.989   6.282 -0.3707  0.9570 -0.3357
   8623SM  H13C11453   5.496   1.876   6.192  1.0867 -0.4001 -0.5244
   8623SM   C1211454   5.546   2.209   6.202  0.6108 -0.6539 -0.1245
   8623SM  H12A11455   5.634   2.269   6.225  0.7484 -0.8043 -0.2579
   8623SM  H12B11456   5.486   2.239   6.286  0.9201  2.7024 -0.9449
   8623SM   C1111457   5.497   2.270   6.070  0.9094  0.0963  0.6247
   8623SM  H11A11458   5.571   2.263   5.988 -2.0353 -0.2527 -2.1967
   8623SM  H11B11459   5.474   2.378   6.078 -1.9183 -0.1956 -1.9609
   8623SM     P11460   5.237   2.265   6.030  0.1440  0.0496  0.4162
   8623SM   O1311461   5.210   2.366   5.926  0.0797 -0.0725  0.4759
   8623SM   O1411462   5.143   2.156   6.044 -0.0944 -0.0407 -0.1631
   8623SM   O1111463   5.248   2.343   6.165  0.5833 -0.5305 -0.2916
   8623SM   O1211464   5.382   2.206   6.015 -0.0334  0.1680  0.6376
   8623SM   C1S11465   5.244   2.271   6.288  0.1328  0.0463 -0.6575
   8623SM   H1S11466   5.316   2.187   6.295  2.3916  1.7949 -1.7099
   8623SM   H1T11467   5.140   2.232   6.298 -0.7646  1.9295 -1.9662
   8623SM    NF11468   5.296   2.329   6.531 -0.0417 -0.2556 -0.0567
   8623SM   HNF11469   5.218   2.324   6.593  0.9495 -1.9921  1.1439
   8623SM   C2S11470   5.262   2.383   6.397  0.1462 -0.6686 -0.4899
   8623SM   H2S11471   5.352   2.438   6.360  0.5727 -1.3054 -0.4089
   8623SM   C3S11472   5.142   2.471   6.404  0.0711 -1.7226 -0.7644
   8623SM   H3S11473   5.049   2.414   6.424 -0.5433 -0.3461  0.4581
   8623SM    O311474   5.110   2.540   6.284 -0.7974  0.1342  0.6115
   8623SM   HO311475   5.168   2.499   6.220 -0.2732  0.2134  1.0280
   8623SM   C4S11476   5.167   2.583   6.511  0.0396 -0.2407  0.0244
   8623SM   H4S11477   5.255   2.643   6.483  0.4945 -1.9502 -2.5350
   8623SM   C5S11478   5.073   2.621   6.601 -0.2996 -0.5679 -0.5177
   8623SM   H5S11479   4.979   2.565   6.598 -1.3579  1.1466 -1.0048
   8623SM   C6S11480   5.072   2.735   6.702  0.2149  0.5051 -0.0280
   8623SM   H6S11481   5.015   2.815   6.649  2.4959  1.1032 -1.7425
   8623SM   H6T11482   5.173   2.780   6.698  0.9551 -1.1345 -2.0477
   8623SM   C7S11483   5.015   2.693   6.841 -0.1828  0.0389  0.0930
   8623SM   H7S11484   5.090   2.629   6.892  1.4277  2.1234  0.4836
   8623SM   H7T11485   4.916   2.644   6.832  0.7802 -1.7714 -1.5558
   8623SM   C8S11486   5.001   2.826   6.926  0.3062  0.4564  0.1166
   8623SM   H8S11487   4.934   2.903   6.883 -0.3778  0.3779  1.0108
   8623SM   H8T11488   5.103   2.868   6.939  2.0019 -3.6074  1.8877
   8623SM   C9S11489   4.946   2.802   7.066 -0.4246 -0.3472 -1.1118
   8623SM   H9S11490   5.019   2.743   7.125 -0.5163 -1.9032 -2.4784
   8623SM   H9T11491   4.852   2.743   7.054  0.0285 -1.0860 -1.0818
   8623SM  C10S11492   4.900   2.936   7.130  0.0193  0.1928  0.0146
   8623SM  H10S11493   4.824   2.992   7.071 -1.3632  0.1506  1.6626
   8623SM  H10T11494   4.995   2.992   7.142  2.1478 -3.1058 -0.2718
   8623SM  C11S11495   4.841   2.923   7.274 -0.1940  0.0497 -0.2374
   8623SM  H11S11496   4.801   3.017   7.317 -1.4272 -0.9181  0.8484
   8623SM  H11T11497   4.921   2.890   7.344 -0.0342  0.1088 -0.3919
   8623SM  C12S11498   4.722   2.826   7.286 -0.2464  0.1248  0.7621
   8623SM  H12S11499   4.755   2.730   7.240  0.2510  1.2036 -1.2260
   8623SM  H12T11500   4.629   2.854   7.233 -0.1946 -0.8326  0.1430
   8623SM  C13S11501   4.692   2.790   7.441  0.1861  0.3658  0.5192
   8623SM  H13S11502   4.640   2.869   7.498 -1.9863 -2.3166  2.5586
   8623SM  H13T11503   4.790   2.780   7.491  1.0138 -1.3019 -1.2708
   8623SM  C14S11504   4.607   2.660   7.454  0.3070  0.1671 -0.4047
   8623SM  H14S11505   4.631   2.625   7.556 -0.9559  0.6871  0.0995
   8623SM  H14T11506   4.628   2.585   7.375 -0.3874 -0.5788  0.1059
   8623SM  C15S11507   4.452   2.670   7.440 -0.3019 -0.0324 -0.5063
   8623SM  H15S11508   4.428   2.684   7.333 -2.0077 -0.5309 -0.2101
   8623SM  H15T11509   4.412   2.754   7.501  0.6935 -0.2995  0.5551
   8623SM  C16S11510   4.395   2.526   7.491  0.7159  0.0300  0.1994
   8623SM  H16S11511   4.444   2.507   7.588  0.9426 -2.9333 -0.4134
   8623SM  H16T11512   4.418   2.445   7.418 -1.2703 -0.9105  0.5605
   8623SM  C17S11513   4.242   2.525   7.511  0.5238 -0.0095 -0.2768
   8623SM  H17S11514   4.199   2.428   7.545 -0.8825  0.8804  0.5854
   8623SM  H17T11515   4.177   2.554   7.426  0.0772  0.2203  0.1386
   8623SM  C18S11516   4.200   2.615   7.635  0.1119 -0.3024  0.0134
   8623SM  H18S11517   4.097   2.602   7.674 -0.0331 -0.9525 -0.5641
   8623SM  H18T11518   4.215   2.716   7.594  1.7484 -0.4796  0.1212
   8623SM  H18U11519   4.260   2.592   7.726  0.6342 -2.0221 -0.7154
   8623SM   C1F11520   5.425   2.279   6.556  0.1613 -0.7001 -0.3125
   8623SM    OF11521   5.513   2.287   6.480 -0.3362 -0.3162 -0.1550
   8623SM   C2F11522   5.454   2.201   6.678 -0.2694 -0.0814  0.4121
   8623SM   H2F11523   5.563   2.207   6.698 -0.1135 -0.2291 -0.3920
   8623SM   H2G11524   5.428   2.094   6.662  3.1137 -0.6206 -2.6385
   8623SM   C3F11525   5.392   2.270   6.797  0.4091 -0.5516 -0.1260
   8623SM   H3F11526   5.282   2.254   6.801  0.3832 -0.3758 -0.1455
   8623SM   H3G11527   5.407   2.380   6.794 -2.7513  0.0076  0.6930
   8623SM   C4F11528   5.447   2.215   6.932  0.8770 -0.1489 -0.1342
   8623SM   H4F11529   5.558   2.227   6.925  1.0583 -1.3458  0.5245
   8623SM   H4G11530   5.412   2.111   6.940 -0.8862  0.4869  0.8956
   8623SM   C5F11531   5.384   2.275   7.060 -0.3012 -0.2478 -0.1249
   8623SM   H5F11532   5.415   2.236   7.160  1.5635 -1.3170 -1.0720
   8623SM   H5G11533   5.277   2.243   7.058 -0.0384 -1.0865 -1.5487
   8623SM   C6F11534   5.395   2.428   7.049 -0.0101 -0.3393  0.3649
   8623SM   H6F11535   5.314   2.471   6.986 -0.0941  2.5453  2.2369
   8623SM   H6G11536   5.488   2.453   6.994  0.2592 -0.7490  0.6246
   8623SM   C7F11537   5.398   2.502   7.174 -0.6373  0.2438 -0.7680
   8623SM   H7F11538   5.477   2.454   7.235 -0.4331 -0.1282 -1.3095
   8623SM   H7G11539   5.303   2.486   7.228 -0.3469 -0.8088 -0.5347
   8623SM   C8F11540   5.413   2.650   7.133  0.7889 -0.2040  0.0901
   8623SM   H8F11541   5.327   2.699   7.082  0.0237 -0.0152  1.5168
   8623SM   H8G11542   5.495   2.654   7.058  1.1119  0.0290  0.4490
   8623SM   C9F11543   5.445   2.740   7.252 -0.7405 -0.2469 -0.2176
   8623SM   H9F11544   5.483   2.841   7.226 -0.3350  0.3805  2.4760
   8623SM   H9G11545   5.526   2.690   7.309  0.0479  0.7575 -0.4312
   8623SM  C10F11546   5.324   2.766   7.344 -0.2800  0.1078  0.0025
   8623SM  H10F11547   5.286   2.665   7.371 -1.3211  0.7018  0.8840
   8623SM  H10G11548   5.244   2.822   7.292  0.4241  0.6351 -0.5250
   8623SM  C11F11549   5.355   2.850   7.470 -0.1840 -0.0848  0.3108
   8623SM  H11F11550   5.397   2.945   7.431  0.9032 -0.1530  1.2363
   8623SM  H11G11551   5.441   2.794   7.515  0.1500 -0.8253 -1.1991
   8623SM  C12F11552   5.239   2.896   7.563  0.6653 -0.2465 -0.3132
   8623SM  H12F11553   5.182   2.973   7.506 -0.0155  0.9661  1.9061
   8623SM  H12G11554   5.274   2.950   7.653 -2.1383  0.4641  0.4705
   8623SM  C13F11555   5.145   2.784   7.603 -0.3245 -0.3917  0.2536
   8623SM  H13F11556   5.166   2.690   7.548  0.5280  0.8134 -1.5894
   8623SM  H13G11557   5.042   2.818   7.576  0.0190  0.3092 -0.1986
   8623SM  C14F11558   5.143   2.748   7.747  0.1103 -0.2333  0.0440
   8623SM  H14F11559   5.043   2.708   7.776  0.1658  0.5780  1.4608
   8623SM  H14G11560   5.151   2.846   7.799  1.1268  0.2586 -0.9952
   8623SM  C15F11561   5.239   2.646   7.797 -0.0759  0.0359  0.6758
   8623SM  H15F11562   5.334   2.662   7.742 -0.9347  0.2470 -0.8143
   8623SM  H15G11563   5.204   2.543   7.773  0.5645  0.5625 -3.0794
   8623SM  C16F11564   5.265   2.654   7.951  0.3002  0.2558 -1.0021
   8623SM  H16F11565   5.170   2.631   8.004  0.8987 -1.2947 -0.5274
   8623SM  H16G11566   5.297   2.758   7.971 -0.3689  1.1819 -4.1787
   8623SM  C17F11567   5.375   2.560   7.992  0.0921 -0.5829 -0.6428
   8623SM  H17F11568   5.470   2.587   7.942  0.0308  0.4036 -0.2415
   8623SM  H17G11569   5.341   2.459   7.960 -1.5212 -1.3328  2.9863
   8623SM  C18F11570   5.396   2.566   8.142  0.1274 -0.1584  0.3459
   8623SM  H18F11571   5.299   2.564   8.197 -0.6079 -1.6874 -0.9441
   8623SM  H18G11572   5.449   2.660   8.168 -0.6451  0.6067 -0.7593
   8623SM  C19F11573   5.483   2.453   8.193  0.5208  0.8974  0.2531
   8623SM  H19F11574   5.578   2.456   8.136  1.5183 -0.6214  1.7802
   8623SM  H19G11575   5.427   2.359   8.172  1.4000  0.2390  0.8111
   8623SM  C20F11576   5.516   2.453   8.342  0.1525 -0.4697 -0.3598
   8623SM  H20F11577   5.422   2.449   8.400  0.5789 -0.5134  0.3433
   8623SM  H20G11578   5.568   2.550   8.360  1.9289 -0.6438 -3.6022
   8623SM  C21F11579   5.613   2.341   8.374 -0.0219 -0.0203  0.2109
   8623SM  H21F11580   5.705   2.342   8.312  1.0210  1.0051  1.7092
   8623SM  H21G11581   5.556   2.247   8.356  0.3688 -0.1772 -0.2432
   8623SM  C22F11582   5.658   2.347   8.520  0.8912 -0.1035  0.9312
   8623SM  H22F11583   5.565   2.348   8.581 -0.8462 -0.5348 -1.5617
   8623SM  H22G11584   5.706   2.443   8.551  0.8948 -0.3508  1.7096
   8623SM  C23F11585   5.741   2.232   8.569 -0.1960  0.3822 -0.4542
   8623SM  H23F11586   5.679   2.142   8.549  0.7252 -0.6039  0.8877
   8623SM  H23G11587   5.762   2.250   8.676  1.3264 -0.4868 -0.5615
   8623SM  H23H11588   5.846   2.224   8.532  0.3892  0.0873  1.2079
   8723SM     N11589   6.987   2.707   6.414  0.4262  0.0731  0.1294
   8723SM   C1511590   6.896   2.638   6.313 -0.0122  0.6393  0.1485
   8723SM  H15A11591   6.798   2.631   6.358  0.4077 -1.3484  0.8353
   8723SM  H15B11592   6.946   2.545   6.289 -1.8389 -0.3228 -0.1913
   8723SM  H15C11593   6.887   2.689   6.218  3.5602 -1.1255 -1.3337
   8723SM   C1411594   7.028   2.608   6.506 -0.8102 -0.4354 -0.5961
   8723SM  H14A11595   6.945   2.573   6.566  0.5766 -0.8675  1.1690
   8723SM  H14B11596   7.105   2.641   6.575 -1.2688  1.3555 -0.8922
   8723SM  H14C11597   7.059   2.519   6.453 -0.7598 -0.2746 -0.8367
   8723SM   C1311598   7.094   2.762   6.330 -0.2500  0.0026  0.0251
   8723SM  H13A11599   7.138   2.679   6.276  1.1823  0.7953 -0.0850
   8723SM  H13B11600   7.173   2.817   6.378  0.7128  0.4328 -1.9556
   8723SM  H13C11601   7.049   2.833   6.262 -0.1399 -1.4126 -1.5979
   8723SM   C1211602   6.904   2.825   6.469 -0.3430 -0.0864  0.2121
   8723SM  H12A11603   6.897   2.885   6.380  3.6392  1.5014  0.7507
   8723SM  H12B11604   6.959   2.866   6.553 -1.1160 -1.6811  1.5676
   8723SM   C1111605   6.753   2.796   6.512  0.2227 -0.1862 -0.6497
   8723SM  H11A11606   6.740   2.881   6.582  3.2503 -0.4019  0.3094
   8723SM  H11B11607   6.748   2.698   6.564  0.6369  0.3921  0.5066
   8723SM     P11608   6.638   2.914   6.298 -0.0397 -0.0793  0.0017
   8723SM   O1311609   6.754   2.927   6.210  0.2304  0.6156  0.1385
   8723SM   O1411610   6.503   2.903   6.230  0.1176 -0.3732 -0.0034
   8723SM   O1111611   6.637   3.044   6.391  0.2269  0.0356  0.5344
   8723SM   O1211612   6.666   2.790   6.397  0.3660  0.1431  0.4400
   8723SM   C1S11613   6.514   3.076   6.456 -0.2583 -0.0377 -0.0430
   8723SM   H1S11614   6.448   2.989   6.478 -2.9256  1.7041 -0.6107
   8723SM   H1T11615   6.463   3.149   6.389 -1.3647 -0.6713  0.0773
   8723SM    NF11616   6.412   3.166   6.668 -0.0161 -0.1764 -0.7095
   8723SM   HNF11617   6.384   3.261   6.678 -0.0392 -0.3109  0.8531
   8723SM   C2S11618   6.540   3.139   6.599  0.3132 -0.7138  0.4403
   8723SM   H2S11619   6.588   3.061   6.662 -0.7705 -2.1324 -0.4308
   8723SM   C3S11620   6.640   3.259   6.589  0.3965  0.9121 -0.5244
   8723SM   H3S11621   6.600   3.342   6.526 -1.5210 -1.3629 -2.5091
   8723SM    O311622   6.771   3.242   6.527  0.2039  0.1113  0.0794
   8723SM   HO311623   6.757   3.166   6.469 -0.3415 -0.6313  1.1483
   8723SM   C4S11624   6.668   3.301   6.729  0.4103 -0.1282 -0.1981
   8723SM   H4S11625   6.578   3.335   6.784  2.7489  2.2172  2.5872
   8723SM   C5S11626   6.778   3.291   6.810  0.3800  0.7615 -0.4064
   8723SM   H5S11627   6.861   3.230   6.770 -2.3910 -1.5401 -3.1419
   8723SM   C6S11628   6.769   3.298   6.961 -0.5244 -1.0848 -0.2429
   8723SM   H6S11629   6.675   3.343   6.999  0.6047  1.8607 -0.7063
   8723SM   H6T11630   6.857   3.360   6.988 -1.2917 -0.3129  0.5698
   8723SM   C7S11631   6.803   3.161   7.024  0.8620 -0.3505 -0.4213
   8723SM   H7S11632   6.902   3.118   6.998  1.2034  0.3728 -0.3355
   8723SM   H7T11633   6.725   3.090   6.987  2.0108 -2.6949  1.3691
   8723SM   C8S11634   6.781   3.155   7.180 -0.3500  0.0892 -0.0566
   8723SM   H8S11635   6.691   3.217   7.202  0.4510  1.4627 -0.5250
   8723SM   H8T11636   6.858   3.204   7.244  0.9805 -1.1395 -0.6632
   8723SM   C9S11637   6.764   3.012   7.237 -0.3188 -0.1899 -0.2623
   8723SM   H9S11638   6.691   2.954   7.176  1.3728 -2.4348 -0.2489
   8723SM   H9T11639   6.711   3.018   7.335  0.2787  0.5422  0.0250
   8723SM  C10S11640   6.888   2.923   7.261 -0.0526  0.8469  0.1347
   8723SM  H10S11641   6.958   2.973   7.331  1.5242 -2.9281  1.5469
   8723SM  H10T11642   6.938   2.907   7.164  2.8845  0.8935  1.5298
   8723SM  C11S11643   6.849   2.802   7.351 -0.7524  0.1163 -0.3495
   8723SM  H11S11644   6.765   2.752   7.298 -0.3138 -0.0273 -0.9199
   8723SM  H11T11645   6.814   2.826   7.454  0.5228  1.2806 -0.1580
   8723SM  C12S11646   6.958   2.692   7.341 -0.6730 -0.1474 -0.6959
   8723SM  H12S11647   7.026   2.712   7.427  1.2596 -0.0134 -2.1981
   8723SM  H12T11648   7.014   2.704   7.245  3.2225  1.6151  1.5275
   8723SM  C13S11649   6.903   2.538   7.348  0.2752 -0.6178  0.5393
   8723SM  H13S11650   6.840   2.510   7.435 -0.8093 -0.3844 -0.1563
   8723SM  H13T11651   6.996   2.477   7.356  2.0397  1.7428 -0.5724
   8723SM  C14S11652   6.827   2.494   7.225  0.4935  0.1969 -0.8668
   8723SM  H14S11653   6.884   2.536   7.139 -1.1579  0.3083 -1.9493
   8723SM  H14T11654   6.731   2.549   7.237 -0.1736 -1.5280  4.1728
   8723SM  C15S11655   6.816   2.350   7.215 -0.6864  0.2506  0.1436
   8723SM  H15S11656   6.785   2.313   7.315  0.4359  1.0994  0.8321
   8723SM  H15T11657   6.915   2.308   7.186  0.1334  2.1901 -0.0642
   8723SM  C16S11658   6.713   2.315   7.110  0.1540 -0.4883 -0.2982
   8723SM  H16S11659   6.710   2.206   7.088 -1.6207 -0.3477 -0.9333
   8723SM  H16T11660   6.739   2.366   7.016 -2.8684  1.4569 -0.2339
   8723SM  C17S11661   6.566   2.355   7.154  0.1185 -0.1955 -0.2334
   8723SM  H17S11662   6.483   2.311   7.094 -0.0406 -0.4170  0.1469
   8723SM  H17T11663   6.559   2.463   7.129 -2.7272 -0.0197  0.9133
   8723SM  C18S11664   6.527   2.327   7.296  0.4335  0.2482 -0.0101
   8723SM  H18S11665   6.579   2.387   7.374  0.9137 -0.7786  0.4842
   8723SM  H18T11666   6.541   2.221   7.324 -0.1107 -0.5236 -2.4390
   8723SM  H18U11667   6.416   2.331   7.307  0.3720 -2.0519  0.6899
   8723SM   C1F11668   6.344   3.077   6.738 -0.1936 -0.1576  0.1363
   8723SM    OF11669   6.386   2.960   6.737 -0.3893  0.1893 -0.1669
   8723SM   C2F11670   6.225   3.116   6.819 -0.4788  0.0423 -0.4385
   8723SM   H2F11671   6.192   3.221   6.803  0.0484  0.9269  3.3191
   8723SM   H2G11672   6.263   3.111   6.923 -1.4765 -0.4537 -0.0819
   8723SM   C3F11673   6.108   3.018   6.793 -0.0428 -0.1677 -0.4958
   8723SM   H3F11674   6.134   2.916   6.827 -0.8692  0.0919  0.9867
   8723SM   H3G11675   6.085   3.015   6.684  1.0712 -0.3899 -0.7383
   8723SM   C4F11676   5.988   3.065   6.881 -0.0763  0.0869  0.8643
   8723SM   H4F11677   6.019   3.088   6.985 -2.4548  1.5613  1.3200
   8723SM   H4G11678   5.906   2.990   6.879 -0.1917  0.2140 -0.7887
   8723SM   C5F11679   5.919   3.204   6.854 -0.0898 -0.1846  0.4018
   8723SM   H5F11680   5.893   3.206   6.747 -0.5686 -2.3008  0.4304
   8723SM   H5G11681   5.995   3.283   6.874 -0.3131  1.1251 -3.2172
   8723SM   C6F11682   5.789   3.234   6.946  0.3533  0.5538 -0.1546
   8723SM   H6F11683   5.711   3.161   6.916  0.7103 -1.4195  3.1785
   8723SM   H6G11684   5.745   3.334   6.928 -0.0058  0.0881 -2.1335
   8723SM   C7F11685   5.824   3.236   7.100 -0.3759 -0.2367  0.0321
   8723SM   H7F11686   5.897   3.318   7.118 -1.7915  1.3080 -0.9069
   8723SM   H7G11687   5.866   3.141   7.138  0.2095 -0.1930 -0.4987
   8723SM   C8F11688   5.702   3.269   7.190  0.2967  0.1655  0.4783
   8723SM   H8F11689   5.622   3.192   7.180  1.1571 -0.9440  1.7885
   8723SM   H8G11690   5.661   3.365   7.153  0.4992 -1.0786 -3.3596
   8723SM   C9F11691   5.752   3.285   7.330  0.2804 -0.5389 -0.2614
   8723SM   H9F11692   5.781   3.389   7.356  0.1378 -0.6471  0.3514
   8723SM   H9G11693   5.849   3.231   7.329  0.5956  0.0283 -0.3232
   8723SM  C10F11694   5.660   3.218   7.427  0.1106 -0.2099  0.2426
   8723SM  H10F11695   5.659   3.108   7.419 -0.8018 -0.1083 -1.5948
   8723SM  H10G11696   5.559   3.264   7.416  0.6660  0.6191 -1.9425
   8723SM  C11F11697   5.697   3.250   7.570  0.1610 -0.5174  0.4519
   8723SM  H11F11698   5.808   3.241   7.575  0.3472  0.1647 -1.4610
   8723SM  H11G11699   5.659   3.165   7.630 -3.0155 -1.2020 -2.2292
   8723SM  C12F11700   5.670   3.394   7.623 -0.1019 -0.5405  0.1750
   8723SM  H12F11701   5.733   3.471   7.574  0.6603 -0.2602  1.5269
   8723SM  H12G11702   5.709   3.402   7.727  0.4605 -0.1530 -0.0587
   8723SM  C13F11703   5.516   3.428   7.633 -0.4204 -0.3227  0.2977
   8723SM  H13F11704   5.489   3.436   7.525  0.0305 -0.6735  0.1560
   8723SM  H13G11705   5.520   3.521   7.693  1.3067 -0.5825  0.6385
   8723SM  C14F11706   5.437   3.310   7.700  0.8135 -0.2605  0.7821
   8723SM  H14F11707   5.479   3.288   7.801 -0.6342 -0.6924  1.3095
   8723SM  H14G11708   5.461   3.219   7.641  1.3222  0.6340 -0.4539
   8723SM  C15F11709   5.284   3.330   7.715  0.2358  0.0471  0.2443
   8723SM  H15F11710   5.237   3.262   7.641  1.5203 -1.0147  0.3726
   8723SM  H15G11711   5.252   3.428   7.672 -0.3748 -0.2518  0.0053
   8723SM  C16F11712   5.238   3.314   7.864  0.8472 -0.0557 -0.1387
   8723SM  H16F11713   5.128   3.330   7.869  0.6046 -1.6023 -0.0114
   8723SM  H16G11714   5.289   3.392   7.925 -0.6311  1.3724 -0.6315
   8723SM  C17F11715   5.265   3.169   7.910 -0.1591  0.6371  0.0197
   8723SM  H17F11716   5.371   3.148   7.936  0.2771  1.6323 -0.8663
   8723SM  H17G11717   5.255   3.111   7.816  1.7301  0.3131 -0.0350
   8723SM  C18F11718   5.170   3.126   8.020 -0.1299 -0.4521  1.2115
   8723SM  H18F11719   5.074   3.167   7.982  0.4913 -0.6783 -0.7193
   8723SM  H18G11720   5.189   3.190   8.109 -2.8136 -0.1126  1.6074
   8723SM  C19F11721   5.158   2.980   8.062 -0.1174 -0.0596  0.3616
   8723SM  H19F11722   5.254   2.942   8.103 -0.9045 -0.4673  1.9202
   8723SM  H19G11723   5.135   2.932   7.965 -0.1653  2.0934 -0.7454
   8723SM  C20F11724   5.048   2.946   8.163 -0.5226 -0.3603 -0.3492
   8723SM  H20F11725   5.049   2.839   8.194  0.1516 -0.6865 -1.4572
   8723SM  H20G11726   4.951   2.961   8.112 -0.1810 -0.7719 -1.1281
   8723SM  C21F11727   5.068   3.028   8.293 -0.3402  0.4273 -0.6017
   8723SM  H21F11728   5.060   3.137   8.274 -2.1128  0.8353  2.0199
   8723SM  H21G11729   5.170   3.003   8.330 -0.5668 -1.4556 -1.1364
   8723SM  C22F11730   4.961   2.979   8.405 -0.2265  0.3323  0.6037
   8723SM  H22F11731   4.980   2.872   8.425 -1.7904 -0.1990 -0.6096
   8723SM  H22G11732   4.862   2.994   8.357  0.2972 -0.3061 -0.7134
   8723SM  C23F11733   4.971   3.066   8.530  0.1882 -0.2581  0.7492
   8723SM  H23F11734   4.902   3.041   8.613 -1.1082  0.4522 -0.0978
   8723SM  H23G11735   4.962   3.171   8.496 -0.5538 -0.8941 -1.1460
   8723SM  H23H11736   5.075   3.058   8.568  0.1150  1.7282  1.4411
   8823SM     N11737   3.216   1.367   6.400 -0.4857  0.2996 -0.4470
   8823SM   C1511738   3.121   1.438   6.305  0.3093  0.2047  0.5758
   8823SM  H15A11739   3.036   1.375   6.284  0.6235  0.1240 -0.5203
   8823SM  H15B11740   3.181   1.450   6.216  0.9871 -1.7156  0.7201
   8823SM  H15C11741   3.087   1.535   6.339  1.2235  1.3847 -1.6659
   8823SM   C1411742   3.234   1.228   6.349 -0.1785  0.3920 -0.1473
   8823SM  H14A11743   3.330   1.185   6.374  0.0284  0.0080 -1.5220
   8823SM  H14B11744   3.223   1.225   6.242 -2.1248 -1.0559  0.0325
   8823SM  H14C11745   3.164   1.156   6.390  2.2515 -1.1904  1.4881
   8823SM   C1311746   3.344   1.436   6.391 -0.2875  0.2037 -0.0430
   8823SM  H13A11747   3.331   1.538   6.424 -0.7580  0.4482 -0.9456
   8823SM  H13B11748   3.380   1.450   6.290  1.0591  1.5444  0.5888
   8823SM  H13C11749   3.422   1.395   6.452  0.4886  0.1210 -1.0689
   8823SM   C1211750   3.158   1.363   6.536 -0.2598  0.0494 -0.4995
   8823SM  H12A11751   3.159   1.465   6.570 -1.4261  0.0503 -0.4303
   8823SM  H12B11752   3.227   1.304   6.595  0.1780 -0.4123 -1.4623
   8823SM   C1111753   3.014   1.300   6.548  0.3178 -0.4906 -0.6444
   8823SM  H11A11754   2.946   1.359   6.483  0.4088  1.5538  1.0150
   8823SM  H11B11755   2.988   1.304   6.655  4.4872 -0.4989  0.5729
   8823SM     P11756   3.035   1.045   6.611  0.2584 -0.2979 -0.2349
   8823SM   O1311757   2.916   1.031   6.700 -0.0245 -0.1726 -0.7961
   8823SM   O1411758   3.070   0.932   6.527 -0.4018 -0.4820  0.0394
   8823SM   O1111759   3.151   1.102   6.699  0.3093  0.2435  0.0918
   8823SM   O1211760   3.006   1.165   6.507  0.2343 -0.0940  0.6630
   8823SM   C1S11761   3.244   0.998   6.751 -0.6542  0.0880 -0.2738
   8823SM   H1S11762   3.302   0.954   6.668  1.3681 -0.4153  1.3229
   8823SM   H1T11763   3.185   0.915   6.795 -0.6918  0.1704 -0.1650
   8823SM    NF11764   3.416   0.937   6.911 -0.6371 -0.2658 -0.1874
   8823SM   HNF11765   3.412   0.896   7.002  0.3893 -0.0279 -0.0225
   8823SM   C2S11766   3.340   1.046   6.866  0.7031  0.5272  0.8538
   8823SM   H2S11767   3.418   1.113   6.825  0.5523  0.3669  0.2924
   8823SM   C3S11768   3.258   1.126   6.977 -0.6106 -0.3368 -0.3286
   8823SM   H3S11769   3.175   1.068   7.022 -0.5915 -0.0985  0.0196
   8823SM    O311770   3.177   1.231   6.932  0.1000 -0.1388  0.3717
   8823SM   HO311771   3.168   1.208   6.839 -1.0281 -0.4489  0.5407
   8823SM   C4S11772   3.360   1.173   7.081 -0.4169  0.4152 -0.1894
   8823SM   H4S11773   3.389   1.105   7.163 -3.4000 -1.4238 -0.5174
   8823SM   C5S11774   3.410   1.295   7.085 -0.3062  0.3716 -0.0649
   8823SM   H5S11775   3.367   1.379   7.028  1.3223  0.9316 -0.5044
   8823SM   C6S11776   3.497   1.348   7.194  0.3613 -0.9914  0.2126
   8823SM   H6S11777   3.467   1.455   7.202  1.5670 -0.5842 -0.3750
   8823SM   H6T11778   3.597   1.354   7.145 -0.8754 -1.7660 -2.6310
   8823SM   C7S11779   3.523   1.267   7.328  0.2458 -0.4984 -0.2085
   8823SM   H7S11780   3.526   1.158   7.307 -0.2945 -0.7116  0.7783
   8823SM   H7T11781   3.441   1.285   7.400  0.6089 -2.5198  0.7910
   8823SM   C8S11782   3.657   1.299   7.400 -1.3318  0.1009 -0.3336
   8823SM   H8S11783   3.736   1.317   7.324 -0.7690  0.7175  0.3903
   8823SM   H8T11784   3.702   1.213   7.454  0.9938 -0.6568 -3.2514
   8823SM   C9S11785   3.650   1.418   7.492  0.5388  0.1703  0.4937
   8823SM   H9S11786   3.569   1.390   7.563 -0.0103  0.8917  0.1597
   8823SM   H9T11787   3.610   1.509   7.442 -0.5008 -0.6446 -0.1993
   8823SM  C10S11788   3.778   1.438   7.568 -0.5468 -0.3624  0.2561
   8823SM  H10S11789   3.869   1.449   7.505  0.1550 -0.4400  1.2328
   8823SM  H10T11790   3.805   1.350   7.630  0.8365 -0.7479 -0.8493
   8823SM  C11S11791   3.762   1.554   7.669  0.3279 -0.0425  0.0335
   8823SM  H11S11792   3.769   1.634   7.593  0.8097 -0.3389 -0.2408
   8823SM  H11T11793   3.845   1.554   7.743 -0.0084 -0.6597  0.4209
   8823SM  C12S11794   3.634   1.577   7.747 -0.1037 -0.1474 -0.2916
   8823SM  H12S11795   3.612   1.476   7.786  2.3766 -0.8126 -0.4414
   8823SM  H12T11796   3.549   1.626   7.695  0.7320  2.7117  0.8241
   8823SM  C13S11797   3.661   1.677   7.859 -0.1068 -0.5661 -0.3522
   8823SM  H13S11798   3.700   1.769   7.811 -1.4346 -0.6298 -1.5962
   8823SM  H13T11799   3.741   1.644   7.929 -0.0062 -0.6651 -0.5140
   8823SM  C14S11800   3.527   1.720   7.929 -0.0662  0.1376 -0.0020
   8823SM  H14S11801   3.468   1.787   7.862  0.9331 -0.1859 -1.2356
   8823SM  H14T11802   3.538   1.780   8.022 -1.6412  0.7621 -0.1859
   8823SM  C15S11803   3.445   1.603   7.989  0.5474 -0.2011 -0.0747
   8823SM  H15S11804   3.511   1.540   8.052  0.0202  0.3891  1.0801
   8823SM  H15T11805   3.419   1.534   7.905 -0.7839  0.6200 -0.3782
   8823SM  C16S11806   3.317   1.648   8.055 -0.1470  0.2863  0.0490
   8823SM  H16S11807   3.286   1.745   8.009  1.6915  0.6415 -0.5191
   8823SM  H16T11808   3.336   1.677   8.161  2.4443  2.9080 -0.9716
   8823SM  C17S11809   3.196   1.547   8.050  0.1655  0.5126  0.4687
   8823SM  H17S11810   3.222   1.451   8.098 -1.1649 -1.0691 -1.7845
   8823SM  H17T11811   3.186   1.515   7.944  0.6228 -1.6532  1.0402
   8823SM  C18S11812   3.061   1.603   8.093 -0.5727 -0.1196 -0.1494
   8823SM  H18S11813   3.074   1.641   8.197  3.2589  0.3038 -0.6422
   8823SM  H18T11814   2.984   1.523   8.096 -0.8984  0.1987  0.2225
   8823SM  H18U11815   3.027   1.693   8.038  2.3236  1.0483 -0.2143
   8823SM   C1F11816   3.506   0.868   6.841  0.2399 -0.0614  0.1978
   8823SM    OF11817   3.551   0.925   6.740 -0.1763 -0.0867 -0.1124
   8823SM   C2F11818   3.551   0.732   6.890  0.0528 -0.3275  0.3896
   8823SM   H2F11819   3.583   0.667   6.806 -0.7218  0.7822 -0.8081
   8823SM   H2G11820   3.462   0.685   6.936 -1.4143  0.8952 -1.0770
   8823SM   C3F11821   3.663   0.743   6.990 -0.5725 -0.1444 -0.1921
   8823SM   H3F11822   3.757   0.791   6.953 -1.4640 -0.2623 -2.8220
   8823SM   H3G11823   3.699   0.639   7.002 -0.2865 -0.1063 -0.6753
   8823SM   C4F11824   3.626   0.798   7.125 -0.1693  0.2523  0.5795
   8823SM   H4F11825   3.547   0.876   7.122  0.2089  0.6514  0.8828
   8823SM   H4G11826   3.718   0.843   7.168 -0.8993  0.2114  2.2848
   8823SM   C5F11827   3.578   0.694   7.233  0.4880 -0.3863  0.0520
   8823SM   H5F11828   3.658   0.628   7.271  0.5877  0.2809  1.0247
   8823SM   H5G11829   3.501   0.629   7.186 -0.5311 -0.8007  2.2023
   8823SM   C6F11830   3.497   0.743   7.351  0.4750 -0.2429 -0.0336
   8823SM   H6F11831   3.447   0.652   7.389  0.0521 -0.3043 -0.7341
   8823SM   H6G11832   3.419   0.814   7.315  0.9013 -0.0211 -0.5399
   8823SM   C7F11833   3.574   0.810   7.462 -0.0727  0.0275 -0.2313
   8823SM   H7F11834   3.644   0.887   7.423  0.8792 -1.9854 -2.7657
   8823SM   H7G11835   3.636   0.725   7.498  0.6931  0.0416 -1.4871
   8823SM   C8F11836   3.488   0.858   7.580 -0.0438  0.7747  0.0233
   8823SM   H8F11837   3.441   0.958   7.575 -3.0098 -0.3285  2.5342
   8823SM   H8G11838   3.542   0.877   7.675  0.4148  1.6174 -0.3990
   8823SM   C9F11839   3.377   0.758   7.618 -0.5298 -0.0780  0.1754
   8823SM   H9F11840   3.426   0.659   7.634  2.6341  0.9855 -2.0094
   8823SM   H9G11841   3.299   0.749   7.540 -1.2400  1.3561  0.7012
   8823SM  C10F11842   3.303   0.793   7.747  0.2310 -0.2667  0.2652
   8823SM  H10F11843   3.254   0.890   7.725  0.9814 -0.4038 -2.3599
   8823SM  H10G11844   3.376   0.816   7.828  0.4922  1.4436 -0.4087
   8823SM  C11F11845   3.199   0.695   7.787  0.5521 -0.6246  0.0498
   8823SM  H11F11846   3.125   0.673   7.707  1.6745  0.0793 -1.2380
   8823SM  H11G11847   3.144   0.742   7.871  0.2726 -2.1945  0.7952
   8823SM  C12F11848   3.252   0.560   7.842  0.1153 -0.5489 -0.1830
   8823SM  H12F11849   3.337   0.587   7.908 -0.4499  0.1681  0.2714
   8823SM  H12G11850   3.298   0.499   7.762 -0.0169 -0.6375 -0.1899
   8823SM  C13F11851   3.151   0.466   7.909 -0.3278 -0.3617  0.5068
   8823SM  H13F11852   3.135   0.510   8.010  1.9198 -0.7008  1.0777
   8823SM  H13G11853   3.205   0.369   7.915 -1.2318 -1.0289 -1.4053
   8823SM  C14F11854   3.021   0.444   7.825 -1.4182  0.3337  0.0133
   8823SM  H14F11855   3.044   0.404   7.724 -0.4051  1.2984 -0.1547
   8823SM  H14G11856   2.963   0.537   7.805  0.0628  1.3492  0.2890
   8823SM  C15F11857   2.934   0.330   7.879  0.0527  0.0426 -0.4450
   8823SM  H15F11858   2.893   0.362   7.977  1.6221 -0.3460  0.3635
   8823SM  H15G11859   2.991   0.236   7.893  0.0836 -0.0350 -1.0332
   8823SM  C16F11860   2.807   0.296   7.790 -0.1384 -0.1777  0.3139
   8823SM  H16F11861   2.768   0.392   7.749  0.5214 -0.2390 -0.4858
   8823SM  H16G11862   2.728   0.255   7.857  0.4524 -1.1827  0.4167
   8823SM  C17F11863   2.851   0.194   7.677  0.2085 -0.3331  0.0531
   8823SM  H17F11864   2.926   0.125   7.723  1.7919  1.3729  0.1496
   8823SM  H17G11865   2.905   0.235   7.589  2.1642 -1.4564  0.6706
   8823SM  C18F11866   2.739   0.097   7.631 -0.1787 -0.1803 -0.3047
   8823SM  H18F11867   2.719   0.026   7.714  0.1894 -0.2751 -0.2953
   8823SM  H18G11868   2.763   0.028   7.547 -0.2529  0.2690 -0.7022
   8823SM  C19F11869   2.624   0.174   7.578 -0.9535 -0.3499  0.1777
   8823SM  H19F11870   2.657   0.234   7.491 -1.5151  0.0165  0.2142
   8823SM  H19G11871   2.593   0.246   7.656  0.3291 -0.3630  0.7213
   8823SM  C20F11872   2.504   0.075   7.543 -0.1684  0.4084  0.4562
   8823SM  H20F11873   2.524   0.015   7.452  0.0385  1.7096 -0.3762
   8823SM  H20G11874   2.422   0.141   7.508  0.1562 -0.4177 -2.0375
   8823SM  C21F11875   2.472  -0.026   7.650  0.1378 -0.0964 -0.6518
   8823SM  H21F11876   2.458   0.033   7.743  0.6857  1.5922 -1.5901
   8823SM  H21G11877   2.562  -0.089   7.671  1.2753  2.3622  2.7592
   8823SM  C22F11878   2.345  -0.117   7.618 -0.2103  0.0664  0.4693
   8823SM  H22F11879   2.352  -0.148   7.511 -1.9955  0.0763  0.3227
   8823SM  H22G11880   2.259  -0.047   7.610  0.8836  1.3730 -0.7165
   8823SM  C23F11881   2.335  -0.223   7.720 -0.3029  0.4963 -0.2626
   8823SM  H23F11882   2.279  -0.314   7.688  0.2132  0.4046 -0.9349
   8823SM  H23G11883   2.287  -0.195   7.816  0.5508  2.7579 -0.4542
   8823SM  H23H11884   2.433  -0.263   7.755 -0.2227  0.6810 -0.2758
   8923SM     N11885   8.976   2.904   6.459 -0.3205  0.3944  0.4043
   8923SM   C1511886   8.965   2.981   6.338 -0.9060  0.0488  0.7125
   8923SM  H15A11887   8.860   2.999   6.319 -0.5387  0.9699 -0.6073
   8923SM  H15B11888   9.018   2.928   6.260  1.7279  2.4691  0.6939
   8923SM  H15C11889   9.017   3.075   6.347 -2.4633  1.0936 -0.5454
   8923SM   C1411890   8.932   2.763   6.430 -0.3181  0.2366 -0.5572
   8923SM  H14A11891   8.827   2.758   6.403 -0.3804 -0.3363 -0.2065
   8923SM  H14B11892   8.952   2.708   6.520 -1.7188 -0.1543 -0.4674
   8923SM  H14C11893   8.993   2.718   6.353 -0.5587  0.6031 -0.9711
   8923SM   C1311894   9.116   2.901   6.500 -0.1464 -0.2022  0.6673
   8923SM  H13A11895   9.180   2.861   6.423  0.6714 -0.8973  1.6733
   8923SM  H13B11896   9.138   2.846   6.590  0.6207 -2.6298 -0.9199
   8923SM  H13C11897   9.150   3.002   6.521 -1.3773  0.5016 -0.5659
   8923SM   C1211898   8.896   2.968   6.572 -0.6654 -0.2427 -0.5864
   8923SM  H12A11899   8.928   3.071   6.578  0.0870 -0.5279  0.5052
   8923SM  H12B11900   8.915   2.922   6.668 -0.1302 -2.0440 -1.5046
   8923SM   C1111901   8.740   2.970   6.570 -0.8935  0.0755  0.0311
   8923SM  H11A11902   8.699   2.999   6.669 -1.4704 -0.7518  0.0517
   8923SM  H11B11903   8.695   2.869   6.556  0.4063 -0.4264 -0.7443
   8923SM     P11904   8.666   3.207   6.486  0.1893 -0.3060 -0.5923
   8923SM   O1311905   8.797   3.273   6.508  0.3103  0.5695 -0.2145
   8923SM   O1411906   8.587   3.250   6.371 -0.1726  0.2979  1.0590
   8923SM   O1111907   8.580   3.201   6.613 -0.5829  0.1359  0.3201
   8923SM   O1211908   8.694   3.056   6.462 -0.0248  0.2223  0.5899
   8923SM   C1S11909   8.477   3.111   6.636  0.3305  0.4255  0.0573
   8923SM   H1S11910   8.486   3.009   6.591  0.8635 -0.0893  1.3031
   8923SM   H1T11911   8.389   3.161   6.590 -0.4032  0.0450  1.0189
   8923SM    NF11912   8.319   3.004   6.796 -0.7433 -0.8734  0.3260
   8923SM   HNF11913   8.232   3.053   6.792 -0.1494  0.1367 -0.7727
   8923SM   C2S11914   8.441   3.090   6.786  0.0581  0.1618  0.3858
   8923SM   H2S11915   8.528   3.038   6.832  0.7564  1.0949  0.1334
   8923SM   C3S11916   8.424   3.232   6.855  0.2658  0.0739  0.1473
   8923SM   H3S11917   8.358   3.299   6.796 -0.0559  2.3276  2.8683
   8923SM    O311918   8.554   3.296   6.871 -0.1548  0.0044 -0.8831
   8923SM   HO311919   8.603   3.257   6.799 -1.6860 -1.5123 -1.1541
   8923SM   C4S11920   8.366   3.218   6.998 -0.0238 -1.2903 -0.9611
   8923SM   H4S11921   8.440   3.198   7.077 -2.2043 -1.1964  1.2305
   8923SM   C5S11922   8.237   3.219   7.025 -1.1866  0.2763  0.0774
   8923SM   H5S11923   8.169   3.236   6.940 -0.8041  4.2537  0.3664
   8923SM   C6S11924   8.175   3.195   7.158  0.5568 -0.0997  0.2254
   8923SM   H6S11925   8.250   3.171   7.236 -1.0213  0.5781  2.0071
   8923SM   H6T11926   8.113   3.103   7.163 -0.0820  0.3990  2.8766
   8923SM   C7S11927   8.089   3.305   7.220  0.0680  0.1124 -0.3368
   8923SM   H7S11928   8.000   3.320   7.156 -0.5045 -1.1011  0.1401
   8923SM   H7T11929   8.132   3.407   7.217 -1.0261  0.6396  1.1707
   8923SM   C8S11930   8.056   3.269   7.369 -0.0455 -0.6550 -0.2939
   8923SM   H8S11931   8.153   3.289   7.420  0.4815  0.0363 -1.5331
   8923SM   H8T11932   8.026   3.164   7.390 -2.3985 -0.0803 -0.5119
   8923SM   C9S11933   7.946   3.356   7.431  0.7467 -0.0150 -0.1182
   8923SM   H9S11934   7.855   3.306   7.392  2.0510 -1.4505 -1.4976
   8923SM   H9T11935   7.955   3.458   7.387  0.0022 -0.6597 -1.8556
   8923SM  C10S11936   7.955   3.360   7.587 -0.1586 -0.4729  0.2105
   8923SM  H10S11937   8.054   3.400   7.617 -0.6120  1.5131 -0.7612
   8923SM  H10T11938   7.950   3.254   7.619  0.3692 -0.4512  0.3798
   8923SM  C11S11939   7.843   3.448   7.639 -0.3051  0.3000  0.1529
   8923SM  H11S11940   7.830   3.431   7.748 -0.6778 -2.2906 -0.2313
   8923SM  H11T11941   7.746   3.429   7.588  0.8523  0.0275 -2.0483
   8923SM  C12S11942   7.861   3.604   7.622  0.0093  0.1637  0.0816
   8923SM  H12S11943   7.867   3.619   7.513 -0.3302  1.2283  0.2022
   8923SM  H12T11944   7.959   3.635   7.663  0.0073 -0.7530  0.8223
   8923SM  C13S11945   7.746   3.684   7.679 -0.5846  0.5065  0.0461
   8923SM  H13S11946   7.761   3.713   7.785  1.1259 -0.8532  0.2275
   8923SM  H13T11947   7.654   3.622   7.676 -0.4815  0.3816 -1.3589
   8923SM  C14S11948   7.717   3.813   7.603 -0.8559  0.4552 -0.1068
   8923SM  H14S11949   7.813   3.861   7.576 -0.4762  0.1524  0.6742
   8923SM  H14T11950   7.669   3.894   7.663  0.4256  0.6906  0.6201
   8923SM  C15S11951   7.623   3.803   7.478 -0.3643  0.6881  0.6884
   8923SM  H15S11952   7.526   3.764   7.517  0.3427 -1.9022  0.0409
   8923SM  H15T11953   7.656   3.726   7.406 -1.3873 -0.2006  1.1500
   8923SM  C16S11954   7.612   3.931   7.395 -0.0342  0.1929  0.0625
   8923SM  H16S11955   7.606   4.028   7.449  0.3544 -0.4763  1.3619
   8923SM  H16T11956   7.513   3.911   7.349  0.0630 -1.0287  0.3455
   8923SM  C17S11957   7.716   3.928   7.286  0.8751 -0.0529 -0.5660
   8923SM  H17S11958   7.692   3.840   7.222 -1.4820  0.0922  0.0332
   8923SM  H17T11959   7.814   3.911   7.335  1.0059  0.6627 -0.5664
   8923SM  C18S11960   7.713   4.051   7.204  0.1601  0.6877  0.1719
   8923SM  H18S11961   7.704   4.139   7.272 -0.8815  0.0131  0.9357
   8923SM  H18T11962   7.636   4.038   7.126 -1.4014  0.0357  1.7683
   8923SM  H18U11963   7.809   4.054   7.148  1.2939  0.5966  2.0073
   8923SM   C1F11964   8.329   2.875   6.782 -0.4668  0.2495  0.1033
   8923SM    OF11965   8.437   2.816   6.774 -0.0074 -0.3701  0.0225
   8923SM   C2F11966   8.203   2.789   6.774  0.6297  0.6091  0.2787
   8923SM   H2F11967   8.236   2.685   6.754  0.3849  0.9579 -2.2352
   8923SM   H2G11968   8.138   2.836   6.697  4.0047 -0.0027 -3.2305
   8923SM   C3F11969   8.126   2.800   6.908  0.7610 -0.1598  0.6707
   8923SM   H3F11970   8.043   2.726   6.914  1.8840 -1.4649  0.5269
   8923SM   H3G11971   8.080   2.901   6.904  1.2523  0.0351 -1.6347
   8923SM   C4F11972   8.208   2.794   7.035 -0.6643 -0.2163 -0.4974
   8923SM   H4F11973   8.262   2.889   7.057  1.2795 -1.1317 -1.1046
   8923SM   H4G11974   8.282   2.713   7.021 -0.7293 -0.3187 -0.2457
   8923SM   C5F11975   8.117   2.773   7.153 -0.1306  0.3399 -0.3390
   8923SM   H5F11976   8.073   2.671   7.151 -0.0145  0.2824  0.0863
   8923SM   H5G11977   8.027   2.836   7.137  0.1827  0.4561 -1.8000
   8923SM   C6F11978   8.176   2.798   7.299  0.1531 -0.5195  0.3938
   8923SM   H6F11979   8.199   2.906   7.310 -0.5688 -0.4523  1.3088
   8923SM   H6G11980   8.277   2.751   7.299  0.2440 -0.5363 -2.7091
   8923SM   C7F11981   8.094   2.758   7.418 -0.0791  0.1989  0.2648
   8923SM   H7F11982   8.161   2.733   7.504 -1.2824 -2.5951  0.4996
   8923SM   H7G11983   8.035   2.665   7.404 -1.6482  1.1198  0.5530
   8923SM   C8F11984   8.000   2.873   7.451  0.7158 -0.2229 -0.3457
   8923SM   H8F11985   7.925   2.873   7.370 -1.4407  0.2623  1.5450
   8923SM   H8G11986   8.057   2.968   7.447 -1.7285  1.2614 -1.2784
   8923SM   C9F11987   7.917   2.838   7.579 -0.0980  0.2899 -0.1354
   8923SM   H9F11988   7.983   2.820   7.666 -0.8560  0.0463  0.3969
   8923SM   H9G11989   7.859   2.749   7.544 -0.2960 -0.0895  1.1231
   8923SM  C10F11990   7.819   2.944   7.628  0.0849 -0.7250  0.7845
   8923SM  H10F11991   7.867   3.040   7.656  0.6133 -0.3783 -1.1110
   8923SM  H10G11992   7.753   2.917   7.713 -0.5786 -0.0186  0.5133
   8923SM  C11F11993   7.712   2.991   7.516 -0.1430 -0.3061  0.2039
   8923SM  H11F11994   7.680   2.906   7.452  1.8039 -0.9257 -0.0086
   8923SM  H11G11995   7.768   3.062   7.450 -1.2751  1.0193  0.6258
   8923SM  C12F11996   7.594   3.069   7.573 -0.1879  0.9646  0.2624
   8923SM  H12F11997   7.517   3.001   7.614  1.9469 -1.3099  0.7222
   8923SM  H12G11998   7.549   3.129   7.491  0.2380  0.4652 -0.3463
   8923SM  C13F11999   7.626   3.169   7.684 -0.0558 -0.0530 -0.4799
   8923SM  H13F12000   7.719   3.223   7.656 -0.1986 -0.4693 -1.8620
   8923SM  H13G12001   7.644   3.111   7.777 -0.8507 -0.4396 -0.5559
   8923SM  C14F12002   7.502   3.261   7.723 -0.5203 -0.8867  0.0976
   8923SM  H14F12003   7.467   3.318   7.635  0.3790  0.9331  0.8646
   8923SM  H14G12004   7.537   3.337   7.797  2.0043  0.5210 -2.3598
   8923SM  C15F12005   7.392   3.189   7.791 -0.2986  0.2055  0.0475
   8923SM  H15F12006   7.422   3.156   7.893 -1.5954  1.2656  0.8121
   8923SM  H15G12007   7.378   3.091   7.742 -1.8233 -0.5376  1.8042
   8923SM  C16F12008   7.262   3.269   7.791  0.1578  0.4078 -0.3698
   8923SM  H16F12009   7.243   3.309   7.689  3.0920  1.5362 -0.5462
   8923SM  H16G12010   7.262   3.357   7.860 -1.4846  0.1147  0.0697
   8923SM  C17F12011   7.140   3.190   7.833  0.7080  0.3513 -0.1903
   8923SM  H17F12012   7.059   3.264   7.850  1.1316  0.3100  2.4433
   8923SM  H17G12013   7.148   3.155   7.938  0.0823  0.5629 -0.0703
   8923SM  C18F12014   7.107   3.076   7.733 -0.8477  0.1244 -0.1437
   8923SM  H18F12015   7.180   2.995   7.755  0.5142  0.2859 -3.5330
   8923SM  H18G12016   7.136   3.117   7.634 -0.0902  1.1655  0.4863
   8923SM  C19F12017   6.960   3.028   7.725  0.2822 -0.3383  0.1460
   8923SM  H19F12018   6.915   2.996   7.821 -0.6739  0.5076 -0.0133
   8923SM  H19G12019   6.970   2.935   7.664  1.3521 -0.2475  0.1506
   8923SM  C20F12020   6.868   3.133   7.664 -0.1305  0.1223  0.0774
   8923SM  H20F12021   6.879   3.112   7.556 -0.7122  0.2017 -0.0004
   8923SM  H20G12022   6.902   3.237   7.682  1.5916  0.0974 -2.5610
   8923SM  C21F12023   6.725   3.106   7.713 -0.8157 -0.1616  0.4625
   8923SM  H21F12024   6.738   3.128   7.821  0.1724 -2.1572  0.8085
   8923SM  H21G12025   6.710   2.995   7.715 -0.7361 -0.1805  0.0511
   8923SM  C22F12026   6.618   3.192   7.643 -0.3045 -0.1948 -0.5022
   8923SM  H22F12027   6.632   3.168   7.535 -2.5406 -1.6360 -0.5409
   8923SM  H22G12028   6.649   3.296   7.668  0.0845 -0.6718  1.1315
   8923SM  C23F12029   6.475   3.162   7.697 -0.7278  0.0965  0.0254
   8923SM  H23F12030   6.399   3.239   7.671  0.5860  0.9977 -1.2753
   8923SM  H23G12031   6.478   3.164   7.808  0.5979 -0.1562  0.0049
   8923SM  H23H12032   6.451   3.063   7.652  1.4595 -0.5207  0.0980
   9023SM     N12033   7.485   1.733   6.149 -0.2736 -0.4096  0.0407
   9023SM   C1512034   7.416   1.647   6.050 -0.0587  0.2929 -0.0641
   9023SM  H15A12035   7.460   1.550   6.035 -0.8693  0.0692 -1.1373
   9023SM  H15B12036   7.414   1.695   5.953  4.2095 -0.2230 -0.6030
   9023SM  H15C12037   7.317   1.628   6.090 -0.1840  0.2951 -0.3717
   9023SM   C1412038   7.630   1.737   6.125  0.5557  0.0902 -0.8487
   9023SM  H14A12039   7.673   1.814   6.189 -0.4328  0.7171 -0.9186
   9023SM  H14B12040   7.657   1.756   6.022  1.5217  1.3511 -0.3950
   9023SM  H14C12041   7.676   1.645   6.158 -1.6994  0.0290  2.5759
   9023SM   C1312042   7.421   1.868   6.142 -0.5551  0.0584  0.5345
   9023SM  H13A12043   7.318   1.875   6.174 -0.8442 -0.2507 -0.3174
   9023SM  H13B12044   7.429   1.907   6.042 -1.8369 -3.2552 -1.0091
   9023SM  H13C12045   7.476   1.935   6.207 -0.5951 -0.8999  1.5898
   9023SM   C1212046   7.467   1.675   6.285  0.0356 -0.1250 -0.2706
   9023SM  H12A12047   7.514   1.578   6.281 -0.0809 -0.3665  2.3105
   9023SM  H12B12048   7.361   1.657   6.298  0.1626  0.3162  1.5747
   9023SM   C1112049   7.513   1.748   6.407  0.7928  0.1669  0.3206
   9023SM  H11A12050   7.487   1.688   6.496  0.6287 -1.2197 -0.6303
   9023SM  H11B12051   7.457   1.844   6.414  1.1238  0.4430 -0.5803
   9023SM     P12052   7.713   1.911   6.457 -0.1521 -0.2117  0.3343
   9023SM   O1312053   7.865   1.907   6.436 -0.8923 -0.0771 -0.6785
   9023SM   O1412054   7.636   2.016   6.391 -0.8276 -0.2983 -0.6150
   9023SM   O1112055   7.680   1.920   6.615  0.3557  0.6140 -0.7094
   9023SM   O1212056   7.655   1.770   6.412 -0.1154  0.5060 -0.0476
   9023SM   C1S12057   7.708   1.809   6.699 -0.7287  0.2697  0.5207
   9023SM   H1S12058   7.819   1.807   6.709 -0.7382 -1.5084  0.6476
   9023SM   H1T12059   7.681   1.711   6.653 -2.5077  0.2202  1.5722
   9023SM    NF12060   7.699   1.731   6.936  0.2676 -0.3451  0.2488
   9023SM   HNF12061   7.644   1.649   6.953  0.0444  0.0725  1.5991
   9023SM   C2S12062   7.641   1.824   6.835  0.6154 -0.2458  0.0832
   9023SM   H2S12063   7.651   1.930   6.867 -1.1142  0.5550 -1.8090
   9023SM   C3S12064   7.488   1.815   6.822  0.0517  0.6707 -0.3001
   9023SM   H3S12065   7.464   1.712   6.787  0.4850  0.5304 -0.1913
   9023SM    O312066   7.433   1.894   6.713 -0.1829 -0.4178 -0.2067
   9023SM   HO312067   7.512   1.914   6.663  1.2844 -0.1425  2.0835
   9023SM   C4S12068   7.414   1.834   6.949  0.4901 -0.1422 -0.2685
   9023SM   H4S12069   7.399   1.739   7.004 -2.9036  0.0378 -0.6483
   9023SM   C5S12070   7.395   1.953   7.017 -0.3214  0.4816 -0.3663
   9023SM   H5S12071   7.457   2.034   6.975  1.2261  0.2514  1.3272
   9023SM   C6S12072   7.353   1.974   7.165 -0.4155  0.3647  0.4483
   9023SM   H6S12073   7.249   1.937   7.178  0.8808 -3.0795  2.4280
   9023SM   H6T12074   7.365   2.081   7.194  1.3324  0.8604 -1.8280
   9023SM   C7S12075   7.424   1.903   7.274  0.4836  0.6216  0.0935
   9023SM   H7S12076   7.531   1.930   7.274  0.8554 -0.7756  0.2759
   9023SM   H7T12077   7.415   1.793   7.261  1.2313 -0.0686  4.0253
   9023SM   C8S12078   7.356   1.925   7.419 -0.1057  0.2756  0.3599
   9023SM   H8S12079   7.424   1.868   7.486 -0.6632  1.8042  2.2983
   9023SM   H8T12080   7.252   1.887   7.415 -0.0930  0.2395  0.3722
   9023SM   C9S12081   7.355   2.073   7.468 -0.1713  0.1398 -0.4045
   9023SM   H9S12082   7.309   2.071   7.570  1.6753 -1.9954  0.4782
   9023SM   H9T12083   7.289   2.141   7.411  0.2025  1.5950  0.8428
   9023SM  C10S12084   7.491   2.135   7.481 -0.4153 -0.2513 -0.5101
   9023SM  H10S12085   7.520   2.173   7.380 -0.5311  3.4216  0.6800
   9023SM  H10T12086   7.565   2.060   7.513 -1.2448 -0.9101 -0.1056
   9023SM  C11S12087   7.494   2.245   7.589 -0.1103 -0.2566  0.1603
   9023SM  H11S12088   7.456   2.206   7.686 -1.4617  1.5706  0.4379
   9023SM  H11T12089   7.425   2.329   7.562  2.7639  2.8509  1.7841
   9023SM  C12S12090   7.637   2.302   7.612 -0.2159 -0.1163  0.0724
   9023SM  H12S12091   7.671   2.339   7.513 -1.5972 -2.8328 -1.5530
   9023SM  H12T12092   7.704   2.215   7.624 -0.5281 -0.5672 -1.2564
   9023SM  C13S12093   7.628   2.408   7.718 -0.6596  0.3685  0.3695
   9023SM  H13S12094   7.729   2.430   7.759 -0.0691 -0.2823 -0.6926
   9023SM  H13T12095   7.570   2.378   7.808  0.2170 -2.4334  0.0832
   9023SM  C14S12096   7.574   2.533   7.655  0.3784  0.0375 -0.0196
   9023SM  H14S12097   7.463   2.538   7.646  0.3110 -1.2562 -0.0339
   9023SM  H14T12098   7.620   2.553   7.556  1.8876 -0.0509  0.6392
   9023SM  C15S12099   7.611   2.656   7.734  0.2483 -0.6081 -0.7894
   9023SM  H15S12100   7.561   2.740   7.682 -0.0439  0.0443  0.5178
   9023SM  H15T12101   7.721   2.664   7.724  0.5042 -2.1083  0.4831
   9023SM  C16S12102   7.577   2.659   7.889 -0.1419  0.5876  0.5854
   9023SM  H16S12103   7.626   2.569   7.931  0.2142 -0.1838 -1.3731
   9023SM  H16T12104   7.466   2.651   7.900 -0.1827  0.5315  0.1521
   9023SM  C17S12105   7.646   2.781   7.951  0.0302  0.1976 -0.1275
   9023SM  H17S12106   7.583   2.870   7.926 -2.6121 -1.6669 -0.5203
   9023SM  H17T12107   7.747   2.781   7.906 -0.3124 -0.4234 -0.9263
   9023SM  C18S12108   7.664   2.766   8.104  0.4800  0.4278 -0.4733
   9023SM  H18S12109   7.568   2.784   8.158 -0.3354 -0.8082 -1.4741
   9023SM  H18T12110   7.732   2.850   8.132  0.9574  0.2017 -0.9378
   9023SM  H18U12111   7.718   2.671   8.123  2.0794  0.9778 -1.9241
   9023SM   C1F12112   7.818   1.742   6.997  0.3677 -0.0285 -0.3075
   9023SM    OF12113   7.893   1.835   6.959 -0.1100 -0.1437 -0.2490
   9023SM   C2F12114   7.855   1.652   7.107  0.1920  0.7050  0.3128
   9023SM   H2F12115   7.894   1.563   7.053  0.1112 -0.9959  2.8752
   9023SM   H2G12116   7.761   1.616   7.154  0.4765  0.7415  0.9298
   9023SM   C3F12117   7.956   1.703   7.208 -0.3181 -0.1112 -0.1095
   9023SM   H3F12118   7.915   1.781   7.275  0.4379 -1.2158  1.7483
   9023SM   H3G12119   8.046   1.756   7.169 -0.8341  2.2409  1.6524
   9023SM   C4F12120   8.009   1.594   7.309 -0.2429 -0.2960  0.3803
   9023SM   H4F12121   8.047   1.509   7.247  0.6035  0.7721 -0.6278
   9023SM   H4G12122   7.918   1.559   7.361 -2.0397  0.5271 -2.0157
   9023SM   C5F12123   8.127   1.634   7.399 -0.0684 -0.7797  0.4109
   9023SM   H5F12124   8.214   1.660   7.335 -0.2511 -1.5354 -0.1755
   9023SM   H5G12125   8.160   1.552   7.466  3.9625  0.3223  0.0059
   9023SM   C6F12126   8.083   1.747   7.494  0.7656  0.1355 -0.3079
   9023SM   H6F12127   7.978   1.724   7.521  0.6893  0.7654 -0.0622
   9023SM   H6G12128   8.083   1.839   7.432 -4.0396  0.5927 -0.0383
   9023SM   C7F12129   8.171   1.752   7.626  0.1535 -0.0476  0.3388
   9023SM   H7F12130   8.147   1.666   7.691  0.2450  0.3938  0.9644
   9023SM   H7G12131   8.141   1.842   7.684  1.2788  1.9310 -1.9298
   9023SM   C8F12132   8.326   1.748   7.594  0.9854  0.2794  0.6953
   9023SM   H8F12133   8.342   1.809   7.503 -1.1155  1.6819  1.1859
   9023SM   H8G12134   8.341   1.640   7.575 -4.5079 -0.6771  0.1948
   9023SM   C9F12135   8.398   1.801   7.713 -0.8525  0.7522  0.2562
   9023SM   H9F12136   8.502   1.761   7.707 -0.3204  2.2709 -4.3170
   9023SM   H9G12137   8.347   1.765   7.805 -1.8139  0.8934 -0.2124
   9023SM  C10F12138   8.404   1.958   7.717 -0.1287 -0.3838  0.6815
   9023SM  H10F12139   8.305   2.006   7.703 -0.0285 -0.2215  0.5249
   9023SM  H10G12140   8.462   1.991   7.629 -1.6385 -1.1861 -0.6586
   9023SM  C11F12141   8.455   2.015   7.846 -0.2030 -0.3251 -0.1675
   9023SM  H11F12142   8.563   1.990   7.853  0.2445  0.5107 -2.8342
   9023SM  H11G12143   8.396   1.960   7.923 -2.5949 -0.0453 -1.7009
   9023SM  C12F12144   8.448   2.167   7.856 -0.1144  0.3844 -0.4269
   9023SM  H12F12145   8.356   2.215   7.817  0.3628  1.6210 -0.0697
   9023SM  H12G12146   8.528   2.211   7.793  0.3417  0.6818  0.3422
   9023SM  C13F12147   8.462   2.223   7.994 -0.4119 -0.0266 -0.3529
   9023SM  H13F12148   8.559   2.180   8.025 -0.5744 -0.8793 -1.0092
   9023SM  H13G12149   8.383   2.188   8.064 -2.0652  0.4255 -1.9095
   9023SM  C14F12150   8.467   2.381   8.002  0.6139 -0.3553 -0.2601
   9023SM  H14F12151   8.370   2.428   7.978 -0.5990 -2.0547  1.0394
   9023SM  H14G12152   8.532   2.416   7.920 -2.3946  1.2548 -2.1195
   9023SM  C15F12153   8.491   2.427   8.150  0.3295 -0.1696 -0.0122
   9023SM  H15F12154   8.587   2.382   8.183 -1.6824 -2.1098  3.8538
   9023SM  H15G12155   8.407   2.377   8.202 -1.0182  1.2664 -0.7131
   9023SM  C16F12156   8.475   2.579   8.165  0.3419 -0.3723  0.3685
   9023SM  H16F12157   8.371   2.606   8.135  0.3370 -0.0141  0.6977
   9023SM  H16G12158   8.533   2.621   8.079 -1.4301 -1.5580 -1.4972
   9023SM  C17F12159   8.508   2.611   8.308  0.6800 -0.0815  0.4830
   9023SM  H17F12160   8.604   2.566   8.342  1.7851  2.4096  0.8893
   9023SM  H17G12161   8.420   2.581   8.369 -1.9368  0.1483 -2.8867
   9023SM  C18F12162   8.534   2.754   8.336 -0.2621 -0.7548 -1.0261
   9023SM  H18F12163   8.634   2.760   8.287  1.7348 -1.8747  2.5191
   9023SM  H18G12164   8.557   2.767   8.444  0.5829  0.9076 -1.3662
   9023SM  C19F12165   8.433   2.852   8.272  0.1564  0.4317 -0.2320
   9023SM  H19F12166   8.333   2.831   8.317  0.1539 -0.1946 -0.5129
   9023SM  H19G12167   8.438   2.842   8.162  2.5520  0.4096 -0.1738
   9023SM  C20F12168   8.466   3.000   8.312 -0.2910 -0.5658  0.6313
   9023SM  H20F12169   8.552   3.041   8.255 -0.6864  0.4440  0.7308
   9023SM  H20G12170   8.503   2.995   8.417 -1.5052 -0.2397  1.0935
   9023SM  C21F12171   8.353   3.103   8.298 -0.1390  0.2853  1.4895
   9023SM  H21F12172   8.267   3.057   8.351  0.6318 -4.4296 -0.8067
   9023SM  H21G12173   8.331   3.115   8.190  0.6465 -0.9088  1.1739
   9023SM  C22F12174   8.387   3.238   8.356  0.7467  0.0550  0.6751
   9023SM  H22F12175   8.305   3.309   8.329  0.2292 -0.8306 -0.1511
   9023SM  H22G12176   8.485   3.273   8.319 -0.5155  0.9487 -2.0301
   9023SM  C23F12177   8.389   3.234   8.510 -0.0979 -0.2489  0.3797
   9023SM  H23F12178   8.483   3.189   8.547 -0.1557 -2.1907 -1.6542
   9023SM  H23G12179   8.299   3.184   8.553  0.2197  0.6201  2.1663
   9023SM  H23H12180   8.382   3.336   8.555  0.0837 -0.6125  1.2626
   9123SM     N12181   1.018   4.243   6.146  0.3761 -0.0821 -0.4707
   9123SM   C1512182   1.112   4.146   6.198 -0.0805  0.5551 -0.2043
   9123SM  H15A12183   1.068   4.078   6.269 -0.9645  2.5474  1.2533
   9123SM  H15B12184   1.203   4.185   6.242  0.9222  1.4907 -2.9129
   9123SM  H15C12185   1.144   4.080   6.119  1.5564  1.3652 -0.2720
   9123SM   C1412186   1.100   4.343   6.068 -0.2192  0.3033 -0.6305
   9123SM  H14A12187   1.169   4.284   6.010 -1.5009 -1.9170 -0.0098
   9123SM  H14B12188   1.164   4.409   6.126 -2.0561  1.1195  0.5715
   9123SM  H14C12189   1.037   4.393   5.996 -2.4356 -0.0741  0.9582
   9123SM   C1312190   0.930   4.178   6.047  0.1711 -0.3345  0.8481
   9123SM  H13A12191   0.864   4.239   5.987 -1.0629 -1.3523  1.1097
   9123SM  H13B12192   0.863   4.103   6.087 -0.8788  0.0409 -0.1524
   9123SM  H13C12193   0.997   4.136   5.974 -0.4498 -0.5686  0.4058
   9123SM   C1212194   0.931   4.303   6.259 -0.5136 -1.0297 -0.1879
   9123SM  H12A12195   0.861   4.375   6.219  0.4462 -1.6110 -3.2337
   9123SM  H12B12196   0.997   4.364   6.318 -0.0518 -1.2166 -0.5016
   9123SM   C1112197   0.847   4.213   6.349 -0.1050  0.1104  0.0393
   9123SM  H11A12198   0.802   4.276   6.429  3.8976 -1.0463  3.5811
   9123SM  H11B12199   0.918   4.152   6.409  1.0816  1.7856  0.4283
   9123SM     P12200   0.689   4.000   6.343 -0.0075 -0.3532  0.2959
   9123SM   O1312201   0.597   3.937   6.245 -0.2357 -0.1406 -0.3964
   9123SM   O1412202   0.805   3.918   6.380 -0.1936 -0.3680  0.0167
   9123SM   O1112203   0.604   4.041   6.471  0.1895 -0.0459 -0.5348
   9123SM   O1212204   0.739   4.140   6.282  0.0636 -0.2550 -0.1505
   9123SM   C1S12205   0.670   4.052   6.598 -0.2975 -0.5626  0.7492
   9123SM   H1S12206   0.715   4.152   6.613  1.0064 -1.0979  0.5269
   9123SM   H1T12207   0.753   3.981   6.618  0.9220  1.1705  2.1224
   9123SM    NF12208   0.664   4.068   6.844  0.4089  0.6489  0.1999
   9123SM   HNF12209   0.706   3.996   6.899  3.7207  2.7040  0.6580
   9123SM   C2S12210   0.585   4.029   6.727 -0.1918 -0.9373  0.4501
   9123SM   H2S12211   0.493   4.090   6.733  0.2604  0.1549 -2.1887
   9123SM   C3S12212   0.541   3.880   6.723  0.4457 -0.0254 -0.1487
   9123SM   H3S12213   0.631   3.819   6.698  1.7467  2.5009 -2.1570
   9123SM    O312214   0.447   3.851   6.626 -0.3645 -0.3171  0.0882
   9123SM   HO312215   0.452   3.933   6.577 -0.2214  1.5112  2.9194
   9123SM   C4S12216   0.490   3.825   6.855 -0.5272  0.2881 -0.4004
   9123SM   H4S12217   0.399   3.874   6.892 -0.4003  1.1218 -1.1702
   9123SM   C5S12218   0.549   3.720   6.930  0.2501 -0.1401 -0.0975
   9123SM   H5S12219   0.638   3.665   6.894  0.2665  0.3195 -0.7842
   9123SM   C6S12220   0.474   3.659   7.049  0.5842 -0.4791  0.2058
   9123SM   H6S12221   0.552   3.646   7.126 -0.5306  0.9180  1.6559
   9123SM   H6T12222   0.438   3.557   7.025  1.0929 -0.7062  0.4009
   9123SM   C7S12223   0.363   3.743   7.117 -0.4719  0.4109  0.0535
   9123SM   H7S12224   0.272   3.754   7.054  1.1971  1.8096 -2.2555
   9123SM   H7T12225   0.394   3.849   7.125 -1.9200  0.7915  1.2279
   9123SM   C8S12226   0.316   3.681   7.246 -0.7026 -0.9577 -0.5292
   9123SM   H8S12227   0.257   3.751   7.308  0.7195  1.5173 -1.8114
   9123SM   H8T12228   0.409   3.669   7.306 -2.2152  1.2837  2.5515
   9123SM   C9S12229   0.251   3.541   7.225  0.3354  0.0329  0.2404
   9123SM   H9S12230   0.328   3.462   7.212  1.9467  1.2773  1.6805
   9123SM   H9T12231   0.195   3.553   7.130 -0.7373 -3.7253  0.2382
   9123SM  C10S12232   0.155   3.502   7.338 -0.3800 -0.0596  0.1919
   9123SM  H10S12233   0.073   3.577   7.340 -0.8739 -0.5445 -1.0606
   9123SM  H10T12234   0.212   3.503   7.433  0.8703  0.7676 -0.5280
   9123SM  C11S12235   0.082   3.366   7.317 -0.1481  0.0508 -0.4823
   9123SM  H11S12236   0.163   3.298   7.283  1.3614  0.0504  2.7554
   9123SM  H11T12237   0.008   3.375   7.235 -0.4333  0.2055 -0.2135
   9123SM  C12S12238   0.022   3.309   7.445  0.3001  0.7643 -0.1789
   9123SM  H12S12239   0.091   3.347   7.523 -1.1742  1.7475  0.7121
   9123SM  H12T12240   0.025   3.199   7.429 -2.3732  0.7415 -1.0566
   9123SM  C13S12241  -0.116   3.365   7.484  0.7788  0.3138 -0.0251
   9123SM  H13S12242  -0.197   3.329   7.418  0.9672  0.2752 -0.2360
   9123SM  H13T12243  -0.105   3.473   7.464  2.3246 -0.4898 -4.7459
   9123SM  C14S12244  -0.138   3.355   7.636 -0.1508 -0.2328 -0.2276
   9123SM  H14S12245  -0.244   3.387   7.647 -0.2391 -0.7382  0.4612
   9123SM  H14T12246  -0.067   3.420   7.692  2.0538 -0.3677 -2.6898
   9123SM  C15S12247  -0.126   3.211   7.684 -0.3770  0.2862  0.8171
   9123SM  H15S12248  -0.017   3.190   7.685  0.5567  4.2987  2.3879
   9123SM  H15T12249  -0.174   3.134   7.620 -0.3538  0.9852 -0.0602
   9123SM  C16S12250  -0.177   3.198   7.824 -0.5820  0.3910  0.3562
   9123SM  H16S12251  -0.121   3.271   7.887  1.7338  0.2809 -1.4500
   9123SM  H16T12252  -0.141   3.102   7.867  1.5785  1.3065  0.7113
   9123SM  C17S12253  -0.326   3.202   7.839  0.3649  0.7006 -0.1673
   9123SM  H17S12254  -0.362   3.301   7.804  4.6458  2.0131 -1.5053
   9123SM  H17T12255  -0.348   3.187   7.947 -1.4828  1.1943 -0.4451
   9123SM  C18S12256  -0.397   3.083   7.768  0.2668 -0.8906 -0.6034
   9123SM  H18S12257  -0.506   3.104   7.767  0.2863 -0.3128  1.8692
   9123SM  H18T12258  -0.360   2.986   7.808  0.6821  0.1772  1.7813
   9123SM  H18U12259  -0.371   3.083   7.660 -3.0404  0.4055 -1.5319
   9123SM   C1F12260   0.696   4.192   6.883  0.3568  0.3357 -0.0236
   9123SM    OF12261   0.672   4.294   6.820  0.3617 -0.3389  0.0103
   9123SM   C2F12262   0.779   4.211   6.998 -0.8171 -0.4417 -0.3583
   9123SM   H2F12263   0.732   4.284   7.068 -2.3951 -2.3175  0.6204
   9123SM   H2G12264   0.869   4.269   6.968 -0.7496 -0.7630 -0.7854
   9123SM   C3F12265   0.815   4.083   7.080 -0.0593 -0.1317 -0.6306
   9123SM   H3F12266   0.908   4.103   7.137 -0.7299 -1.9517  1.2039
   9123SM   H3G12267   0.850   3.997   7.019 -1.3831  0.5771 -2.4600
   9123SM   C4F12268   0.718   4.034   7.183  0.4387  0.2402  0.7755
   9123SM   H4F12269   0.628   4.004   7.127  0.3466  1.2538  0.3610
   9123SM   H4G12270   0.688   4.113   7.256  1.1903  0.8856  0.4054
   9123SM   C5F12271   0.781   3.927   7.277 -0.1871  0.2794  0.7728
   9123SM   H5F12272   0.883   3.958   7.307  0.1919 -2.1381  2.2532
   9123SM   H5G12273   0.806   3.829   7.231  3.2628  1.0129  0.7732
   9123SM   C6F12274   0.710   3.913   7.403 -0.1657 -0.7821 -0.7275
   9123SM   H6F12275   0.602   3.885   7.394 -0.4866 -0.7894  2.3419
   9123SM   H6G12276   0.699   4.014   7.450 -0.0773 -0.8688 -0.5226
   9123SM   C7F12277   0.776   3.814   7.505 -0.0857  0.5717 -0.0133
   9123SM   H7F12278   0.875   3.862   7.520  0.2931  0.4942 -2.0444
   9123SM   H7G12279   0.789   3.713   7.461  0.1968  0.2024  0.8876
   9123SM   C8F12280   0.701   3.790   7.637  0.1709  0.1417 -0.3071
   9123SM   H8F12281   0.657   3.890   7.656 -0.3967  0.1638 -1.6317
   9123SM   H8G12282   0.765   3.742   7.714 -2.6279 -0.4469  1.7811
   9123SM   C9F12283   0.584   3.692   7.618 -0.4761  0.7616  0.0609
   9123SM   H9F12284   0.631   3.592   7.612 -0.1684  0.8423  0.9931
   9123SM   H9G12285   0.527   3.723   7.528 -0.4218 -0.7108 -0.5015
   9123SM  C10F12286   0.486   3.670   7.737  0.3986 -0.2256  0.5179
   9123SM  H10F12287   0.408   3.593   7.718  0.3592  0.0300 -0.3928
   9123SM  H10G12288   0.445   3.771   7.756 -0.3345 -0.4904  0.3791
   9123SM  C11F12289   0.561   3.625   7.865  0.2346 -0.2227 -0.3022
   9123SM  H11F12290   0.646   3.692   7.889 -0.6896  0.6277  0.7477
   9123SM  H11G12291   0.602   3.524   7.843 -0.1495 -0.3100 -0.6391
   9123SM  C12F12292   0.470   3.611   7.985 -0.1260  0.3564 -0.5584
   9123SM  H12F12293   0.376   3.561   7.956  0.8519 -2.4887  0.8703
   9123SM  H12G12294   0.445   3.715   8.015  0.0905  0.4644 -0.7477
   9123SM  C13F12295   0.527   3.523   8.095 -0.2163 -0.1530  0.4631
   9123SM  H13F12296   0.629   3.549   8.130 -0.3446  0.7856  0.1785
   9123SM  H13G12297   0.542   3.424   8.047 -4.0452  1.0681 -4.0276
   9123SM  C14F12298   0.429   3.508   8.209 -0.0123  0.1359  0.4523
   9123SM  H14F12299   0.340   3.456   8.167  0.3974  0.6636 -1.1337
   9123SM  H14G12300   0.408   3.610   8.247  0.7888  0.6557 -0.4783
   9123SM  C15F12301   0.492   3.432   8.328  0.3479  0.1201 -0.0822
   9123SM  H15F12302   0.594   3.466   8.355  0.2248  1.3794 -1.1036
   9123SM  H15G12303   0.509   3.330   8.287  2.4227  0.6527 -0.6422
   9123SM  C16F12304   0.403   3.438   8.450  0.0878 -0.6842 -0.6693
   9123SM  H16F12305   0.295   3.429   8.428 -0.1631 -2.0333  0.9316
   9123SM  H16G12306   0.414   3.543   8.487 -0.9486  0.4210 -3.2807
   9123SM  C17F12307   0.438   3.349   8.571  0.4608 -0.3190  0.4746
   9123SM  H17F12308   0.520   3.280   8.543  0.0204 -1.4993  1.9793
   9123SM  H17G12309   0.352   3.280   8.580 -0.7143  0.8488 -1.0743
   9123SM  C18F12310   0.474   3.425   8.700  0.0458 -0.1877  0.0492
   9123SM  H18F12311   0.520   3.523   8.673 -1.1173  0.3612  0.0067
   9123SM  H18G12312   0.553   3.363   8.747  1.1287 -1.2480 -2.9330
   9123SM  C19F12313   0.360   3.444   8.796 -0.2968 -0.3627  0.3163
   9123SM  H19F12314   0.330   3.351   8.848 -2.1420  0.5042  0.8911
   9123SM  H19G12315   0.275   3.471   8.730  0.8782  4.3085  0.3123
   9123SM  C20F12316   0.390   3.553   8.897  0.3376  0.0290  0.8382
   9123SM  H20F12317   0.485   3.531   8.950  0.8235 -0.5884 -0.2643
   9123SM  H20G12318   0.306   3.555   8.970 -1.9115  0.0625 -1.6066
   9123SM  C21F12319   0.396   3.698   8.830  0.2026  0.2110 -0.0916
   9123SM  H21F12320   0.475   3.701   8.751 -1.3788  1.6628 -1.6964
   9123SM  H21G12321   0.435   3.764   8.910  2.8557 -2.7503  1.3050
   9123SM  C22F12322   0.265   3.745   8.774  0.1131 -0.6517  0.6783
   9123SM  H22F12323   0.191   3.721   8.854 -1.9491  1.0095 -0.6174
   9123SM  H22G12324   0.236   3.696   8.679  1.4554 -0.8337  0.3452
   9123SM  C23F12325   0.255   3.897   8.748 -0.7516 -0.2101 -0.0475
   9123SM  H23F12326   0.154   3.910   8.703 -1.5295 -0.8862  1.4189
   9123SM  H23G12327   0.336   3.934   8.683 -0.6953  1.3223  0.8370
   9123SM  H23H12328   0.258   3.954   8.844 -1.9678 -1.4848  0.7859
   9223SM     N12329   4.968   9.013   6.276 -0.2678  0.4930 -0.0468
   9223SM   C1512330   5.056   9.130   6.230 -0.2059  0.1962  0.0838
   9223SM  H15A12331   5.010   9.161   6.137 -2.1552 -1.5413  0.3776
   9223SM  H15B12332   5.155   9.093   6.210  0.4902  0.0320  3.3088
   9223SM  H15C12333   5.079   9.208   6.301  1.8168  0.8289 -1.2083
   9223SM   C1412334   4.821   9.056   6.300 -0.1213 -0.1763 -0.5085
   9223SM  H14A12335   4.809   9.119   6.387  0.5589 -0.7187 -0.0069
   9223SM  H14B12336   4.764   8.969   6.328 -0.0019 -0.3174 -0.7060
   9223SM  H14C12337   4.787   9.116   6.217  2.9349 -0.4640 -2.1149
   9223SM   C1312338   4.958   8.917   6.163 -0.0229  0.3143  0.1817
   9223SM  H13A12339   4.904   8.970   6.086 -1.9772  1.3973  2.1495
   9223SM  H13B12340   4.902   8.832   6.200 -0.5813  1.6914  2.7896
   9223SM  H13C12341   5.059   8.896   6.133  0.0166  0.4914  0.1916
   9223SM   C1212342   5.033   8.945   6.387 -0.2328 -0.2184 -0.6228
   9223SM  H12A12343   5.050   9.017   6.465 -0.5162 -0.7227 -0.0799
   9223SM  H12B12344   5.130   8.903   6.363  0.3468 -1.1820  2.8277
   9223SM   C1112345   4.962   8.820   6.445 -0.2772 -0.7167  0.2336
   9223SM  H11A12346   4.855   8.847   6.462  0.3161  0.5049  2.2682
   9223SM  H11B12347   5.026   8.801   6.534 -0.2093 -2.0824 -0.0765
   9223SM     P12348   4.883   8.588   6.364 -0.2583  0.1287 -0.3300
   9223SM   O1312349   4.750   8.635   6.324  0.5951 -0.5712 -0.2215
   9223SM   O1412350   4.932   8.468   6.291 -0.5277  0.1483  0.4068
   9223SM   O1112351   4.879   8.546   6.516  0.6692 -0.8481  0.2937
   9223SM   O1212352   4.988   8.709   6.359  0.0949 -0.7918 -0.5700
   9223SM   C1S12353   5.009   8.514   6.588  0.1230  0.2566  0.1706
   9223SM   H1S12354   5.080   8.597   6.571 -0.0646  0.0274 -2.0596
   9223SM   H1T12355   5.045   8.420   6.541  1.2350  0.2441  1.0091
   9223SM    NF12356   5.110   8.486   6.806  0.3617 -0.1003 -0.1285
   9223SM   HNF12357   5.149   8.396   6.826  2.5155  1.2182  2.1382
   9223SM   C2S12358   4.979   8.492   6.739 -0.4032 -1.2335 -0.0991
   9223SM   H2S12359   4.924   8.584   6.769  2.2192  0.5110 -0.2782
   9223SM   C3S12360   4.885   8.367   6.752 -0.6273 -0.3536  0.2618
   9223SM   H3S12361   4.948   8.288   6.705  0.9661  0.9681  0.0740
   9223SM    O312362   4.763   8.370   6.671  0.2149 -0.2093  0.4618
   9223SM   HO312363   4.780   8.428   6.597 -0.8761 -1.8805 -1.1893
   9223SM   C4S12364   4.858   8.344   6.899 -0.2207  0.3421  0.1243
   9223SM   H4S12365   4.929   8.278   6.950 -1.3296 -0.5119  0.6024
   9223SM   C5S12366   4.747   8.403   6.949  0.3147 -0.1992  0.1555
   9223SM   H5S12367   4.686   8.462   6.879  2.6249 -0.2733 -2.0798
   9223SM   C6S12368   4.686   8.370   7.084  0.6938  0.5004  0.8322
   9223SM   H6S12369   4.582   8.333   7.075  1.3628 -1.6217  1.1867
   9223SM   H6T12370   4.689   8.469   7.133  1.0711  0.5824  0.6483
   9223SM   C7S12371   4.767   8.259   7.168  0.1640 -0.0752 -0.1678
   9223SM   H7S12372   4.872   8.293   7.184  0.9722 -2.3340 -0.3087
   9223SM   H7T12373   4.785   8.173   7.099  0.8443 -1.1772  1.3156
   9223SM   C8S12374   4.710   8.219   7.297 -0.3843  0.9046  0.1060
   9223SM   H8S12375   4.609   8.180   7.270 -0.8778  1.5266  1.0080
   9223SM   H8T12376   4.697   8.311   7.358 -2.1778  1.1642 -0.5866
   9223SM   C9S12377   4.796   8.107   7.365 -0.8406  0.4054  0.8262
   9223SM   H9S12378   4.896   8.154   7.380 -0.1309 -0.2459 -1.3833
   9223SM   H9T12379   4.826   8.025   7.296  0.5863  1.7571 -0.2321
   9223SM  C10S12380   4.737   8.039   7.488  0.2039 -0.9244 -0.6812
   9223SM  H10S12381   4.804   7.956   7.519 -0.9594 -0.5492  3.5036
   9223SM  H10T12382   4.637   8.004   7.457 -0.2634 -0.5210  0.3287
   9223SM  C11S12383   4.729   8.124   7.615  0.5918 -0.0649 -0.7405
   9223SM  H11S12384   4.665   8.214   7.604  0.5537 -0.2458 -2.2027
   9223SM  H11T12385   4.831   8.166   7.633 -0.1505  0.6244  2.4331
   9223SM  C12S12386   4.689   8.043   7.743 -0.0091 -0.0714  0.2888
   9223SM  H12S12387   4.620   7.965   7.704 -1.7593  1.4243  0.2725
   9223SM  H12T12388   4.623   8.111   7.801 -0.9846 -0.6161 -0.1709
   9223SM  C13S12389   4.799   7.988   7.822  0.1772 -0.2447 -0.0057
   9223SM  H13S12390   4.857   8.075   7.860 -0.0241 -1.0164  2.2209
   9223SM  H13T12391   4.871   7.926   7.764  1.2613 -0.6023  1.6487
   9223SM  C14S12392   4.752   7.925   7.955 -0.2274 -0.2449 -0.1105
   9223SM  H14S12393   4.849   7.889   7.996  0.6641  1.1246 -0.9125
   9223SM  H14T12394   4.693   7.833   7.936  1.7024 -1.1794 -2.0830
   9223SM  C15S12395   4.666   8.013   8.046  0.2608  0.0258  0.0150
   9223SM  H15S12396   4.621   7.950   8.125 -0.5853  0.7020  0.0889
   9223SM  H15T12397   4.577   8.047   7.990 -0.8436 -0.0119  1.6894
   9223SM  C16S12398   4.743   8.139   8.103  0.2779  0.3962 -0.4635
   9223SM  H16S12399   4.671   8.189   8.172 -0.0203 -0.0529 -0.4490
   9223SM  H16T12400   4.773   8.214   8.026  0.2436  1.4659  0.5444
   9223SM  C17S12401   4.874   8.129   8.174 -0.4592 -0.0610  0.5549
   9223SM  H17S12402   4.914   8.230   8.197  2.5150 -0.9488 -0.3541
   9223SM  H17T12403   4.939   8.091   8.092 -1.8327  0.5103 -0.8342
   9223SM  C18S12404   4.872   8.043   8.300  0.0514 -0.2841  0.9146
   9223SM  H18S12405   4.968   8.050   8.355 -1.0199 -2.2928  3.2466
   9223SM  H18T12406   4.849   7.936   8.276  0.0855 -0.3497  1.1698
   9223SM  H18U12407   4.801   8.077   8.379 -3.7559  0.1459 -2.3187
   9223SM   C1F12408   5.180   8.596   6.823  0.1219  0.1542 -0.0712
   9223SM    OF12409   5.164   8.706   6.767 -0.1428  0.3305 -0.0597
   9223SM   C2F12410   5.294   8.588   6.916  0.4835 -0.7362 -0.1389
   9223SM   H2F12411   5.363   8.508   6.883  1.3135  0.1892 -0.6991
   9223SM   H2G12412   5.257   8.566   7.019 -1.8258  0.3803 -0.6580
   9223SM   C3F12413   5.382   8.714   6.912 -0.0361  0.0551  0.2244
   9223SM   H3F12414   5.326   8.801   6.954  0.3885 -0.1987  1.3576
   9223SM   H3G12415   5.422   8.731   6.810  2.4479 -1.5789  0.8378
   9223SM   C4F12416   5.507   8.687   7.012  0.9796  0.3899  0.2898
   9223SM   H4F12417   5.582   8.768   7.003  0.1275  1.4008  1.7454
   9223SM   H4G12418   5.553   8.596   6.968 -2.0163 -1.5410  0.7899
   9223SM   C5F12419   5.469   8.680   7.163  0.2563  0.8131 -0.1346
   9223SM   H5F12420   5.392   8.601   7.176 -0.8242  1.4904 -2.0180
   9223SM   H5G12421   5.409   8.772   7.180 -0.7601  0.4630 -1.6541
   9223SM   C6F12422   5.587   8.663   7.259 -0.1245  0.2907  0.2321
   9223SM   H6F12423   5.631   8.765   7.268 -0.4220  0.6739 -1.9682
   9223SM   H6G12424   5.664   8.601   7.208  1.3762 -0.3802  3.1012
   9223SM   C7F12425   5.549   8.597   7.392  0.1287  0.0318 -0.4014
   9223SM   H7F12426   5.479   8.512   7.377  1.9328 -1.5793 -0.0057
   9223SM   H7G12427   5.498   8.666   7.463 -1.2588 -3.5796  2.4700
   9223SM   C8F12428   5.676   8.541   7.458 -0.6609  0.1951  0.1534
   9223SM   H8F12429   5.711   8.460   7.390 -0.2651  0.4587  0.0426
   9223SM   H8G12430   5.633   8.479   7.540  0.3001  1.4159  1.6399
   9223SM   C9F12431   5.789   8.631   7.506  0.0729 -0.3974 -0.7538
   9223SM   H9F12432   5.757   8.733   7.536 -0.0484  0.2528 -2.9115
   9223SM   H9G12433   5.858   8.654   7.422  0.5846 -1.1586 -0.5545
   9223SM  C10F12434   5.871   8.572   7.623 -0.0875  0.1594  0.5415
   9223SM  H10F12435   5.928   8.487   7.580 -0.0938  0.4405 -0.0266
   9223SM  H10G12436   5.801   8.541   7.704  0.1533 -2.3770 -0.1094
   9223SM  C11F12437   5.969   8.679   7.672 -0.7086  0.2471 -0.1595
   9223SM  H11F12438   6.022   8.726   7.586 -0.5452  0.6673  0.1704
   9223SM  H11G12439   6.053   8.631   7.726 -0.0952  1.4270 -0.0271
   9223SM  C12F12440   5.909   8.779   7.771  0.2058 -0.2494  0.7359
   9223SM  H12F12441   5.894   8.733   7.871  0.9942  0.5223  1.2243
   9223SM  H12G12442   5.811   8.809   7.727 -0.8308 -2.9646  0.9916
   9223SM  C13F12443   5.991   8.905   7.798  0.1602 -0.4664  0.2770
   9223SM  H13F12444   5.942   8.956   7.883 -0.4901 -0.4907 -0.0768
   9223SM  H13G12445   5.995   8.970   7.708 -0.0385 -2.8676 -1.5593
   9223SM  C14F12446   6.131   8.863   7.839 -0.0295  0.0055 -0.3110
   9223SM  H14F12447   6.190   8.830   7.751  0.9062 -0.3985  0.4492
   9223SM  H14G12448   6.139   8.777   7.909  0.4672 -0.5769 -1.0618
   9223SM  C15F12449   6.218   8.974   7.909 -0.0153  0.1937  0.4235
   9223SM  H15F12450   6.185   9.061   7.847  2.9115  0.9728 -0.2177
   9223SM  H15G12451   6.325   8.943   7.898  0.3351  0.0242  3.4705
   9223SM  C16F12452   6.171   8.997   8.051 -0.0940  0.2967 -0.0352
   9223SM  H16F12453   6.062   9.017   8.066  0.1196  0.3238  1.7878
   9223SM  H16G12454   6.224   9.093   8.066  0.0515  0.2980 -0.5502
   9223SM  C17F12455   6.225   8.886   8.151 -0.3053 -0.8742 -0.4071
   9223SM  H17F12456   6.328   8.857   8.121  0.4897  0.8581  0.5013
   9223SM  H17G12457   6.156   8.799   8.143 -1.3735 -0.0231 -0.7351
   9223SM  C18F12458   6.220   8.932   8.299  0.0029 -0.3809  0.7661
   9223SM  H18F12459   6.289   8.866   8.356  2.2191  0.3553 -0.9304
   9223SM  H18G12460   6.118   8.923   8.343 -0.7673 -0.4653 -0.9795
   9223SM  C19F12461   6.262   9.076   8.330 -0.6225 -0.5162  0.0739
   9223SM  H19F12462   6.210   9.143   8.259  2.0524 -1.7606 -3.3276
   9223SM  H19G12463   6.370   9.096   8.314 -0.1760 -0.6072  2.6059
   9223SM  C20F12464   6.241   9.110   8.480  0.0565  0.5195  1.4825
   9223SM  H20F12465   6.276   9.028   8.546 -0.1423 -0.1205  0.8046
   9223SM  H20G12466   6.130   9.114   8.485 -0.0887  0.4819 -0.6361
   9223SM  C21F12467   6.293   9.245   8.523 -0.9510  0.1146 -0.1694
   9223SM  H21F12468   6.250   9.335   8.473 -0.8753  0.6119  0.6433
   9223SM  H21G12469   6.398   9.238   8.489 -1.0410  0.1653 -0.4577
   9223SM  C22F12470   6.271   9.257   8.668  0.1803 -0.2428 -0.0323
   9223SM  H22F12471   6.305   9.171   8.729 -0.4970  0.5226  1.4668
   9223SM  H22G12472   6.161   9.262   8.678  0.1296 -1.0095 -0.2034
   9223SM  C23F12473   6.325   9.389   8.724  0.2274  0.1309 -0.8051
   9223SM  H23F12474   6.422   9.427   8.686  0.4767 -0.1310 -0.4318
   9223SM  H23G12475   6.329   9.388   8.835  0.7134 -0.5782 -0.8256
   9223SM  H23H12476   6.257   9.470   8.690  1.4890  0.9838 -1.3584
   9323SM     N12477   1.744   4.809   6.470 -1.0205  0.2729  0.4350
   9323SM   C1512478   1.684   4.948   6.459 -0.2026  0.0563  0.6043
   9323SM  H15A12479   1.580   4.945   6.429 -0.1437  1.8668  0.1009
   9323SM  H15B12480   1.745   5.009   6.394 -1.2801 -0.5189 -1.0098
   9323SM  H15C12481   1.690   4.990   6.558  2.0770  1.3084 -0.0108
   9323SM   C1412482   1.883   4.830   6.513  0.0325  0.2750  0.0820
   9323SM  H14A12483   1.938   4.895   6.446 -1.4154  0.4350 -0.9854
   9323SM  H14B12484   1.928   4.734   6.536 -1.6205 -0.1956  1.5476
   9323SM  H14C12485   1.889   4.878   6.609 -2.3416 -1.8732  1.4158
   9323SM   C1312486   1.676   4.730   6.582  0.3408 -0.3572  0.2004
   9323SM  H13A12487   1.569   4.719   6.570  0.0868  1.0614  0.9158
   9323SM  H13B12488   1.680   4.766   6.684 -2.5674 -2.5477  1.2339
   9323SM  H13C12489   1.733   4.638   6.587  0.8991 -0.0633 -0.6240
   9323SM   C1212490   1.734   4.731   6.335 -0.4821  0.4767  0.4397
   9323SM  H12A12491   1.769   4.632   6.359  0.3527 -0.1138 -2.7820
   9323SM  H12B12492   1.810   4.773   6.271  1.3508  0.5911  2.5652
   9323SM   C1112493   1.599   4.718   6.274  0.3391  0.4609  0.0111
   9323SM  H11A12494   1.534   4.682   6.356 -1.0005  0.8443 -0.8530
   9323SM  H11B12495   1.594   4.642   6.192 -0.7491  0.8241 -0.2758
   9323SM     P12496   1.391   4.874   6.217  0.4965 -0.1168 -0.1044
   9323SM   O1312497   1.358   4.987   6.134  0.4957  0.5579  0.0956
   9323SM   O1412498   1.315   4.750   6.192  0.0552 -0.2447  0.2467
   9323SM   O1112499   1.370   4.913   6.367 -0.0238 -0.3796  0.3484
   9323SM   O1212500   1.547   4.838   6.216  0.2498 -0.4589  0.1771
   9323SM   C1S12501   1.294   4.843   6.463 -0.0935  0.1140  0.3322
   9323SM   H1S12502   1.348   4.748   6.483 -0.6732 -0.1864  0.5256
   9323SM   H1T12503   1.192   4.821   6.425  0.4702 -1.7527 -0.2133
   9323SM    NF12504   1.224   4.832   6.700 -0.7461 -0.0813  0.0570
   9323SM   HNF12505   1.125   4.833   6.682 -0.7942  0.3260  0.3321
   9323SM   C2S12506   1.295   4.916   6.600  0.4560  0.1288 -0.5476
   9323SM   H2S12507   1.403   4.917   6.625  0.8955  0.1520 -2.2604
   9323SM   C3S12508   1.252   5.063   6.590  0.2878  0.1828  0.8434
   9323SM   H3S12509   1.148   5.060   6.553  0.9929  0.4294 -1.2925
   9323SM    O312510   1.316   5.139   6.481 -0.4058  0.9146 -0.4018
   9323SM   HO312511   1.357   5.064   6.438  1.0501 -0.4098  2.8849
   9323SM   C4S12512   1.260   5.143   6.723  0.2005 -0.0044  0.4277
   9323SM   H4S12513   1.358   5.130   6.770  0.4743  0.1514 -0.0886
   9323SM   C5S12514   1.168   5.231   6.774 -0.3947  0.6208 -0.1926
   9323SM   H5S12515   1.068   5.248   6.731 -0.7155 -0.2831  0.1679
   9323SM   C6S12516   1.193   5.300   6.905  0.2169 -0.2800 -0.3253
   9323SM   H6S12517   1.177   5.407   6.880 -1.3160 -0.5936 -0.8100
   9323SM   H6T12518   1.291   5.277   6.952  0.3556  1.2866  0.2450
   9323SM   C7S12519   1.086   5.267   7.008 -0.2808 -0.0160 -0.1628
   9323SM   H7S12520   1.090   5.157   7.025 -0.7221  0.0832  0.6563
   9323SM   H7T12521   0.984   5.286   6.968 -0.1448  0.2707 -0.3711
   9323SM   C8S12522   1.104   5.358   7.134  1.4781 -0.4070 -0.0560
   9323SM   H8S12523   1.112   5.458   7.087 -0.7197 -0.9652 -1.8299
   9323SM   H8T12524   1.196   5.322   7.184 -1.5652 -1.8577  5.3252
   9323SM   C9S12525   0.988   5.360   7.236  0.2098 -0.0629  0.7493
   9323SM   H9S12526   0.980   5.264   7.291 -0.6384  0.1306  0.9686
   9323SM   H9T12527   0.888   5.374   7.190 -0.5011  0.1563  2.3020
   9323SM  C10S12528   1.019   5.473   7.337  0.4572 -0.3729  0.6735
   9323SM  H10S12529   1.006   5.565   7.277  0.9139 -1.4778 -1.2097
   9323SM  H10T12530   1.117   5.463   7.389 -0.7078  0.1896  3.1212
   9323SM  C11S12531   0.910   5.480   7.445  0.1566  0.5166  0.0181
   9323SM  H11S12532   0.893   5.385   7.500  0.9535  0.5784  0.3834
   9323SM  H11T12533   0.814   5.515   7.402  0.7805  2.3641  0.0373
   9323SM  C12S12534   0.956   5.567   7.557 -0.3913 -0.0743  0.2873
   9323SM  H12S12535   0.986   5.664   7.511  1.0293 -1.1888 -1.2316
   9323SM  H12T12536   1.042   5.528   7.614 -0.1538  1.3914  0.9935
   9323SM  C13S12537   0.846   5.608   7.660  0.2444 -0.1140 -0.1158
   9323SM  H13S12538   0.789   5.524   7.705  0.5386  1.1284  2.7925
   9323SM  H13T12539   0.776   5.675   7.606 -0.2441 -0.2971  0.2829
   9323SM  C14S12540   0.906   5.682   7.781  0.2172 -0.1913 -0.2510
   9323SM  H14S12541   0.832   5.741   7.839 -1.4727 -1.8541 -0.6162
   9323SM  H14T12542   0.981   5.755   7.745  3.6266 -1.6408  3.2135
   9323SM  C15S12543   0.979   5.585   7.875 -0.0431  0.0206 -0.0892
   9323SM  H15S12544   0.926   5.488   7.862  0.2651  0.0051 -1.3788
   9323SM  H15T12545   1.083   5.562   7.845  0.0966  1.3650 -0.6977
   9323SM  C16S12546   0.987   5.645   8.014  0.4802 -0.2182  0.3388
   9323SM  H16S12547   0.901   5.714   8.031  0.4910 -0.0839 -0.1229
   9323SM  H16T12548   1.073   5.714   8.003 -0.8855  1.1514 -3.6720
   9323SM  C17S12549   0.987   5.540   8.125  0.1754 -0.8018  0.9270
   9323SM  H17S12550   1.032   5.591   8.213 -0.9256  1.3872  0.2987
   9323SM  H17T12551   1.045   5.450   8.096  0.4034 -0.1564 -0.7335
   9323SM  C18S12552   0.849   5.479   8.141  0.0034 -0.6684 -0.1307
   9323SM  H18S12553   0.788   5.558   8.190  1.0623 -2.2106  4.0222
   9323SM  H18T12554   0.843   5.382   8.193 -2.5110 -0.0599  0.8336
   9323SM  H18U12555   0.809   5.467   8.038  0.8967 -0.3127 -0.5398
   9323SM   C1F12556   1.283   4.724   6.747 -1.3587 -0.2714 -0.6561
   9323SM    OF12557   1.409   4.715   6.747  0.3966  0.4663  0.0941
   9323SM   C2F12558   1.201   4.605   6.794 -0.0008  0.0006  0.2499
   9323SM   H2F12559   1.187   4.531   6.713  1.0758 -1.0062  0.9362
   9323SM   H2G12560   1.094   4.629   6.810  0.2071  2.4035 -1.5102
   9323SM   C3F12561   1.265   4.517   6.912 -0.2325 -0.0919 -0.4756
   9323SM   H3F12562   1.357   4.469   6.874  0.1395 -0.2949  0.6511
   9323SM   H3G12563   1.197   4.435   6.944 -0.4482  0.4822  0.6162
   9323SM   C4F12564   1.297   4.598   7.044 -0.2104 -0.2098  0.4797
   9323SM   H4F12565   1.204   4.642   7.087  0.2791 -1.0973  2.5836
   9323SM   H4G12566   1.370   4.681   7.034  3.3932 -3.0148  1.4017
   9323SM   C5F12567   1.356   4.510   7.153  0.4599  0.2012 -0.1191
   9323SM   H5F12568   1.395   4.564   7.242 -0.5453 -2.0611  1.7961
   9323SM   H5G12569   1.434   4.451   7.100  1.0615  0.4188  0.5004
   9323SM   C6F12570   1.248   4.409   7.212 -0.8388 -0.1145  0.0181
   9323SM   H6F12571   1.295   4.315   7.248 -1.4187  0.3123  1.9911
   9323SM   H6G12572   1.175   4.378   7.135 -0.3445 -0.5109 -0.2990
   9323SM   C7F12573   1.181   4.461   7.326  0.3495 -0.4566  0.1371
   9323SM   H7F12574   1.149   4.561   7.292  0.4025 -1.0815 -1.8833
   9323SM   H7G12575   1.248   4.487   7.411  0.6494  1.3011 -0.5975
   9323SM   C8F12576   1.047   4.386   7.364 -0.0222  0.4674 -1.2223
   9323SM   H8F12577   1.004   4.328   7.280  0.1953  0.9864 -1.7014
   9323SM   H8G12578   0.974   4.464   7.396  0.1428 -0.2298  0.9555
   9323SM   C9F12579   1.065   4.294   7.478 -0.3319 -0.3260  0.2517
   9323SM   H9F12580   1.119   4.351   7.556 -1.5556  2.4056 -0.7753
   9323SM   H9G12581   1.123   4.203   7.451 -0.3050 -0.1984 -0.1164
   9323SM  C10F12582   0.935   4.241   7.543  0.5268  0.7032 -0.4833
   9323SM  H10F12583   0.879   4.182   7.466  1.1247 -1.3351  0.5660
   9323SM  H10G12584   0.867   4.326   7.563  2.3110  3.1333 -3.6945
   9323SM  C11F12585   0.967   4.151   7.657 -0.3729 -1.1656  0.4222
   9323SM  H11F12586   1.040   4.190   7.731 -0.2209  0.6444 -0.6065
   9323SM  H11G12587   1.009   4.056   7.619  0.7267 -0.3147 -0.5718
   9323SM  C12F12588   0.839   4.125   7.738 -0.4446 -0.9279 -0.0834
   9323SM  H12F12589   0.766   4.089   7.662  0.3217 -2.1758 -0.2539
   9323SM  H12G12590   0.814   4.223   7.784  3.3513  1.2053 -2.0656
   9323SM  C13F12591   0.865   4.025   7.843 -0.2801  0.2538 -0.1922
   9323SM  H13F12592   0.948   4.067   7.903 -1.3774  0.6169  1.1350
   9323SM  H13G12593   0.900   3.933   7.791 -0.0106 -0.0050  0.4272
   9323SM  C14F12594   0.739   3.980   7.922 -0.0184 -0.3956  0.1899
   9323SM  H14F12595   0.774   3.897   7.987  1.6136  1.6430  2.0467
   9323SM  H14G12596   0.668   3.926   7.855 -0.2722 -1.0848  0.9961
   9323SM  C15F12597   0.662   4.087   8.007 -0.4673 -0.0024  0.3666
   9323SM  H15F12598   0.619   4.158   7.932 -0.6755 -0.0824  0.4094
   9323SM  H15G12599   0.741   4.141   8.063 -1.0111 -0.6512  1.8194
   9323SM  C16F12600   0.560   4.027   8.101 -0.1396  0.6566  0.0370
   9323SM  H16F12601   0.481   3.990   8.032  2.0673 -0.2602 -2.1652
   9323SM  H16G12602   0.515   4.109   8.161  0.4230 -0.3536  1.9287
   9323SM  C17F12603   0.621   3.921   8.198 -0.2843 -0.1386 -0.3402
   9323SM  H17F12604   0.704   3.969   8.255  1.8128 -1.2189 -2.3699
   9323SM  H17G12605   0.651   3.823   8.155  1.6245 -1.0784  2.7572
   9323SM  C18F12606   0.525   3.875   8.309  0.5732 -0.1288 -0.4784
   9323SM  H18F12607   0.436   3.839   8.252  1.9798 -1.1810 -2.1196
   9323SM  H18G12608   0.502   3.971   8.358  0.5266  0.0964 -0.9389
   9323SM  C19F12609   0.581   3.773   8.414  0.5885  0.4233 -0.8632
   9323SM  H19F12610   0.584   3.677   8.358  0.8066  0.4017 -0.8127
   9323SM  H19G12611   0.514   3.754   8.501  1.4017 -0.9299 -0.5173
   9323SM  C20F12612   0.723   3.812   8.472  0.3128 -0.0187  0.4361
   9323SM  H20F12613   0.693   3.918   8.486 -1.2998 -0.4379  0.3614
   9323SM  H20G12614   0.794   3.793   8.389 -3.3456 -2.3176 -2.4940
   9323SM  C21F12615   0.767   3.730   8.586  0.7419  0.4119 -0.5660
   9323SM  H21F12616   0.685   3.680   8.642 -1.2058  2.6318 -1.2669
   9323SM  H21G12617   0.822   3.793   8.658  0.8956 -0.2525 -0.0893
   9323SM  C22F12618   0.863   3.612   8.547 -0.4183  0.5046 -0.0308
   9323SM  H22F12619   0.956   3.668   8.519  0.4305  0.4034  2.3177
   9323SM  H22G12620   0.832   3.553   8.459  0.0681  0.4902 -0.1984
   9323SM  C23F12621   0.893   3.517   8.667 -0.3592  0.5415  0.4382
   9323SM  H23F12622   0.962   3.432   8.644  0.5951  0.5267  3.0666
   9323SM  H23G12623   0.793   3.471   8.683 -0.6091  0.2069 -1.7190
   9323SM  H23H12624   0.933   3.566   8.758 -0.7175 -0.2274  1.0134
   9423SM     N12625   5.559   6.765   6.205 -1.0103 -0.2214  0.2837
   9423SM   C1512626   5.627   6.899   6.220  0.5041 -0.3118 -0.1066
   9423SM  H15A12627   5.564   6.974   6.174 -1.2659 -3.1666 -2.7146
   9423SM  H15B12628   5.729   6.902   6.184  0.8335 -0.5912  0.7605
   9423SM  H15C12629   5.640   6.921   6.325 -2.9759 -0.1215  0.3887
   9423SM   C1412630   5.411   6.794   6.193 -0.2709  0.0476  0.2425
   9423SM  H14A12631   5.388   6.864   6.113 -0.2260  0.3570  0.4989
   9423SM  H14B12632   5.380   6.838   6.287  0.8517 -0.3910  0.8332
   9423SM  H14C12633   5.359   6.705   6.160 -0.1356  1.2816 -3.7997
   9423SM   C1312634   5.610   6.703   6.079 -0.1522  0.7813 -0.6432
   9423SM  H13A12635   5.605   6.779   6.002  0.8191  2.0924  0.5282
   9423SM  H13B12636   5.539   6.627   6.051  0.1020  0.3240 -0.0642
   9423SM  H13C12637   5.707   6.656   6.075 -1.1788 -1.6063  0.6634
   9423SM   C1212638   5.589   6.669   6.324  0.8889 -0.1738  0.1207
   9423SM  H12A12639   5.694   6.644   6.319  1.5596  1.9171  2.0563
   9423SM  H12B12640   5.527   6.581   6.315 -2.1005  1.8064 -0.1621
   9423SM   C1112641   5.558   6.722   6.473  0.4998  0.8847 -0.5428
   9423SM  H11A12642   5.582   6.646   6.550  0.6029  1.4080 -0.0474
   9423SM  H11B12643   5.449   6.731   6.487  0.8708  2.3561  2.2189
   9423SM     P12644   5.763   6.887   6.552 -0.3142 -0.0110  0.5143
   9423SM   O1312645   5.868   6.823   6.464  0.2048 -0.4982 -0.6097
   9423SM   O1412646   5.770   7.035   6.565 -0.1682  0.2862 -0.0861
   9423SM   O1112647   5.765   6.831   6.696  0.0157  0.5834 -0.2999
   9423SM   O1212648   5.616   6.850   6.507  0.3878 -0.3801  0.3595
   9423SM   C1S12649   5.693   6.901   6.803 -0.2299  0.3165  0.4474
   9423SM   H1S12650   5.584   6.883   6.789 -0.1545  0.0856  0.1454
   9423SM   H1T12651   5.701   7.012   6.807  0.5092  0.5613 -3.5092
   9423SM    NF12652   5.620   6.852   7.046  0.1427 -0.5182 -0.4891
   9423SM   HNF12653   5.639   6.915   7.120  2.4722 -1.1559 -0.4613
   9423SM   C2S12654   5.728   6.833   6.946  0.5292 -0.8950  0.3448
   9423SM   H2S12655   5.720   6.725   6.922 -0.8241 -0.5137 -1.0703
   9423SM   C3S12656   5.867   6.874   6.991  0.4489  0.2849 -0.5350
   9423SM   H3S12657   5.867   6.984   7.008 -0.0867  0.3640 -1.0200
   9423SM    O312658   5.963   6.844   6.890  0.2475 -0.2571 -0.3475
   9423SM   HO312659   5.911   6.797   6.825  0.8238 -1.7074  0.2087
   9423SM   C4S12660   5.912   6.799   7.116 -0.2676  0.0459  0.2080
   9423SM   H4S12661   5.875   6.697   7.131  0.0677  0.3163  3.6453
   9423SM   C5S12662   5.993   6.858   7.208  0.8108 -0.2806 -0.4969
   9423SM   H5S12663   6.019   6.964   7.194 -0.7634  0.2411  0.3433
   9423SM   C6S12664   6.043   6.787   7.331 -0.2858  0.7414  0.0128
   9423SM   H6S12665   6.008   6.835   7.425 -0.2949  2.7133 -0.9245
   9423SM   H6T12666   6.154   6.795   7.334 -0.3666  1.7267  1.5413
   9423SM   C7S12667   6.007   6.637   7.346 -0.2744 -0.8084 -0.4434
   9423SM   H7S12668   6.051   6.586   7.258 -1.2481 -0.8525 -0.9092
   9423SM   H7T12669   5.897   6.633   7.360 -0.1034 -0.0580  1.4436
   9423SM   C8S12670   6.073   6.570   7.468  0.2217 -0.7047 -0.0986
   9423SM   H8S12671   6.182   6.585   7.454  0.0338 -0.1432 -1.0105
   9423SM   H8T12672   6.047   6.463   7.449 -0.7269 -0.1433 -2.2920
   9423SM   C9S12673   6.045   6.631   7.604 -0.4141  1.1459  0.3704
   9423SM   H9S12674   5.953   6.579   7.638  0.4631 -0.9856 -0.3002
   9423SM   H9T12675   6.030   6.741   7.601  2.1068  1.7587  3.6802
   9423SM  C10S12676   6.157   6.594   7.701 -0.6330  1.5350  0.2144
   9423SM  H10S12677   6.254   6.640   7.672 -0.3527 -0.6727 -2.8771
   9423SM  H10T12678   6.175   6.485   7.686  0.0676  2.0182 -3.2375
   9423SM  C11S12679   6.107   6.644   7.842 -0.0074 -0.3993 -0.1448
   9423SM  H11S12680   6.028   6.573   7.877 -0.6493 -0.6504 -1.9927
   9423SM  H11T12681   6.082   6.752   7.834  2.0620  0.0901 -0.4631
   9423SM  C12S12682   6.221   6.662   7.948  0.0158  0.3894 -0.5411
   9423SM  H12S12683   6.164   6.663   8.044  0.1473 -2.1916 -0.3780
   9423SM  H12T12684   6.273   6.759   7.934 -0.5786  0.7950  0.0124
   9423SM  C13S12685   6.295   6.524   7.963 -0.2413  0.0701  0.1196
   9423SM  H13S12686   6.337   6.492   7.865 -2.5618 -3.1427  0.0063
   9423SM  H13T12687   6.225   6.442   7.987 -2.0365  2.0685  2.1165
   9423SM  C14S12688   6.395   6.529   8.078  0.0056  0.8009 -0.0773
   9423SM  H14S12689   6.343   6.537   8.176 -0.5303  0.0295 -0.2970
   9423SM  H14T12690   6.466   6.615   8.075 -0.0733  0.8303 -1.3839
   9423SM  C15S12691   6.473   6.387   8.081 -0.1350 -0.2222  0.3071
   9423SM  H15S12692   6.479   6.334   7.983 -0.8154 -0.4218  0.3643
   9423SM  H15T12693   6.410   6.325   8.149 -2.2872  1.6650  0.1532
   9423SM  C16S12694   6.612   6.393   8.150  0.1389 -0.7349 -0.3022
   9423SM  H16S12695   6.642   6.289   8.175  0.2154 -1.5812 -3.4330
   9423SM  H16T12696   6.605   6.456   8.241 -1.2764 -0.3166 -0.6718
   9423SM  C17S12697   6.722   6.453   8.066  0.0773  0.0078  0.1121
   9423SM  H17S12698   6.710   6.564   8.060  1.0107  0.0999 -0.2522
   9423SM  H17T12699   6.721   6.413   7.962  2.6444  0.5231 -0.1870
   9423SM  C18S12700   6.866   6.435   8.121  0.4268  0.6178  0.3822
   9423SM  H18S12701   6.877   6.326   8.135 -0.3751  0.5681  0.6497
   9423SM  H18T12702   6.873   6.481   8.222  1.2179 -0.0271  0.6303
   9423SM  H18U12703   6.942   6.473   8.049 -0.0729 -1.9383 -1.6571
   9423SM   C1F12704   5.506   6.786   7.035 -0.5507 -0.1786  0.3170
   9423SM    OF12705   5.481   6.713   6.940  0.5996 -0.4047  0.1999
   9423SM   C2F12706   5.400   6.831   7.137  0.0726 -0.0919 -0.4014
   9423SM   H2F12707   5.361   6.932   7.112  1.0590 -0.0157 -1.7306
   9423SM   H2G12708   5.450   6.843   7.235 -1.1961 -0.7543  0.3509
   9423SM   C3F12709   5.275   6.739   7.165 -0.6608 -0.2103  0.9930
   9423SM   H3F12710   5.303   6.638   7.202 -2.1490 -2.0815 -2.4968
   9423SM   H3G12711   5.228   6.715   7.067 -0.8512  3.2527  0.1130
   9423SM   C4F12712   5.169   6.788   7.264  0.4499 -0.0761  0.2893
   9423SM   H4F12713   5.128   6.879   7.215  1.7003 -0.9068 -2.5030
   9423SM   H4G12714   5.224   6.821   7.355 -0.1918  0.7409  0.3942
   9423SM   C5F12715   5.050   6.696   7.292 -0.3367  1.0411 -0.4076
   9423SM   H5F12716   5.040   6.619   7.212  0.6990  0.3431  0.1126
   9423SM   H5G12717   4.956   6.755   7.284  0.3287  2.4675  1.4336
   9423SM   C6F12718   5.040   6.640   7.432 -0.0684 -0.0396 -0.3345
   9423SM   H6F12719   5.126   6.585   7.474 -0.4743  0.7190  1.5576
   9423SM   H6G12720   4.959   6.565   7.431  1.7831 -2.1465  0.1551
   9423SM   C7F12721   5.007   6.746   7.534  0.3248 -0.1531 -0.1032
   9423SM   H7F12722   4.911   6.790   7.499 -1.0695 -1.3497  1.9858
   9423SM   H7G12723   5.087   6.822   7.539  1.4623 -1.2420 -0.9860
   9423SM   C8F12724   4.985   6.701   7.680 -0.2056  0.0932 -0.0847
   9423SM   H8F12725   5.082   6.667   7.722 -0.1272  1.9634  1.3948
   9423SM   H8G12726   4.918   6.613   7.687 -0.2001 -0.1003 -2.0119
   9423SM   C9F12727   4.938   6.808   7.775  0.6125  0.1452  0.1754
   9423SM   H9F12728   4.831   6.827   7.754 -0.3662 -1.7122  3.0363
   9423SM   H9G12729   4.998   6.901   7.762 -0.4496  1.2396  2.5029
   9423SM  C10F12730   4.948   6.759   7.922 -0.1353  0.2549 -0.8537
   9423SM  H10F12731   5.052   6.741   7.955  0.0610  0.2474 -1.4638
   9423SM  H10G12732   4.900   6.659   7.932  2.5023 -1.2537 -2.2714
   9423SM  C11F12733   4.892   6.873   8.019  0.3110  1.1012 -0.8685
   9423SM  H11F12734   4.787   6.892   7.990 -0.6379 -1.2629  0.7491
   9423SM  H11G12735   4.961   6.960   8.006  3.6499 -1.4666 -1.7017
   9423SM  C12F12736   4.873   6.839   8.170  0.2406 -0.4020 -0.4703
   9423SM  H12F12737   4.961   6.781   8.205 -1.5383 -2.2851  1.1224
   9423SM  H12G12738   4.783   6.774   8.180  0.3987 -0.6203 -0.4722
   9423SM  C13F12739   4.858   6.969   8.251  0.0985  0.0143 -0.1570
   9423SM  H13F12740   4.761   7.015   8.221  0.6059 -0.2033 -2.3124
   9423SM  H13G12741   4.945   7.036   8.234 -1.1750  1.1817 -2.7772
   9423SM  C14F12742   4.846   6.940   8.408 -0.1491  0.3070 -0.2578
   9423SM  H14F12743   4.855   7.037   8.462  0.5601  1.1172 -1.7669
   9423SM  H14G12744   4.931   6.875   8.439 -0.4256  0.3783  0.6851
   9423SM  C15F12745   4.727   6.866   8.449  0.1136 -0.2754  0.6866
   9423SM  H15F12746   4.726   6.776   8.384 -1.0607  0.3588 -0.2205
   9423SM  H15G12747   4.635   6.925   8.424 -0.2226 -0.6800  0.9662
   9423SM  C16F12748   4.720   6.809   8.588  0.1921 -0.2788 -0.3895
   9423SM  H16F12749   4.776   6.714   8.603  0.8339  0.4011  1.8668
   9423SM  H16G12750   4.612   6.801   8.612  0.1233  1.7966  0.1139
   9423SM  C17F12751   4.781   6.909   8.681  0.5434  0.0278 -0.3984
   9423SM  H17F12752   4.716   6.996   8.660 -0.8281 -1.3334 -2.0719
   9423SM  H17G12753   4.887   6.932   8.661 -0.0190  3.6249  0.0783
   9423SM  C18F12754   4.774   6.864   8.833 -0.0776  0.2162  0.7716
   9423SM  H18F12755   4.800   6.756   8.843 -0.5294  0.1350  1.1165
   9423SM  H18G12756   4.666   6.856   8.856 -0.4817 -1.0849 -1.2815
   9423SM  C19F12757   4.835   6.956   8.935 -0.1722 -0.1193  0.3912
   9423SM  H19F12758   4.946   6.952   8.924 -0.1873  2.1737 -1.6664
   9423SM  H19G12759   4.814   6.909   9.033  1.5822  1.0580  1.3896
   9423SM  C20F12760   4.787   7.097   8.938 -0.1800 -0.6419  0.0535
   9423SM  H20F12761   4.680   7.098   8.911 -0.1986  3.4126 -0.2220
   9423SM  H20G12762   4.833   7.155   8.856 -2.0428  2.3389  0.9802
   9423SM  C21F12763   4.794   7.169   9.076  0.3717  0.7144 -0.5897
   9423SM  H21F12764   4.784   7.279   9.064 -2.3136  0.6509  0.2950
   9423SM  H21G12765   4.893   7.153   9.124  0.3278 -1.5506 -1.1169
   9423SM  C22F12766   4.676   7.130   9.171 -0.2583  0.3142  0.2715
   9423SM  H22F12767   4.700   7.030   9.212  0.3479 -0.0358 -0.8845
   9423SM  H22G12768   4.584   7.111   9.113  1.0469 -2.2913 -1.1082
   9423SM  C23F12769   4.649   7.230   9.284  0.2187 -0.2010  0.3293
   9423SM  H23F12770   4.749   7.232   9.332  1.2397 -1.1925 -1.6205
   9423SM  H23G12771   4.571   7.203   9.359 -2.6459  1.9136 -1.6757
   9423SM  H23H12772   4.621   7.329   9.244 -2.0366 -0.4313  1.1987
   9523SM     N12773   2.418   1.347   6.230 -0.0779 -0.0662 -0.3213
   9523SM   C1512774   2.434   1.319   6.080  0.7833 -0.4403 -0.3017
   9523SM  H15A12775   2.458   1.217   6.054  1.1979 -0.5607  0.5236
   9523SM  H15B12776   2.498   1.399   6.045  0.0544  1.5528  2.5560
   9523SM  H15C12777   2.341   1.341   6.031  0.0434 -0.4822  1.0387
   9523SM   C1412778   2.314   1.265   6.290  0.1440 -0.3932 -0.2357
   9523SM  H14A12779   2.223   1.284   6.236 -1.4883  0.0988  2.4823
   9523SM  H14B12780   2.294   1.289   6.394 -1.8686 -0.2187 -0.6339
   9523SM  H14C12781   2.343   1.161   6.288  1.7178  0.0269 -0.4935
   9523SM   C1312782   2.548   1.321   6.295  0.2718  0.9589 -0.5948
   9523SM  H13A12783   2.575   1.216   6.299  0.6031  1.0560 -0.2556
   9523SM  H13B12784   2.553   1.342   6.400  1.4762  1.5866 -0.7627
   9523SM  H13C12785   2.625   1.370   6.237  0.1267  3.9258  1.4765
   9523SM   C1212786   2.366   1.491   6.239 -0.2144  0.0011 -0.0427
   9523SM  H12A12787   2.283   1.501   6.171 -1.0360  0.0707  0.9372
   9523SM  H12B12788   2.449   1.555   6.215 -1.0670  0.9291 -0.6315
   9523SM   C1112789   2.304   1.540   6.375  1.0017 -0.6462  0.4660
   9523SM  H11A12790   2.208   1.485   6.390  0.3517 -0.2774 -1.8884
   9523SM  H11B12791   2.255   1.637   6.355  1.2712 -0.8753 -1.5427
   9523SM     P12792   2.483   1.656   6.511  0.3937  0.0512 -0.1128
   9523SM   O1312793   2.591   1.614   6.600  0.4977 -0.1126 -0.1017
   9523SM   O1412794   2.523   1.719   6.384 -0.5132  0.1323  0.3360
   9523SM   O1112795   2.391   1.764   6.587  0.0421  0.3083  0.6642
   9523SM   O1212796   2.390   1.529   6.488 -0.1272  0.0455  0.1813
   9523SM   C1S12797   2.312   1.701   6.685 -0.3002 -0.7753  0.2720
   9523SM   H1S12798   2.373   1.627   6.741 -0.5282 -0.8067  0.4801
   9523SM   H1T12799   2.229   1.644   6.638 -0.3877  0.5441 -1.2471
   9523SM    NF12800   2.150   1.742   6.866 -0.6414  0.0073 -0.2264
   9523SM   HNF12801   2.052   1.758   6.878 -0.7390 -0.4100 -0.4554
   9523SM   C2S12802   2.237   1.808   6.774  1.1124 -0.3632 -0.1866
   9523SM   H2S12803   2.308   1.872   6.831 -1.8529  2.6043  0.4882
   9523SM   C3S12804   2.160   1.910   6.684 -0.3230  0.6753  0.0845
   9523SM   H3S12805   2.086   1.844   6.636  1.4697 -0.2313 -1.5840
   9523SM    O312806   2.240   1.974   6.584 -0.4110 -0.2419  0.0058
   9523SM   HO312807   2.320   1.922   6.573 -0.8616 -0.9069 -0.1785
   9523SM   C4S12808   2.083   2.014   6.768 -0.0176 -0.0694 -0.0554
   9523SM   H4S12809   1.988   1.969   6.800 -1.0083 -0.4459 -3.1777
   9523SM   C5S12810   2.129   2.127   6.825  0.3533  0.5268 -0.3092
   9523SM   H5S12811   2.233   2.156   6.808 -0.0864  1.1657 -2.0911
   9523SM   C6S12812   2.050   2.209   6.922  0.4217  0.4336  0.2503
   9523SM   H6S12813   2.035   2.302   6.863 -0.5448  0.0871 -0.0683
   9523SM   H6T12814   2.115   2.231   7.009 -0.0289 -1.8057  1.2249
   9523SM   C7S12815   1.924   2.149   6.976 -0.5909  0.2804 -0.7802
   9523SM   H7S12816   1.957   2.054   7.024  0.1666  1.0415  0.2469
   9523SM   H7T12817   1.853   2.121   6.894 -0.9171 -0.8930 -0.1227
   9523SM   C8S12818   1.847   2.252   7.063  0.1748 -0.0470 -0.4759
   9523SM   H8S12819   1.798   2.325   6.996  0.3262 -1.1823 -1.8810
   9523SM   H8T12820   1.908   2.316   7.130  0.7897  0.5586 -1.5932
   9523SM   C9S12821   1.733   2.188   7.154  0.4302 -0.2579 -0.2114
   9523SM   H9S12822   1.656   2.146   7.085 -1.7126  2.8642  0.0450
   9523SM   H9T12823   1.677   2.278   7.188  1.4425  0.5191 -0.5537
   9523SM  C10S12824   1.788   2.086   7.254  0.2396  0.2101  0.3047
   9523SM  H10S12825   1.863   2.133   7.322  0.9962 -2.2388  1.2762
   9523SM  H10T12826   1.838   2.007   7.194 -0.7600 -0.2142  0.0198
   9523SM  C11S12827   1.682   2.032   7.345  0.0580  0.2820  0.6786
   9523SM  H11S12828   1.607   1.978   7.284  1.2135 -0.3126 -0.2745
   9523SM  H11T12829   1.636   2.112   7.406  0.9622  1.8448 -0.6002
   9523SM  C12S12830   1.739   1.922   7.437  0.6288  0.1101 -0.6339
   9523SM  H12S12831   1.805   1.974   7.511 -0.0803  1.1124 -0.6846
   9523SM  H12T12832   1.807   1.844   7.396  1.4262 -0.8367  2.2246
   9523SM  C13S12833   1.624   1.861   7.522 -0.3053 -0.7680 -0.1769
   9523SM  H13S12834   1.545   1.817   7.456 -1.1592 -0.4758  0.6260
   9523SM  H13T12835   1.573   1.945   7.573 -0.4489 -1.4072  0.7770
   9523SM  C14S12836   1.669   1.755   7.621 -0.3871 -0.5579  0.3634
   9523SM  H14S12837   1.744   1.801   7.687 -0.3657 -0.8184  0.5222
   9523SM  H14T12838   1.725   1.671   7.574  2.3954  0.5012  1.6435
   9523SM  C15S12839   1.548   1.702   7.701 -0.0423  0.1270 -0.3164
   9523SM  H15S12840   1.484   1.631   7.643 -0.7683 -1.3086  2.0801
   9523SM  H15T12841   1.478   1.784   7.727 -0.6543  0.3647 -2.4827
   9523SM  C16S12842   1.578   1.631   7.832  0.3812 -0.3958  0.2265
   9523SM  H16S12843   1.673   1.677   7.866  0.7237 -1.1284  0.2773
   9523SM  H16T12844   1.592   1.522   7.820  1.6129  0.0112 -3.0514
   9523SM  C17S12845   1.471   1.663   7.952  0.1710 -0.0074  0.6096
   9523SM  H17S12846   1.380   1.614   7.911  1.2865 -0.3719 -1.5761
   9523SM  H17T12847   1.461   1.773   7.948  0.5296  0.1371  2.7095
   9523SM  C18S12848   1.520   1.614   8.088 -0.1981 -0.6246 -0.5636
   9523SM  H18S12849   1.512   1.503   8.092  0.8738 -0.6896  0.0706
   9523SM  H18T12850   1.468   1.643   8.181 -0.6951  0.2773 -1.1050
   9523SM  H18U12851   1.626   1.644   8.102  0.0144 -1.5291 -0.1542
   9523SM   C1F12852   2.209   1.668   6.962 -0.7265  0.3191  0.8617
   9523SM    OF12853   2.332   1.665   6.980 -0.7617 -0.2147  0.1881
   9523SM   C2F12854   2.122   1.582   7.050 -0.5827  0.4654 -0.2451
   9523SM   H2F12855   2.031   1.560   6.991 -0.9221  0.5594  0.2402
   9523SM   H2G12856   2.100   1.645   7.139  1.7663 -0.7511  1.3186
   9523SM   C3F12857   2.186   1.448   7.105  0.0747  0.6002  0.1067
   9523SM   H3F12858   2.289   1.473   7.139  1.0644 -0.2381 -2.0406
   9523SM   H3G12859   2.192   1.379   7.018  1.6314 -1.2490  1.5911
   9523SM   C4F12860   2.112   1.384   7.225 -0.1041 -0.0567 -0.5406
   9523SM   H4F12861   2.162   1.295   7.268  0.8663  0.2587 -0.9783
   9523SM   H4G12862   2.006   1.359   7.202 -0.6752  0.4653  1.3555
   9523SM   C5F12863   2.115   1.480   7.341 -0.1916  0.2338 -0.2497
   9523SM   H5F12864   2.020   1.538   7.336  0.6803  1.9035  1.2188
   9523SM   H5G12865   2.198   1.552   7.324  0.7458  0.0067  2.6649
   9523SM   C6F12866   2.125   1.420   7.481 -0.0763  0.2854 -0.1737
   9523SM   H6F12867   2.169   1.499   7.544  0.6518  0.4238 -0.8451
   9523SM   H6G12868   2.181   1.324   7.482 -2.2130 -1.0637 -1.0839
   9523SM   C7F12869   1.992   1.395   7.536  0.1901 -0.5405 -1.0127
   9523SM   H7F12870   1.936   1.318   7.479 -0.4786  0.0199 -1.1227
   9523SM   H7G12871   1.927   1.484   7.528 -0.0295 -0.6533 -0.5277
   9523SM   C8F12872   2.016   1.347   7.685  0.7047 -0.2288  0.2913
   9523SM   H8F12873   2.092   1.415   7.731  1.2221 -0.2041 -0.5643
   9523SM   H8G12874   2.069   1.249   7.679 -1.2221 -1.2084 -3.5783
   9523SM   C9F12875   1.888   1.342   7.765  0.3942 -0.3437  0.4082
   9523SM   H9F12876   1.811   1.282   7.713 -0.3586  1.3208 -0.4631
   9523SM   H9G12877   1.842   1.443   7.756 -0.1052 -0.6700 -0.9809
   9523SM  C10F12878   1.919   1.306   7.912 -0.3813 -0.2287  0.3338
   9523SM  H10F12879   1.987   1.381   7.958 -1.3967  0.7708  0.2648
   9523SM  H10G12880   1.966   1.206   7.903  1.7583  0.6073  1.4459
   9523SM  C11F12881   1.795   1.308   7.997  0.3149  0.3199 -1.0874
   9523SM  H11F12882   1.711   1.251   7.951  0.9077 -2.1960  0.7367
   9523SM  H11G12883   1.757   1.411   8.017  0.7861  0.1568  0.8743
   9523SM  C12F12884   1.824   1.252   8.136  0.0375  0.9161  0.1050
   9523SM  H12F12885   1.855   1.145   8.136  1.8612  1.4077 -0.4580
   9523SM  H12G12886   1.724   1.255   8.185  0.7231 -2.1533  1.9402
   9523SM  C13F12887   1.923   1.330   8.222 -0.1087  0.3218  0.1600
   9523SM  H13F12888   1.897   1.438   8.232  0.2279  0.3443  0.7663
   9523SM  H13G12889   2.025   1.327   8.178 -0.1028 -1.4485  0.2358
   9523SM  C14F12890   1.948   1.281   8.361  0.5707  0.0702 -0.2618
   9523SM  H14F12891   2.033   1.336   8.406  1.9185 -1.7622 -0.4808
   9523SM  H14G12892   1.983   1.176   8.359  1.9236  0.5123 -1.5952
   9523SM  C15F12893   1.824   1.295   8.451 -0.5123 -0.0161  0.6384
   9523SM  H15F12894   1.834   1.248   8.551  0.3189 -1.7756 -0.2249
   9523SM  H15G12895   1.748   1.231   8.400  0.6560 -1.0341  0.1362
   9523SM  C16F12896   1.752   1.433   8.451 -0.2803  0.0883  0.0540
   9523SM  H16F12897   1.719   1.464   8.349 -1.2235  1.5653  0.7609
   9523SM  H16G12898   1.820   1.511   8.492  1.6637 -2.3006  1.6771
   9523SM  C17F12899   1.624   1.418   8.537 -0.1122 -0.4234  0.1288
   9523SM  H17F12900   1.645   1.417   8.646 -1.0518  0.9501  0.3533
   9523SM  H17G12901   1.584   1.319   8.505  2.7595 -0.8915 -2.4703
   9523SM  C18F12902   1.519   1.527   8.526 -0.3720  0.1561 -0.3635
   9523SM  H18F12903   1.485   1.553   8.423  0.6544  3.4856 -0.0103
   9523SM  H18G12904   1.562   1.622   8.565  1.5115 -0.4620 -0.8618
   9523SM  C19F12905   1.400   1.488   8.608  0.3032 -0.0081  0.1176
   9523SM  H19F12906   1.434   1.484   8.714  2.6029  0.3197 -0.5647
   9523SM  H19G12907   1.358   1.389   8.578 -1.0604  1.2471 -2.4645
   9523SM  C20F12908   1.283   1.581   8.585 -0.7357 -0.3626  0.1212
   9523SM  H20F12909   1.237   1.568   8.485 -0.7679 -1.1324  0.2336
   9523SM  H20G12910   1.327   1.683   8.581 -0.3825 -0.4766  0.8788
   9523SM  C21F12911   1.176   1.558   8.690 -0.0298 -0.0819  0.5080
   9523SM  H21F12912   1.225   1.577   8.788 -0.6189  0.9665  0.6113
   9523SM  H21G12913   1.136   1.456   8.670 -0.2145  0.4378 -2.0944
   9523SM  C22F12914   1.055   1.655   8.676  0.0387 -0.3495 -0.5329
   9523SM  H22F12915   1.069   1.759   8.713 -2.3102 -1.6447  5.0678
   9523SM  H22G12916   0.969   1.631   8.742  0.3437  0.1659  0.0705
   9523SM  C23F12917   0.988   1.651   8.539  0.5216 -0.5542  0.1759
   9523SM  H23F12918   0.898   1.716   8.543 -0.4959 -1.9099  0.0373
   9523SM  H23G12919   0.964   1.546   8.509 -0.1003  0.3188 -2.6488
   9523SM  H23H12920   1.058   1.690   8.463  0.4845 -0.5153  0.1616
   9623SM     N12921   4.592   8.356   6.120  0.2941  0.0936  0.1517
   9623SM   C1512922   4.537   8.221   6.082 -0.1745  0.2776 -0.9405
   9623SM  H15A12923   4.535   8.156   6.169 -0.8450  1.4128 -0.0734
   9623SM  H15B12924   4.595   8.168   6.008  1.9997 -2.1784  2.2589
   9623SM  H15C12925   4.430   8.231   6.068 -0.1886  1.6321 -0.1261
   9623SM   C1412926   4.737   8.345   6.108  0.2356 -0.0666  0.2033
   9623SM  H14A12927   4.777   8.254   6.152 -2.3447 -0.8906  1.0678
   9623SM  H14B12928   4.785   8.434   6.145 -1.5530  1.7140 -1.5279
   9623SM  H14C12929   4.759   8.335   6.003  2.5044 -1.7997  0.7717
   9623SM   C1312930   4.532   8.449   6.017 -0.3647 -0.1228 -0.0478
   9623SM  H13A12931   4.564   8.419   5.918  1.2012  0.5598  0.2247
   9623SM  H13B12932   4.563   8.550   6.038 -0.1533 -0.3255  0.6463
   9623SM  H13C12933   4.425   8.442   6.015 -0.2551 -2.9487 -0.7476
   9623SM   C1212934   4.549   8.406   6.252  0.1623 -0.3361  0.3474
   9623SM  H12A12935   4.446   8.440   6.260 -0.8225 -3.2473  1.6904
   9623SM  H12B12936   4.616   8.483   6.285  1.6510 -0.6078 -1.8399
   9623SM   C1112937   4.551   8.295   6.361  0.0566 -0.2421 -0.2453
   9623SM  H11A12938   4.557   8.353   6.456  0.2204 -0.6966  0.0254
   9623SM  H11B12939   4.645   8.237   6.365  0.3587  0.0890 -1.9206
   9623SM     P12940   4.324   8.206   6.452  0.0612  0.0332 -0.0660
   9623SM   O1312941   4.195   8.211   6.383  0.6411  0.8631 -0.4813
   9623SM   O1412942   4.351   8.103   6.555  0.7382  0.0371 -0.1966
   9623SM   O1112943   4.350   8.347   6.518 -0.1758 -0.1587 -0.2894
   9623SM   O1212944   4.438   8.202   6.350  0.0177  0.1179  0.0552
   9623SM   C1S12945   4.281   8.387   6.640 -0.4423  0.8094 -0.3427
   9623SM   H1S12946   4.268   8.295   6.701 -1.1928  1.1519  0.0354
   9623SM   H1T12947   4.180   8.425   6.614 -0.5359 -0.5246 -2.0692
   9623SM    NF12948   4.309   8.494   6.865 -0.6722  0.0624 -0.1648
   9623SM   HNF12949   4.249   8.572   6.884 -1.7608 -0.4574 -1.2927
   9623SM   C2S12950   4.358   8.494   6.725 -0.4103  0.1773  0.1365
   9623SM   H2S12951   4.462   8.457   6.739 -0.4645  0.3498  1.0313
   9623SM   C3S12952   4.359   8.628   6.648 -0.6178  0.1331 -0.3922
   9623SM   H3S12953   4.252   8.654   6.635 -1.1387 -1.2140  0.8905
   9623SM    O312954   4.392   8.608   6.514 -0.0690  0.4690  0.2745
   9623SM   HO312955   4.393   8.512   6.512  1.3915  0.4313  1.5908
   9623SM   C4S12956   4.447   8.727   6.712  0.0755 -0.4453 -0.3200
   9623SM   H4S12957   4.399   8.785   6.792  0.0538 -1.3846  0.3600
   9623SM   C5S12958   4.580   8.736   6.701 -0.1534  0.0660 -0.3389
   9623SM   H5S12959   4.628   8.667   6.630 -1.2994 -0.3062 -0.7742
   9623SM   C6S12960   4.669   8.824   6.779 -0.4114 -0.1650 -0.3217
   9623SM   H6S12961   4.631   8.927   6.793  0.7237  0.3930 -1.2249
   9623SM   H6T12962   4.774   8.822   6.744 -0.2852 -1.6485  0.0790
   9623SM   C7S12963   4.679   8.763   6.927 -0.3180 -0.5795  0.4681
   9623SM   H7S12964   4.718   8.659   6.928  2.5271  0.3553 -0.3785
   9623SM   H7T12965   4.582   8.769   6.980 -0.4702  0.7815  0.0840
   9623SM   C8S12966   4.783   8.836   7.008  0.1882  0.1144  0.0816
   9623SM   H8S12967   4.742   8.939   7.015 -1.9122 -0.6813  0.0589
   9623SM   H8T12968   4.879   8.846   6.952  0.2069  0.9728  0.2423
   9623SM   C9S12969   4.809   8.782   7.147 -0.4386  0.2523  0.4278
   9623SM   H9S12970   4.777   8.678   7.169 -1.3387  0.7745  1.7130
   9623SM   H9T12971   4.746   8.841   7.217  0.2837  0.5943  0.8058
   9623SM  C10S12972   4.963   8.779   7.179 -0.4841 -0.2042 -0.0168
   9623SM  H10S12973   5.010   8.873   7.145 -1.5774  0.2348 -0.3414
   9623SM  H10T12974   5.018   8.699   7.124  1.8935  0.5612  1.0954
   9623SM  C11S12975   4.981   8.743   7.325 -0.0643  0.0833 -0.4245
   9623SM  H11S12976   4.944   8.640   7.345 -0.6169  0.0786 -1.4377
   9623SM  H11T12977   4.911   8.809   7.380 -3.1286 -3.0125 -0.2380
   9623SM  C12S12978   5.128   8.753   7.372  0.3343  0.3333  0.3337
   9623SM  H12S12979   5.150   8.861   7.387 -1.0814  0.4851  1.5627
   9623SM  H12T12980   5.185   8.715   7.284 -1.6134  1.7008 -1.6148
   9623SM  C13S12981   5.151   8.677   7.493 -0.8417 -0.3962  0.2991
   9623SM  H13S12982   5.079   8.706   7.573 -1.0264 -0.1772  0.0557
   9623SM  H13T12983   5.253   8.709   7.525 -0.3792  1.9250 -2.9882
   9623SM  C14S12984   5.147   8.529   7.472  0.3137 -0.1218 -0.9378
   9623SM  H14S12985   5.200   8.499   7.379 -3.8253 -2.7416 -2.7392
   9623SM  H14T12986   5.042   8.492   7.471  0.7913 -1.6282  0.1564
   9623SM  C15S12987   5.201   8.450   7.591  0.1816 -0.0226  0.6640
   9623SM  H15S12988   5.144   8.469   7.684  1.9085  3.4779  1.1798
   9623SM  H15T12989   5.305   8.486   7.607 -0.2774  1.1415  1.1072
   9623SM  C16S12990   5.204   8.297   7.547 -0.3506 -0.4686 -0.0282
   9623SM  H16S12991   5.265   8.291   7.454  0.0859  1.8870  0.0386
   9623SM  H16T12992   5.102   8.262   7.522  0.5658 -2.9727 -0.5514
   9623SM  C17S12993   5.267   8.210   7.649 -0.3808 -0.0441 -0.1110
   9623SM  H17S12994   5.355   8.261   7.695  0.7784 -0.5793 -1.6445
   9623SM  H17T12995   5.300   8.117   7.597  1.5164 -0.0333  0.9570
   9623SM  C18S12996   5.178   8.176   7.774 -0.4063  0.2655 -0.2243
   9623SM  H18S12997   5.141   8.275   7.809  1.1070  1.3982 -1.6986
   9623SM  H18T12998   5.241   8.126   7.850  0.1970 -2.9679 -2.6329
   9623SM  H18U12999   5.092   8.113   7.741  1.6598 -1.5773 -2.4593
   9623SM   C1F13000   4.304   8.389   6.945 -0.6755 -0.0396  0.3226
   9623SM    OF13001   4.357   8.282   6.915  0.0122  0.3568  0.3616
   9623SM   C2F13002   4.221   8.389   7.072 -0.2325 -0.4881 -0.2554
   9623SM   H2F13003   4.115   8.360   7.054 -0.1513 -1.1055  0.2290
   9623SM   H2G13004   4.211   8.494   7.106 -0.1991 -0.0329 -1.5600
   9623SM   C3F13005   4.274   8.290   7.170 -0.4610  0.2196 -0.3750
   9623SM   H3F13006   4.377   8.325   7.192 -0.5840 -0.0571  0.7374
   9623SM   H3G13007   4.272   8.187   7.127  0.9682  0.0997 -0.2319
   9623SM   C4F13008   4.207   8.294   7.311 -0.2176 -0.3150  0.0317
   9623SM   H4F13009   4.111   8.238   7.310 -1.2017  1.3137  0.4219
   9623SM   H4G13010   4.195   8.399   7.345  1.9578  0.5941 -1.7635
   9623SM   C5F13011   4.303   8.238   7.426  0.3765  0.1751  0.1985
   9623SM   H5F13012   4.399   8.288   7.398  0.0323  0.3224 -0.7862
   9623SM   H5G13013   4.310   8.128   7.412 -0.5984  0.0084  0.9869
   9623SM   C6F13014   4.260   8.264   7.573 -0.3906  0.4224  0.7009
   9623SM   H6F13015   4.158   8.223   7.591 -0.9327  0.1788 -2.3319
   9623SM   H6G13016   4.256   8.375   7.573  0.7879  0.5827 -2.7758
   9623SM   C7F13017   4.354   8.203   7.683 -0.0738 -0.1295 -0.1569
   9623SM   H7F13018   4.454   8.232   7.647  0.0427  0.9330  0.9672
   9623SM   H7G13019   4.340   8.093   7.684  2.6193 -0.5249  1.0455
   9623SM   C8F13020   4.339   8.270   7.816  0.4994  0.0433  0.5292
   9623SM   H8F13021   4.384   8.210   7.897  1.7863 -0.1628 -0.3205
   9623SM   H8G13022   4.232   8.268   7.847 -0.0634 -2.8704 -1.2591
   9623SM   C9F13023   4.397   8.413   7.822 -0.1996  0.8750  0.5212
   9623SM   H9F13024   4.342   8.474   7.746  1.1948  1.5769  0.0546
   9623SM   H9G13025   4.503   8.408   7.791 -1.2963 -1.3787 -3.6572
   9623SM  C10F13026   4.380   8.476   7.956 -0.0540 -1.6728 -0.3236
   9623SM  H10F13027   4.460   8.552   7.968  0.4514 -2.0011 -1.4686
   9623SM  H10G13028   4.410   8.407   8.038  0.7020  0.2825  1.1195
   9623SM  C11F13029   4.241   8.539   7.977 -0.2046 -0.4737 -0.0907
   9623SM  H11F13030   4.168   8.460   7.950 -0.8095 -0.0016  0.1569
   9623SM  H11G13031   4.235   8.625   7.907  2.8614 -0.0207  0.0653
   9623SM  C12F13032   4.228   8.593   8.114  0.0828 -0.1225 -0.2381
   9623SM  H12F13033   4.137   8.656   8.123  0.2301  0.0044  0.4355
   9623SM  H12G13034   4.315   8.658   8.135 -1.4421  1.6477  0.9672
   9623SM  C13F13035   4.218   8.492   8.223  0.0994  0.4930  0.1555
   9623SM  H13F13036   4.198   8.389   8.185 -1.4530  0.6829  0.3866
   9623SM  H13G13037   4.117   8.504   8.268 -0.1115 -1.5021  0.3167
   9623SM  C14F13038   4.331   8.491   8.325 -0.3199  0.5706  0.4419
   9623SM  H14F13039   4.300   8.561   8.407  0.5029  0.4950  0.8307
   9623SM  H14G13040   4.415   8.541   8.272  1.0292 -0.7138  1.3144
   9623SM  C15F13041   4.379   8.347   8.365  0.0274 -0.0536  0.1121
   9623SM  H15F13042   4.413   8.291   8.276 -0.8321  1.5817 -1.3014
   9623SM  H15G13043   4.299   8.277   8.396  0.1641 -0.1890  0.1579
   9623SM  C16F13044   4.494   8.342   8.465  0.0081  0.8772 -0.4985
   9623SM  H16F13045   4.531   8.238   8.477  1.1548  1.3746  0.4999
   9623SM  H16G13046   4.461   8.362   8.569 -0.3285 -0.7502 -0.2633
   9623SM  C17F13047   4.615   8.428   8.438 -0.1237  0.0820 -0.4461
   9623SM  H17F13048   4.576   8.531   8.453  0.9616  0.2593  1.5321
   9623SM  H17G13049   4.669   8.417   8.341  1.6162  0.3802  0.4636
   9623SM  C18F13050   4.735   8.398   8.527 -0.0427  0.1002  0.2186
   9623SM  H18F13051   4.781   8.300   8.500 -0.7568 -0.2176  0.1190
   9623SM  H18G13052   4.694   8.362   8.624 -2.5068 -2.3372 -1.5468
   9623SM  C19F13053   4.837   8.514   8.542  0.3241  0.2415  0.2269
   9623SM  H19F13054   4.775   8.600   8.575 -1.1617 -1.0764  1.0503
   9623SM  H19G13055   4.873   8.533   8.439 -1.0584 -0.6513 -0.4607
   9623SM  C20F13056   4.953   8.471   8.632  0.0083  0.1011 -0.5444
   9623SM  H20F13057   4.983   8.366   8.608 -3.2433 -1.7126  2.3754
   9623SM  H20G13058   4.917   8.472   8.737  0.2429  0.3008 -0.4671
   9623SM  C21F13059   5.081   8.557   8.613 -0.2681 -0.1241  0.4593
   9623SM  H21F13060   5.097   8.578   8.506 -1.5177 -0.2992  0.2135
   9623SM  H21G13061   5.170   8.516   8.664  0.9185  0.4236 -1.1214
   9623SM  C22F13062   5.069   8.692   8.686 -0.2158  0.4846 -0.0591
   9623SM  H22F13063   5.051   8.674   8.794  0.4305  1.2228  0.1844
   9623SM  H22G13064   4.984   8.742   8.636  0.2664 -0.5856 -2.0685
   9623SM  C23F13065   5.184   8.788   8.671 -0.3231 -0.2046  0.1554
   9623SM  H23F13066   5.198   8.814   8.564 -2.0849  1.1798  0.2064
   9623SM  H23G13067   5.281   8.744   8.701 -0.0726  0.2429  0.0051
   9623SM  H23H13068   5.175   8.883   8.727  0.1729 -0.2443  0.3112
   9723SM     N13069   5.248   1.436   6.289 -0.1685 -0.5327  0.2729
   9723SM   C1513070   5.189   1.521   6.185 -0.0014 -0.7755  0.3511
   9723SM  H15A13071   5.171   1.619   6.227 -0.2164 -0.5600 -0.2260
   9723SM  H15B13072   5.094   1.497   6.138 -2.5959  3.1564  2.9877
   9723SM  H15C13073   5.260   1.532   6.104 -1.0227  0.1797 -0.4628
   9723SM   C1413074   5.367   1.510   6.329  0.0018 -0.1106 -0.2067
   9723SM  H14A13075   5.420   1.474   6.416 -1.3967 -1.8405 -0.0343
   9723SM  H14B13076   5.349   1.613   6.355 -0.9605 -0.2139 -0.4521
   9723SM  H14C13077   5.438   1.508   6.247 -0.1563  1.8319 -0.4299
   9723SM   C1313078   5.152   1.427   6.402 -0.4884  0.3361 -0.1305
   9723SM  H13A13079   5.189   1.371   6.488  1.5095 -0.3371 -1.3496
   9723SM  H13B13080   5.058   1.391   6.365 -0.9701  3.0549 -1.8170
   9723SM  H13C13081   5.125   1.526   6.433  1.1939  0.7726  0.0478
   9723SM   C1213082   5.285   1.295   6.251  0.6136  1.0780 -0.5339
   9723SM  H12A13083   5.361   1.302   6.175  2.1452 -1.1407  0.6823
   9723SM  H12B13084   5.201   1.238   6.211  0.7656 -0.0196  0.6281
   9723SM   C1113085   5.332   1.214   6.369  0.0682 -0.3474 -0.0967
   9723SM  H11A13086   5.247   1.190   6.437  1.5550  1.6907  2.7112
   9723SM  H11B13087   5.404   1.276   6.426 -1.1893  1.0570  0.0356
   9723SM     P13088   5.428   0.987   6.429 -0.0941  0.4861 -0.4159
   9723SM   O1313089   5.346   0.867   6.400  0.1645  0.3321 -0.1937
   9723SM   O1413090   5.571   0.970   6.419  0.1131  0.7198  0.2618
   9723SM   O1113091   5.392   1.053   6.563  0.2899 -0.4320 -0.5176
   9723SM   O1213092   5.400   1.101   6.326  0.1739 -0.0010  0.4542
   9723SM   C1S13093   5.338   0.973   6.672 -0.2229  0.1540 -0.2024
   9723SM   H1S13094   5.409   0.888   6.688 -1.2484 -1.0282 -1.6289
   9723SM   H1T13095   5.235   0.939   6.647 -0.9052  1.9921 -0.0347
   9723SM    NF13096   5.291   0.959   6.907 -0.3860  0.3058 -0.0793
   9723SM   HNF13097   5.199   0.972   6.945 -0.0458 -1.1404  1.3611
   9723SM   C2S13098   5.336   1.051   6.797  0.0434  0.0328 -0.7050
   9723SM   H2S13099   5.435   1.089   6.829  0.2370 -2.1675  1.6250
   9723SM   C3S13100   5.247   1.176   6.785 -0.3716  0.4884 -0.1032
   9723SM   H3S13101   5.145   1.137   6.763 -0.0681 -0.7345  0.5881
   9723SM    O313102   5.284   1.258   6.675  0.1199 -0.3434  0.4250
   9723SM   HO313103   5.360   1.211   6.638 -0.2440  0.3175 -1.2833
   9723SM   C4S13104   5.249   1.263   6.912  0.0227 -0.0814  0.2089
   9723SM   H4S13105   5.348   1.298   6.944 -0.1014 -0.3503  0.9086
   9723SM   C5S13106   5.151   1.313   6.983 -0.0832 -0.1733 -1.0207
   9723SM   H5S13107   5.046   1.299   6.952  0.0225 -3.6095 -0.1991
   9723SM   C6S13108   5.170   1.409   7.103 -0.4194 -0.0533  0.8190
   9723SM   H6S13109   5.173   1.511   7.058 -1.3446 -0.7476 -0.9379
   9723SM   H6T13110   5.268   1.394   7.152 -0.0902 -1.3048 -0.1715
   9723SM   C7S13111   5.058   1.416   7.205  0.6024  0.0857 -0.3205
   9723SM   H7S13112   5.024   1.319   7.248 -0.9712  1.3836  1.5243
   9723SM   H7T13113   4.962   1.448   7.158  0.1783 -0.3975  0.1990
   9723SM   C8S13114   5.109   1.513   7.315  0.5791  0.3347  0.3286
   9723SM   H8S13115   5.148   1.600   7.259 -0.9356  0.7283 -0.1746
   9723SM   H8T13116   5.196   1.473   7.370  1.1676  2.3186  0.9081
   9723SM   C9S13117   4.999   1.556   7.414 -0.2378  0.4117  0.3606
   9723SM   H9S13118   4.907   1.594   7.365 -0.3625 -0.3121  0.0224
   9723SM   H9T13119   5.052   1.640   7.464  1.9491 -0.7964  0.1821
   9723SM  C10S13120   4.957   1.448   7.511  0.1548  0.9152  0.2121
   9723SM  H10S13121   5.041   1.416   7.577 -1.3988  0.7657  2.2170
   9723SM  H10T13122   4.917   1.359   7.458  0.0821  0.4775  0.9968
   9723SM  C11S13123   4.841   1.491   7.608  0.3264  0.1892  0.1161
   9723SM  H11S13124   4.825   1.406   7.678 -1.1848  2.2403  2.4123
   9723SM  H11T13125   4.747   1.508   7.551 -0.7255 -2.2290  0.9898
   9723SM  C12S13126   4.894   1.615   7.687 -0.0305  0.6245  0.5890
   9723SM  H12S13127   4.934   1.695   7.621 -1.9301  0.2943 -1.0719
   9723SM  H12T13128   4.976   1.565   7.743 -1.5594  1.9358  4.3284
   9723SM  C13S13129   4.795   1.674   7.789 -0.5230 -0.2282  0.0746
   9723SM  H13S13130   4.706   1.705   7.730  1.1280  1.4612 -1.6890
   9723SM  H13T13131   4.839   1.765   7.835 -0.6715  1.1689 -2.3435
   9723SM  C14S13132   4.768   1.567   7.898  0.4428 -0.1154 -0.1465
   9723SM  H14S13133   4.866   1.551   7.946  0.2250  0.7939  0.6419
   9723SM  H14T13134   4.723   1.482   7.843  1.0736 -0.6219  0.1199
   9723SM  C15S13135   4.665   1.616   7.998  0.3832 -0.3039  0.0241
   9723SM  H15S13136   4.578   1.638   7.932  0.1534 -0.1577  0.3713
   9723SM  H15T13137   4.697   1.710   8.048  0.5724  0.1845 -0.9838
   9723SM  C16S13138   4.640   1.505   8.097 -0.3009  0.6835  0.0796
   9723SM  H16S13139   4.741   1.470   8.129 -0.9835 -1.6495 -0.1067
   9723SM  H16T13140   4.598   1.416   8.046 -2.0236  1.1881  0.5375
   9723SM  C17S13141   4.564   1.548   8.220  0.2891 -1.1654 -0.5606
   9723SM  H17S13142   4.615   1.620   8.288 -2.2014  1.2136 -1.0470
   9723SM  H17T13143   4.548   1.465   8.292 -0.7691 -0.5240 -0.0294
   9723SM  C18S13144   4.422   1.590   8.180  0.8157 -0.0890  0.5027
   9723SM  H18S13145   4.369   1.510   8.123  1.0934 -0.2794  0.5065
   9723SM  H18T13146   4.430   1.684   8.121 -2.1134 -0.7319 -1.1084
   9723SM  H18U13147   4.352   1.614   8.262  1.9367  0.0249  1.4478
   9723SM   C1F13148   5.361   0.846   6.936  0.4834 -0.0763  0.1432
   9723SM    OF13149   5.478   0.834   6.901  0.6979  0.2880 -0.3072
   9723SM   C2F13150   5.286   0.734   7.002 -0.1065 -0.3418 -0.0419
   9723SM   H2F13151   5.242   0.675   6.919 -1.3538  0.7430 -0.1829
   9723SM   H2G13152   5.206   0.770   7.069 -0.0911  0.3469 -0.3870
   9723SM   C3F13153   5.382   0.652   7.088 -0.2113  0.5219 -0.4521
   9723SM   H3F13154   5.455   0.708   7.151 -0.4852 -0.9187  1.2040
   9723SM   H3G13155   5.436   0.588   7.016 -0.0621  1.4436 -1.1795
   9723SM   C4F13156   5.299   0.567   7.185  0.2408  0.0053 -0.0442
   9723SM   H4F13157   5.371   0.486   7.212  0.3576 -0.1424 -0.7972
   9723SM   H4G13158   5.207   0.522   7.141 -0.4241  1.1702  0.1057
   9723SM   C5F13159   5.273   0.622   7.329  0.0471  0.1055  0.3208
   9723SM   H5F13160   5.203   0.709   7.329  1.7361  1.5230  1.1294
   9723SM   H5G13161   5.362   0.667   7.378 -0.6080  2.3092 -0.3648
   9723SM   C6F13162   5.219   0.511   7.418  0.0495  0.3547  0.3345
   9723SM   H6F13163   5.246   0.410   7.380 -2.3994  0.2701 -1.4558
   9723SM   H6G13164   5.108   0.511   7.432 -0.0844 -0.2968 -0.6652
   9723SM   C7F13165   5.277   0.524   7.559 -0.0673  0.5918  1.2971
   9723SM   H7F13166   5.235   0.617   7.603 -1.9556  0.6344 -0.4919
   9723SM   H7G13167   5.385   0.546   7.546 -0.3059  0.6714 -0.7911
   9723SM   C8F13168   5.266   0.397   7.645 -0.4754  0.2735  0.7341
   9723SM   H8F13169   5.313   0.312   7.591 -0.9232 -0.1357  0.9851
   9723SM   H8G13170   5.159   0.368   7.654 -0.0764 -2.8018 -2.4028
   9723SM   C9F13171   5.335   0.427   7.780 -0.2814 -0.3043  0.8196
   9723SM   H9F13172   5.269   0.500   7.832 -1.4783 -0.6890 -0.0932
   9723SM   H9G13173   5.432   0.475   7.758 -0.9717  0.1774 -1.4381
   9723SM  C10F13174   5.368   0.303   7.860 -0.6962 -0.3228  0.7273
   9723SM  H10F13175   5.467   0.264   7.828 -1.2472  0.5766 -2.4779
   9723SM  H10G13176   5.293   0.226   7.831 -1.6040  0.9488 -0.4186
   9723SM  C11F13177   5.355   0.324   8.014 -0.4289  0.5940 -0.4574
   9723SM  H11F13178   5.431   0.401   8.037  1.1579 -1.1587  0.4863
   9723SM  H11G13179   5.374   0.228   8.068  2.2563 -0.0434 -2.2933
   9723SM  C12F13180   5.219   0.371   8.067  0.5555  0.0823  0.1632
   9723SM  H12F13181   5.160   0.277   8.055 -0.3606  0.4503  1.6232
   9723SM  H12G13182   5.180   0.462   8.017 -1.0759 -1.5104 -1.6800
   9723SM  C13F13183   5.236   0.399   8.220  0.4093  0.6464 -0.2716
   9723SM  H13F13184   5.290   0.493   8.245 -1.6072  1.8061 -0.0417
   9723SM  H13G13185   5.290   0.315   8.268 -2.7622 -0.2892  1.9988
   9723SM  C14F13186   5.107   0.393   8.306 -0.0562  0.0479  0.4618
   9723SM  H14F13187   5.062   0.292   8.307 -1.7905  0.7778  1.6078
   9723SM  H14G13188   5.043   0.465   8.250  0.0320  0.3302  0.7191
   9723SM  C15F13189   5.120   0.431   8.455 -0.5677 -0.3235 -0.0303
   9723SM  H15F13190   5.166   0.532   8.456  1.0208 -0.9709 -1.6357
   9723SM  H15G13191   5.201   0.363   8.487  0.1351  1.2197  1.6220
   9723SM  C16F13192   4.998   0.416   8.549  0.1473 -0.2144  0.3130
   9723SM  H16F13193   4.961   0.311   8.556 -0.5392 -0.5215 -4.6969
   9723SM  H16G13194   4.908   0.467   8.510  2.0309  2.4056 -0.8624
   9723SM  C17F13195   5.015   0.469   8.688 -0.1425 -0.8040  0.0275
   9723SM  H17F13196   5.070   0.565   8.680 -2.0121  0.6239  2.8383
   9723SM  H17G13197   5.068   0.400   8.757 -0.5788 -0.6576  0.5128
   9723SM  C18F13198   4.881   0.504   8.759 -0.1219  0.6928  0.2418
   9723SM  H18F13199   4.809   0.421   8.743  0.3845 -0.1481  1.9963
   9723SM  H18G13200   4.844   0.590   8.699  0.2548 -0.6204 -1.9854
   9723SM  C19F13201   4.883   0.542   8.903  0.5864  0.8947 -0.4133
   9723SM  H19F13202   4.970   0.611   8.898  1.8483 -0.6454 -0.3397
   9723SM  H19G13203   4.928   0.458   8.961 -1.5739 -1.5542 -2.0654
   9723SM  C20F13204   4.758   0.598   8.965  0.2647  0.5654 -0.0402
   9723SM  H20F13205   4.676   0.605   8.891 -0.2114 -2.2064  0.1181
   9723SM  H20G13206   4.770   0.702   9.003  0.9922 -0.0111  1.3852
   9723SM  C21F13207   4.700   0.511   9.078 -0.1850 -0.1821 -0.4939
   9723SM  H21F13208   4.755   0.526   9.173 -1.4732  0.4897  0.1625
   9723SM  H21G13209   4.710   0.403   9.058 -0.5590 -0.3494  0.2160
   9723SM  C22F13210   4.552   0.542   9.099 -0.2598 -0.1837 -0.1253
   9723SM  H22F13211   4.518   0.470   9.176  0.6403 -0.9718 -0.4590
   9723SM  H22G13212   4.503   0.526   9.000 -3.6092  1.6363  1.0591
   9723SM  C23F13213   4.512   0.687   9.136  0.0823  0.6977 -0.4470
   9723SM  H23F13214   4.565   0.764   9.077 -0.7043  0.2700 -1.7438
   9723SM  H23G13215   4.543   0.693   9.243  2.1908 -1.4046 -0.8371
   9723SM  H23H13216   4.402   0.690   9.143  0.1421  0.8365  0.8259
   9823SM     N13217   8.805   7.702   6.991 -0.5342  1.2115 -0.2642
   9823SM   C1513218   8.704   7.662   6.894  0.3239  0.3114  0.3098
   9823SM  H15A13219   8.679   7.744   6.828  1.7591  1.5823  1.2783
   9823SM  H15B13220   8.620   7.610   6.938  0.7797  0.4530  1.3887
   9823SM  H15C13221   8.745   7.586   6.829 -1.6373 -0.6134  0.0752
   9823SM   C1413222   8.837   7.570   7.059 -0.5244  0.0177  0.9491
   9823SM  H14A13223   8.887   7.498   6.995 -0.3959  1.0605 -0.1539
   9823SM  H14B13224   8.744   7.524   7.088  0.0129 -2.2056 -0.5964
   9823SM  H14C13225   8.906   7.587   7.141  0.7348 -2.8198  0.6154
   9823SM   C1313226   8.917   7.752   6.909  0.7704  0.3637  0.3280
   9823SM  H13A13227   8.963   7.677   6.846  0.0136 -0.2220  0.4527
   9823SM  H13B13228   8.993   7.782   6.980 -0.4081 -1.2364  2.3965
   9823SM  H13C13229   8.886   7.833   6.844 -1.8448 -1.6505 -1.1851
   9823SM   C1213230   8.758   7.803   7.091  0.0677 -0.6909  0.5104
   9823SM  H12A13231   8.840   7.813   7.161 -1.2088 -0.2654  1.9950
   9823SM  H12B13232   8.673   7.758   7.140  0.9723 -1.2146  1.6448
   9823SM   C1113233   8.707   7.937   7.032  0.4162 -0.1747  0.7236
   9823SM  H11A13234   8.800   7.971   6.982 -0.0708  1.1096  0.6722
   9823SM  H11B13235   8.686   8.008   7.114 -1.8420  0.2040 -0.1240
   9823SM     P13236   8.448   7.993   6.971  0.2157 -0.0520  0.4218
   9823SM   O1313237   8.463   8.138   6.991  0.0449 -0.5259  0.9640
   9823SM   O1413238   8.354   7.947   6.861 -0.4885  0.0801  0.1118
   9823SM   O1113239   8.400   7.930   7.112 -0.1034  0.5648  0.1958
   9823SM   O1213240   8.594   7.933   6.942  0.7176 -0.4249 -0.2304
   9823SM   C1S13241   8.302   7.828   7.112  0.0345 -0.1007  0.1804
   9823SM   H1S13242   8.339   7.741   7.054  1.9936  1.8529 -1.6600
   9823SM   H1T13243   8.210   7.868   7.065  0.0526  0.3514  0.5183
   9823SM    NF13244   8.190   7.648   7.267  0.0139  0.0137 -0.3505
   9823SM   HNF13245   8.093   7.631   7.281  0.5678 -0.8011  3.9325
   9823SM   C2S13246   8.257   7.784   7.256 -0.1563  0.6071  0.1868
   9823SM   H2S13247   8.349   7.774   7.318  0.0835 -0.4622 -0.3230
   9823SM   C3S13248   8.182   7.912   7.317  0.2016 -0.3280 -0.0468
   9823SM   H3S13249   8.091   7.942   7.261 -0.4335  1.0487  1.6272
   9823SM    O313250   8.265   8.023   7.322 -0.3439 -0.6083 -0.4007
   9823SM   HO313251   8.330   8.006   7.254 -0.6115 -0.3634 -0.7211
   9823SM   C4S13252   8.152   7.894   7.465 -0.2322  0.8898 -0.1471
   9823SM   H4S13253   8.241   7.877   7.527  0.3449 -0.1006 -1.2080
   9823SM   C5S13254   8.035   7.893   7.531  0.2113  0.0242 -0.2308
   9823SM   H5S13255   7.946   7.906   7.468  0.3392  0.9714 -0.2330
   9823SM   C6S13256   8.016   7.885   7.677  0.0551 -1.0891  0.5733
   9823SM   H6S13257   8.108   7.864   7.736 -0.9296  0.2961  2.7748
   9823SM   H6T13258   7.958   7.793   7.697 -1.3673 -0.3341  0.0380
   9823SM   C7S13259   7.937   7.998   7.742  0.3117 -0.2016  0.3643
   9823SM   H7S13260   7.845   8.014   7.681 -2.3047  1.7605  4.3669
   9823SM   H7T13261   7.996   8.090   7.722 -1.2277  0.9748  1.0736
   9823SM   C8S13262   7.905   7.982   7.889 -0.5116  0.1141  0.2688
   9823SM   H8S13263   7.940   8.075   7.939 -0.8735  0.8735 -0.8406
   9823SM   H8T13264   7.974   7.903   7.926 -1.6422 -1.1771 -0.3095
   9823SM   C9S13265   7.756   7.974   7.935 -0.3803  0.1244  0.1747
   9823SM   H9S13266   7.694   7.903   7.875 -0.5812 -0.5818  1.1851
   9823SM   H9T13267   7.703   8.071   7.940 -0.9588 -0.1238 -0.7914
   9823SM  C10S13268   7.751   7.925   8.076  0.6442  0.1420  0.2097
   9823SM  H10S13269   7.798   7.999   8.144  0.7867 -0.4489  0.7664
   9823SM  H10T13270   7.811   7.836   8.106 -0.5813 -0.6891  0.2539
   9823SM  C11S13271   7.609   7.887   8.127 -0.5041 -0.2840  0.2898
   9823SM  H11S13272   7.578   7.790   8.083  4.1937 -1.3678 -1.1960
   9823SM  H11T13273   7.534   7.957   8.085 -3.0172 -2.4216  0.9823
   9823SM  C12S13274   7.580   7.880   8.278  0.3325 -0.7859 -0.7740
   9823SM  H12S13275   7.595   7.976   8.331 -1.2808 -0.6878 -0.4518
   9823SM  H12T13276   7.651   7.806   8.320  1.2520  0.0566 -0.8080
   9823SM  C13S13277   7.432   7.833   8.301  0.4722  0.4478 -0.0095
   9823SM  H13S13278   7.421   7.729   8.265 -1.9034 -0.0935  1.9976
   9823SM  H13T13279   7.376   7.900   8.232 -0.7106 -0.8140 -0.3379
   9823SM  C14S13280   7.379   7.855   8.442  0.3049 -0.3174 -0.4033
   9823SM  H14S13281   7.276   7.897   8.452  1.1537  1.6116  0.8316
   9823SM  H14T13282   7.442   7.932   8.491 -1.6755  1.7285 -0.8797
   9823SM  C15S13283   7.391   7.729   8.534 -0.2503  0.0682 -0.6289
   9823SM  H15S13284   7.477   7.665   8.505 -0.8649 -0.3174 -1.6713
   9823SM  H15T13285   7.297   7.676   8.506 -0.2893  0.3476 -1.0311
   9823SM  C16S13286   7.389   7.759   8.684  0.7265 -0.1757  0.5482
   9823SM  H16S13287   7.300   7.825   8.699  0.6637  0.0918 -0.9155
   9823SM  H16T13288   7.482   7.812   8.713  0.3975 -0.1366  1.5922
   9823SM  C17S13289   7.395   7.632   8.774 -0.9411 -0.4862  0.3279
   9823SM  H17S13290   7.481   7.565   8.754 -0.7228 -0.0949 -0.0429
   9823SM  H17T13291   7.298   7.584   8.750 -2.0696  1.5242  0.5806
   9823SM  C18S13292   7.388   7.653   8.926  0.0065 -0.2659  0.2011
   9823SM  H18S13293   7.391   7.561   8.989  0.0806  0.8787  1.9519
   9823SM  H18T13294   7.301   7.717   8.950 -0.7496 -1.8786  2.0915
   9823SM  H18U13295   7.474   7.713   8.962  0.8243 -1.4530  0.2784
   9823SM   C1F13296   8.271   7.539   7.244 -0.1457 -0.7830  0.6774
   9823SM    OF13297   8.392   7.553   7.219  0.6234  0.1130 -0.7846
   9823SM   C2F13298   8.215   7.405   7.249 -0.2283 -0.7239  0.4016
   9823SM   H2F13299   8.269   7.341   7.176  0.2348  0.8280 -0.6582
   9823SM   H2G13300   8.108   7.399   7.220  0.4056 -0.5245 -2.1932
   9823SM   C3F13301   8.227   7.340   7.391  0.0440  0.2536  0.0866
   9823SM   H3F13302   8.190   7.414   7.466  1.4638  0.0086  1.0689
   9823SM   H3G13303   8.335   7.328   7.411  0.5013 -1.6909 -2.8457
   9823SM   C4F13304   8.154   7.205   7.390  0.2378  0.0941  0.0244
   9823SM   H4F13305   8.186   7.135   7.309  0.0764  0.9911 -0.8308
   9823SM   H4G13306   8.044   7.219   7.380 -0.0880 -0.8548  1.8595
   9823SM   C5F13307   8.186   7.121   7.512 -0.4984 -0.1650 -0.3867
   9823SM   H5F13308   8.291   7.117   7.549 -0.7824 -1.4322  0.3209
   9823SM   H5G13309   8.172   7.016   7.481  1.6267 -0.9634  1.1093
   9823SM   C6F13310   8.100   7.152   7.635 -0.8412  0.2343  0.3903
   9823SM   H6F13311   7.994   7.123   7.617 -1.1440  2.2077 -1.3433
   9823SM   H6G13312   8.105   7.262   7.650 -2.0177  0.5784 -1.3412
   9823SM   C7F13313   8.148   7.081   7.760 -0.8510  0.1728  0.8245
   9823SM   H7F13314   8.249   7.126   7.772 -0.8398  0.6993 -1.0626
   9823SM   H7G13315   8.163   6.971   7.755  0.1731  0.3375 -0.1478
   9823SM   C8F13316   8.050   7.121   7.873 -0.3123 -0.0028  0.7889
   9823SM   H8F13317   7.946   7.098   7.841 -0.2020  2.1907 -1.3749
   9823SM   H8G13318   8.059   7.226   7.908 -1.3377  0.5964 -0.6426
   9823SM   C9F13319   8.077   7.030   7.993 -0.0975 -0.9297 -0.7606
   9823SM   H9F13320   8.185   7.002   7.997  0.1980  0.2428  1.6555
   9823SM   H9G13321   8.026   6.939   7.957 -0.4844 -1.4431  0.9997
   9823SM  C10F13322   8.007   7.073   8.125  0.5260  0.0068 -0.6515
   9823SM  H10F13323   7.901   7.104   8.115 -0.0735 -1.4501  0.7020
   9823SM  H10G13324   8.062   7.148   8.186  1.1384 -0.9585  0.0227
   9823SM  C11F13325   7.993   6.952   8.220  0.2199  0.1156 -0.5266
   9823SM  H11F13326   8.085   6.907   8.261  0.3466 -0.1062 -1.0429
   9823SM  H11G13327   7.941   6.879   8.154 -2.2185  1.1258  0.1705
   9823SM  C12F13328   7.896   6.978   8.336 -0.5532 -0.0873 -0.5482
   9823SM  H12F13329   7.798   7.026   8.312 -0.5111  2.1999  3.1297
   9823SM  H12G13330   7.940   7.053   8.406 -0.2231  0.0781 -0.9265
   9823SM  C13F13331   7.874   6.852   8.421 -0.0063 -0.0776 -0.3661
   9823SM  H13F13332   7.896   6.766   8.355  0.0422  1.1371 -1.9846
   9823SM  H13G13333   7.769   6.843   8.457 -0.5619  0.0162 -1.9135
   9823SM  C14F13334   7.962   6.840   8.546 -0.8084 -0.1186  0.0915
   9823SM  H14F13335   7.927   6.918   8.616 -2.0518 -0.9391  0.4031
   9823SM  H14G13336   8.071   6.857   8.527 -0.5691 -2.0467 -0.4141
   9823SM  C15F13337   7.970   6.699   8.599 -0.2426  0.3233  0.1836
   9823SM  H15F13338   8.023   6.627   8.534  3.3688  0.1071  3.0758
   9823SM  H15G13339   7.865   6.666   8.612 -0.2756  0.2190 -0.3406
   9823SM  C16F13340   8.037   6.694   8.742  0.2765 -0.3789  0.1355
   9823SM  H16F13341   7.994   6.772   8.808 -0.3041 -0.1794 -0.4765
   9823SM  H16G13342   8.146   6.715   8.728 -0.0978  1.9678  0.3720
   9823SM  C17F13343   8.015   6.558   8.808  0.1707 -0.2003 -0.7095
   9823SM  H17F13344   8.057   6.493   8.728  0.4153  1.3002 -1.8540
   9823SM  H17G13345   7.905   6.553   8.818  0.1761 -2.2547 -1.2400
   9823SM  C18F13346   8.082   6.559   8.942  0.0106 -0.1569 -0.8117
   9823SM  H18F13347   8.062   6.657   8.991  1.6726 -0.6327  0.9701
   9823SM  H18G13348   8.193   6.560   8.943  0.0558  1.9055  1.3214
   9823SM  C19F13349   8.050   6.435   9.029 -0.1081  0.0525 -0.0943
   9823SM  H19F13350   8.087   6.351   8.967  0.4884  0.9583 -0.9992
   9823SM  H19G13351   7.939   6.426   9.037 -0.3495  1.9936 -0.6128
   9823SM  C20F13352   8.113   6.426   9.164 -0.2545 -0.3596 -0.5831
   9823SM  H20F13353   8.061   6.495   9.235 -2.0255 -2.0706 -0.1432
   9823SM  H20G13354   8.218   6.460   9.152  0.1768 -1.4674 -0.0436
   9823SM  C21F13355   8.094   6.282   9.229 -0.7406 -0.7802  0.5921
   9823SM  H21F13356   8.161   6.211   9.176  0.8933 -0.8294  2.5872
   9823SM  H21G13357   7.991   6.242   9.215 -0.8442 -1.1634  2.2458
   9823SM  C22F13358   8.137   6.284   9.374  0.3675  0.1106 -0.8707
   9823SM  H22F13359   8.082   6.358   9.436  1.6592  0.4746 -0.0990
   9823SM  H22G13360   8.237   6.333   9.373  0.2308  0.4551  0.4212
   9823SM  C23F13361   8.144   6.154   9.439 -0.7948  0.8842 -0.4750
   9823SM  H23F13362   8.189   6.079   9.370  0.7908  1.0424  0.3245
   9823SM  H23G13363   8.038   6.125   9.452 -0.8673  1.3372 -0.0298
   9823SM  H23H13364   8.190   6.155   9.540  1.7631  2.1657 -1.5578
   9923SM     N13365   9.020   6.749   6.545  0.0776 -0.3626 -0.1356
   9923SM   C1513366   9.046   6.745   6.401  0.3678  0.1088 -0.2849
   9923SM  H15A13367   9.015   6.651   6.358  1.1267 -0.4046  0.2553
   9923SM  H15B13368   9.146   6.764   6.367  1.1073  0.3026  1.8607
   9923SM  H15C13369   8.983   6.813   6.346 -0.4289 -0.0343  0.4300
   9923SM   C1413370   9.029   6.891   6.591 -0.2535 -0.3823 -0.5823
   9923SM  H14A13371   9.134   6.917   6.588 -0.5931  1.1298 -0.6201
   9923SM  H14B13372   8.998   6.900   6.694  3.3762  1.2704  0.5243
   9923SM  H14C13373   8.981   6.973   6.538  2.3118  2.8953  1.7072
   9923SM   C1313374   8.880   6.698   6.576 -0.4090  0.0655 -0.5344
   9923SM  H13A13375   8.871   6.591   6.566  1.7301 -0.1040 -0.9158
   9923SM  H13B13376   8.808   6.747   6.511 -0.1655 -0.0838 -0.9191
   9923SM  H13C13377   8.854   6.716   6.679  0.6671 -2.0432  0.1550
   9923SM   C1213378   9.121   6.658   6.618  0.6169  0.3027  0.0185
   9923SM  H12A13379   9.111   6.561   6.573  2.0537 -0.3462  1.0318
   9923SM  H12B13380   9.095   6.661   6.723 -0.1308 -1.5868 -0.0758
   9923SM   C1113381   9.279   6.693   6.613  0.6979  0.5622  0.3191
   9923SM  H11A13382   9.328   6.603   6.656  2.8272  0.0554 -2.8496
   9923SM  H11B13383   9.289   6.781   6.680  1.1731 -1.3617  2.9564
   9923SM     P13384   9.413   6.847   6.440  0.1508  0.6264  0.1576
   9923SM   O1313385   9.487   6.826   6.316 -0.2003  0.3169 -0.0405
   9923SM   O1413386   9.334   6.969   6.459  1.0796 -0.2551 -0.0315
   9923SM   O1113387   9.520   6.838   6.559  0.6544 -0.4322 -0.3313
   9923SM   O1213388   9.325   6.718   6.481 -0.1357  0.1127 -0.3595
   9923SM   C1S13389   9.614   6.943   6.582  0.0375 -0.0814 -0.6600
   9923SM   H1S13390   9.574   7.040   6.546 -3.0270 -0.6244  0.9872
   9923SM   H1T13391   9.708   6.916   6.529  0.0609 -0.0724 -0.6233
   9923SM    NF13392   9.715   7.076   6.767  0.2772  0.2650  0.6858
   9923SM   HNF13393   9.809   7.076   6.801  0.3407  1.0458  0.5278
   9923SM   C2S13394   9.641   6.959   6.735  0.2571  0.8442  0.7345
   9923SM   H2S13395   9.545   6.965   6.791 -1.6001  1.3652 -2.3018
   9923SM   C3S13396   9.705   6.824   6.776 -0.9064  0.8399  0.2668
   9923SM   H3S13397   9.789   6.804   6.705 -1.9759 -1.9335 -0.3412
   9923SM    O313398   9.623   6.706   6.770 -0.3704 -0.5480  0.1979
   9923SM   HO313399   9.558   6.731   6.704  1.1946 -1.4391 -1.7946
   9923SM   C4S13400   9.748   6.836   6.916  0.0791  0.3146  0.7432
   9923SM   H4S13401   9.676   6.890   6.979  0.7955 -1.0241  2.8162
   9923SM   C5S13402   9.864   6.786   6.962 -0.2026  0.3527 -0.6334
   9923SM   H5S13403   9.931   6.720   6.904 -1.5597 -0.8137 -0.9151
   9923SM   C6S13404   9.905   6.818   7.102  0.3012  0.4295 -0.0839
   9923SM   H6S13405   9.967   6.739   7.149 -1.0061  0.2733  1.4779
   9923SM   H6T13406   9.823   6.833   7.176  0.2950  0.7120 -0.1476
   9923SM   C7S13407   9.975   6.960   7.105 -0.3221 -0.2650  0.4239
   9923SM   H7S13408   9.896   7.039   7.101  0.2052  0.2909  0.8514
   9923SM   H7T13409  10.049   6.976   7.024 -0.2478  1.2916  0.7726
   9923SM   C8S13410  10.047   6.970   7.243  0.8532  0.0838  0.2313
   9923SM   H8S13411  10.126   6.892   7.248  2.7387  1.8905 -0.1861
   9923SM   H8T13412   9.967   6.949   7.318  0.0363  2.2669  0.0265
   9923SM   C9S13413  10.115   7.106   7.268 -0.4480 -0.4504  0.3032
   9923SM   H9S13414  10.048   7.193   7.251  0.8352  0.4205 -0.3921
   9923SM   H9T13415  10.187   7.130   7.187 -0.1842  0.6066  0.8376
   9923SM  C10S13416  10.187   7.130   7.399  0.2293  1.1529 -0.2349
   9923SM  H10S13417  10.259   7.047   7.412 -1.3395 -0.3551 -0.7813
   9923SM  H10T13418  10.109   7.121   7.478  0.7934  1.1083  0.3227
   9923SM  C11S13419  10.273   7.249   7.419 -0.2449 -0.0440 -0.3648
   9923SM  H11S13420  10.212   7.342   7.423  0.2326  0.3142 -1.1012
   9923SM  H11T13421  10.349   7.257   7.338  0.5176 -1.0679  0.2218
   9923SM  C12S13422  10.355   7.236   7.550  0.2969  0.4797  0.4690
   9923SM  H12S13423  10.391   7.132   7.530 -1.8483 -0.1124 -0.7070
   9923SM  H12T13424  10.286   7.245   7.637  0.1347  1.9310  0.2174
   9923SM  C13S13425  10.454   7.352   7.573 -0.2623 -0.7583  0.3774
   9923SM  H13S13426  10.530   7.336   7.494 -3.3461 -0.4227 -2.9113
   9923SM  H13T13427  10.496   7.349   7.676 -0.1287 -0.0001  0.3534
   9923SM  C14S13428  10.392   7.493   7.556 -0.5430  0.0157  0.0799
   9923SM  H14S13429  10.349   7.503   7.454 -0.3099  1.9545  0.1281
   9923SM  H14T13430  10.472   7.569   7.545  0.0007 -0.5820 -0.1773
   9923SM  C15S13431  10.291   7.521   7.667  1.0393 -0.3198  0.2149
   9923SM  H15S13432  10.325   7.479   7.764  1.1779 -0.8914 -0.0769
   9923SM  H15T13433  10.192   7.477   7.641 -0.9306  2.0712  2.9962
   9923SM  C16S13434  10.253   7.673   7.672  0.2323  0.0922  0.3099
   9923SM  H16S13435  10.223   7.713   7.573  2.4389 -0.8154 -0.7817
   9923SM  H16T13436  10.329   7.744   7.710 -1.3908  2.5746 -0.7624
   9923SM  C17S13437  10.146   7.699   7.778 -0.0508  0.3485  0.0212
   9923SM  H17S13438  10.181   7.651   7.872 -0.9898  1.5928  1.0571
   9923SM  H17T13439  10.054   7.641   7.757 -0.0242  1.1365 -2.6666
   9923SM  C18S13440  10.119   7.844   7.806  0.1329 -0.5434 -0.2817
   9923SM  H18S13441  10.207   7.901   7.844 -2.1607  3.1550  0.0723
   9923SM  H18T13442  10.036   7.846   7.880 -0.8191  2.5098 -1.2697
   9923SM  H18U13443  10.069   7.893   7.720 -2.0636 -2.4471 -0.1832
   9923SM   C1F13444   9.660   7.199   6.757 -0.1378  0.0368 -0.0803
   9923SM    OF13445   9.541   7.205   6.735 -0.6529  0.2670 -0.0985
   9923SM   C2F13446   9.764   7.300   6.788 -0.4444  0.5219  0.4062
   9923SM   H2F13447   9.760   7.368   6.700  0.3716 -0.3444 -0.3198
   9923SM   H2G13448   9.863   7.250   6.787 -0.0289  1.3352  0.0508
   9923SM   C3F13449   9.741   7.391   6.915 -0.0530 -0.1254 -0.2497
   9923SM   H3F13450   9.645   7.444   6.898  0.8214  1.5066 -0.2998
   9923SM   H3G13451   9.821   7.467   6.921  0.6996 -0.9974  2.3011
   9923SM   C4F13452   9.740   7.324   7.046  0.5175  0.2277 -0.6386
   9923SM   H4F13453   9.832   7.263   7.054  0.4676  0.3596  1.7547
   9923SM   H4G13454   9.656   7.251   7.040  0.1889  0.6675 -4.9824
   9923SM   C5F13455   9.711   7.416   7.170  0.0174 -0.6971  0.1222
   9923SM   H5F13456   9.706   7.351   7.261  1.4510  0.6063  1.2012
   9923SM   H5G13457   9.613   7.466   7.157 -0.0608 -1.3385 -2.1019
   9923SM   C6F13458   9.823   7.527   7.197 -0.1796 -0.5329 -0.0753
   9923SM   H6F13459   9.821   7.596   7.110  0.0202  1.0359  1.1226
   9923SM   H6G13460   9.921   7.475   7.206 -0.6732 -1.2187  1.7327
   9923SM   C7F13461   9.808   7.605   7.328  0.6084  0.1970  0.5762
   9923SM   H7F13462   9.713   7.662   7.312  0.7306  0.0073 -0.8810
   9923SM   H7G13463   9.886   7.683   7.337  1.1108 -0.1859 -0.3589
   9923SM   C8F13464   9.814   7.517   7.452  0.7273  0.2973 -0.5837
   9923SM   H8F13465   9.914   7.468   7.452  0.7847  0.3846  0.4238
   9923SM   H8G13466   9.737   7.437   7.453 -0.9093  1.8144 -0.1725
   9923SM   C9F13467   9.785   7.591   7.592 -0.9655 -0.2461 -0.3030
   9923SM   H9F13468   9.839   7.688   7.593  0.3473 -0.9338 -1.3034
   9923SM   H9G13469   9.823   7.526   7.673 -2.2486 -1.4276 -0.6079
   9923SM  C10F13470   9.640   7.618   7.627 -0.6372  0.1231  0.8307
   9923SM  H10F13471   9.586   7.521   7.622  0.0307 -0.3534  2.3167
   9923SM  H10G13472   9.611   7.688   7.546  0.8021 -1.3527 -1.0516
   9923SM  C11F13473   9.617   7.693   7.762 -0.2012 -0.7436  0.7115
   9923SM  H11F13474   9.507   7.706   7.762 -0.0361  0.8834  1.4219
   9923SM  H11G13475   9.665   7.793   7.757  0.9837 -1.2901  0.8250
   9923SM  C12F13476   9.659   7.624   7.890  0.5557 -0.7723 -0.4182
   9923SM  H12F13477   9.767   7.645   7.911  0.5767  0.3283 -1.5042
   9923SM  H12G13478   9.659   7.513   7.886  0.2429 -0.7964  0.1991
   9923SM  C13F13479   9.581   7.674   8.013 -0.5357 -0.3911  0.1597
   9923SM  H13F13480   9.476   7.689   7.981  0.7108  2.6927 -3.1961
   9923SM  H13G13481   9.609   7.779   8.035 -0.5596 -0.5319  0.8606
   9923SM  C14F13482   9.596   7.577   8.133  0.7310  0.5220  0.4405
   9923SM  H14F13483   9.684   7.512   8.116  0.6999  0.4079  0.7079
   9923SM  H14G13484   9.518   7.498   8.128  2.3088 -1.0164 -1.3902
   9923SM  C15F13485   9.590   7.635   8.280  0.2464 -0.0614 -0.5332
   9923SM  H15F13486   9.531   7.729   8.284  1.8226  0.9362  0.2113
   9923SM  H15G13487   9.694   7.668   8.301 -0.7976  2.6729  0.7208
   9923SM  C16F13488   9.550   7.538   8.393 -0.7407  0.8723 -0.4051
   9923SM  H16F13489   9.591   7.438   8.367  0.4004  1.2829 -0.2349
   9923SM  H16G13490   9.439   7.533   8.390 -0.6941 -1.0327 -0.5344
   9923SM  C17F13491   9.604   7.584   8.528  0.7207 -1.0181  0.7169
   9923SM  H17F13492   9.561   7.685   8.550 -0.0725 -1.2173  0.1276
   9923SM  H17G13493   9.710   7.616   8.522 -0.1142  1.9017 -0.7176
   9923SM  C18F13494   9.576   7.489   8.649 -0.6042 -0.3830  0.2253
   9923SM  H18F13495   9.615   7.387   8.627 -0.0897 -0.2060  0.2919
   9923SM  H18G13496   9.467   7.497   8.669 -0.4881  3.7288 -0.0954
   9923SM  C19F13497   9.643   7.546   8.774 -0.4948  0.6962 -0.3176
   9923SM  H19F13498   9.598   7.644   8.801  0.9212  1.3684 -0.2957
   9923SM  H19G13499   9.751   7.558   8.752  0.2587 -5.7096 -2.2675
   9923SM  C20F13500   9.648   7.447   8.892 -0.5947  0.1397  0.2148
   9923SM  H20F13501   9.737   7.473   8.953  1.5810 -1.9464 -1.8567
   9923SM  H20G13502   9.666   7.342   8.861  1.6414  0.8509 -1.0773
   9923SM  C21F13503   9.527   7.464   8.984  0.5288 -0.2825 -0.1580
   9923SM  H21F13504   9.440   7.434   8.922  0.6682  0.1398 -0.5732
   9923SM  H21G13505   9.520   7.571   9.012  0.8065  0.2129 -1.8134
   9923SM  C22F13506   9.523   7.379   9.105 -0.0283  0.2506 -0.1674
   9923SM  H22F13507   9.621   7.385   9.157 -0.5757  1.0528  0.7996
   9923SM  H22G13508   9.518   7.277   9.062 -0.2143 -0.4494  1.4830
   9923SM  C23F13509   9.401   7.411   9.193 -0.3276 -0.1771  0.2323
   9923SM  H23F13510   9.313   7.383   9.132  0.8042  0.0165 -1.5654
   9923SM  H23G13511   9.391   7.517   9.223  1.4293 -0.3284  1.5384
   9923SM  H23H13512   9.411   7.347   9.283 -1.1513 -1.3069 -0.4472
  10023SM     N13513   1.546   1.532   5.925 -0.3307  0.2197 -0.1312
  10023SM   C1513514   1.624   1.488   5.814 -0.0672  0.3784  0.0884
  10023SM  H15A13515   1.584   1.396   5.776 -0.1712 -0.4949  2.1756
  10023SM  H15B13516   1.728   1.464   5.832 -0.3548 -1.7879 -0.8126
  10023SM  H15C13517   1.617   1.553   5.728 -2.3739  0.5571  0.3411
  10023SM   C1413518   1.592   1.666   5.975  0.6932  0.2409  0.5390
  10023SM  H14A13519   1.692   1.658   6.013 -0.2880 -2.2741  2.9394
  10023SM  H14B13520   1.534   1.701   6.059  0.3110  1.6596 -0.2822
  10023SM  H14C13521   1.576   1.740   5.898 -2.4287 -1.4589 -0.6235
  10023SM   C1313522   1.401   1.531   5.890  0.2464  0.0676  0.1040
  10023SM  H13A13523   1.381   1.598   5.808 -1.3924 -0.6079 -0.0692
  10023SM  H13B13524   1.340   1.582   5.964  0.1130 -0.7329  0.5554
  10023SM  H13C13525   1.364   1.431   5.880  1.6861 -0.7245  1.9468
  10023SM   C1213526   1.550   1.421   6.037  0.2973 -0.5705  0.0632
  10023SM  H12A13527   1.652   1.410   6.069 -0.1580  0.5938  2.0976
  10023SM  H12B13528   1.513   1.327   5.999  0.4771 -0.6550  0.0993
  10023SM   C1113529   1.470   1.460   6.163  0.2600 -0.6608 -0.5325
  10023SM  H11A13530   1.439   1.368   6.218  1.1534 -0.1967  0.8171
  10023SM  H11B13531   1.368   1.501   6.147  0.5948  0.5957  0.3357
  10023SM     P13532   1.654   1.504   6.339 -0.0023 -0.1693  0.6779
  10023SM   O1313533   1.737   1.412   6.252  0.2684 -0.7135 -0.9620
  10023SM   O1413534   1.723   1.626   6.384 -0.5866  0.3966 -0.6688
  10023SM   O1113535   1.570   1.434   6.457 -0.5191 -0.4438  0.1028
  10023SM   O1213536   1.539   1.557   6.248  0.0836  0.1165 -0.0419
  10023SM   C1S13537   1.489   1.520   6.539  0.0575 -0.0102  0.5436
  10023SM   H1S13538   1.403   1.557   6.479  0.7081 -0.0360 -0.4445
  10023SM   H1T13539   1.543   1.613   6.568  0.5110 -0.7968  2.3820
  10023SM    NF13540   1.329   1.535   6.727 -0.1919  1.3164 -0.0502
  10023SM   HNF13541   1.346   1.577   6.816  1.3625  1.1064 -0.2271
  10023SM   C2S13542   1.440   1.460   6.669  0.1097 -1.0848  0.0794
  10023SM   H2S13543   1.409   1.355   6.648  1.8415 -1.5789 -0.1871
  10023SM   C3S13544   1.554   1.440   6.777  0.4068  0.3637 -0.0701
  10023SM   H3S13545   1.600   1.539   6.799  2.5455 -0.9740  1.9891
  10023SM    O313546   1.670   1.368   6.739  0.0546  0.8058  0.5552
  10023SM   HO313547   1.658   1.356   6.644 -1.2000  0.1558  0.7785
  10023SM   C4S13548   1.496   1.377   6.900 -0.6919 -0.0314 -0.1269
  10023SM   H4S13549   1.496   1.443   6.988 -1.9267 -0.2377  0.0476
  10023SM   C5S13550   1.451   1.250   6.908  0.2379  0.1611 -0.1262
  10023SM   H5S13551   1.462   1.194   6.814 -0.0641 -0.6556  0.3099
  10023SM   C6S13552   1.385   1.183   7.024 -1.1569 -0.2794  0.3198
  10023SM   H6S13553   1.433   1.207   7.122 -0.8879  0.3826  0.0315
  10023SM   H6T13554   1.370   1.073   7.021 -3.6300 -0.0358  1.2207
  10023SM   C7S13555   1.241   1.229   7.044 -0.1930 -0.1548 -0.3988
  10023SM   H7S13556   1.182   1.176   6.966  0.3181 -0.8521 -0.3253
  10023SM   H7T13557   1.231   1.339   7.036 -0.6403  0.0599  2.2820
  10023SM   C8S13558   1.187   1.196   7.179  0.8351 -0.0165 -0.6276
  10023SM   H8S13559   1.083   1.235   7.171  1.2589  1.1881 -0.4380
  10023SM   H8T13560   1.247   1.243   7.260 -0.0780 -0.3957  0.2883
  10023SM   C9S13561   1.182   1.051   7.220 -0.2549  0.7382 -0.7971
  10023SM   H9S13562   1.283   1.012   7.247 -1.2114 -1.4805 -0.2040
  10023SM   H9T13563   1.150   0.981   7.141  0.2907 -0.5364  0.0805
  10023SM  C10S13564   1.084   1.022   7.335 -0.0140 -0.1853  0.1410
  10023SM  H10S13565   1.080   0.915   7.363  0.9088 -0.2815 -0.0588
  10023SM  H10T13566   0.977   1.048   7.319 -0.9886 -2.3518  2.4656
  10023SM  C11S13567   1.106   1.095   7.469 -0.0426 -0.1737 -0.7514
  10023SM  H11S13568   1.148   1.196   7.450  1.8288 -1.3012 -3.2004
  10023SM  H11T13569   1.194   1.043   7.512  0.9274  1.2738 -0.9293
  10023SM  C12S13570   0.986   1.089   7.566  0.2925 -0.0277  0.4245
  10023SM  H12S13571   0.901   1.142   7.519  0.4819  1.4704  1.6697
  10023SM  H12T13572   1.013   1.155   7.651  1.2790 -0.4315  0.4369
  10023SM  C13S13573   0.949   0.947   7.619  0.3680  0.1403  0.2771
  10023SM  H13S13574   0.884   0.894   7.546  0.6545 -0.4473  0.4349
  10023SM  H13T13575   0.887   0.961   7.710 -0.6246 -1.1085 -0.1744
  10023SM  C14S13576   1.062   0.855   7.649 -0.1915 -0.0118 -0.2511
  10023SM  H14S13577   1.132   0.913   7.714 -2.2862 -0.4212  2.5520
  10023SM  H14T13578   1.116   0.819   7.559  1.0608  0.6477  0.2072
  10023SM  C15S13579   1.028   0.726   7.726 -0.3798  0.0682 -0.4637
  10023SM  H15S13580   0.935   0.687   7.679 -1.9283  1.7341  1.0845
  10023SM  H15T13581   1.008   0.746   7.833 -2.0396 -2.7584 -0.1235
  10023SM  C16S13582   1.148   0.628   7.714  1.1449 -0.1797  0.3452
  10023SM  H16S13583   1.156   0.612   7.604 -0.5336 -1.2572  0.3319
  10023SM  H16T13584   1.106   0.531   7.748 -1.5768  1.4667  2.1403
  10023SM  C17S13585   1.276   0.661   7.790 -0.5190  0.7117  0.0930
  10023SM  H17S13586   1.245   0.691   7.892 -0.0449 -0.2532  0.5252
  10023SM  H17T13587   1.325   0.752   7.748  0.6715  0.0446  0.0020
  10023SM  C18S13588   1.371   0.545   7.794 -0.0187 -0.5258  0.1429
  10023SM  H18S13589   1.375   0.498   7.693 -0.8250  0.6249 -0.4457
  10023SM  H18T13590   1.338   0.473   7.873  0.3433 -1.6469 -0.6950
  10023SM  H18U13591   1.473   0.586   7.808  0.3792  0.2952 -3.9216
  10023SM   C1F13592   1.212   1.549   6.666 -0.5115  0.8793 -0.0427
  10023SM    OF13593   1.184   1.484   6.565  0.1167  0.3320 -0.0123
  10023SM   C2F13594   1.119   1.649   6.720  0.6835  0.4360 -0.1485
  10023SM   H2F13595   1.093   1.726   6.644 -1.3385  0.5360  0.5735
  10023SM   H2G13596   1.170   1.697   6.806  2.2844 -3.0797  1.0642
  10023SM   C3F13597   0.981   1.599   6.762 -0.3268 -0.2046  0.0266
  10023SM   H3F13598   0.925   1.539   6.687 -3.1241 -1.3755  2.8427
  10023SM   H3G13599   0.909   1.681   6.782  1.9670  1.3357  2.7843
  10023SM   C4F13600   0.993   1.521   6.896  0.1426 -0.0225 -0.0852
  10023SM   H4F13601   1.031   1.593   6.973  0.4177 -0.6038  0.3306
  10023SM   H4G13602   1.066   1.439   6.885  1.3441  1.1565 -1.2887
  10023SM   C5F13603   0.855   1.463   6.945  0.1025  0.0045  0.3994
  10023SM   H5F13604   0.814   1.405   6.860 -1.0186 -0.1959  1.0483
  10023SM   H5G13605   0.786   1.549   6.960 -0.2831 -0.4333  1.1825
  10023SM   C6F13606   0.873   1.378   7.069 -0.1082 -0.0799 -0.7070
  10023SM   H6F13607   0.936   1.431   7.143  0.3498  0.4444 -1.4599
  10023SM   H6G13608   0.923   1.283   7.043  1.3913  0.9494 -1.7060
  10023SM   C7F13609   0.736   1.333   7.125  0.4690 -0.0285 -0.3779
  10023SM   H7F13610   0.679   1.284   7.043  0.6968 -0.2098 -0.4274
  10023SM   H7G13611   0.689   1.433   7.140 -1.1361 -0.9829  1.4054
  10023SM   C8F13612   0.745   1.254   7.247  0.2364 -0.3364 -0.1896
  10023SM   H8F13613   0.786   1.327   7.320  0.5502  1.5069 -2.1215
  10023SM   H8G13614   0.800   1.157   7.247  0.1612 -0.3791 -0.1392
  10023SM   C9F13615   0.602   1.212   7.299  0.2319 -0.1485 -0.2139
  10023SM   H9F13616   0.539   1.168   7.219 -3.3848  1.1771  1.6732
  10023SM   H9G13617   0.541   1.296   7.339 -0.2541 -1.9114  3.0765
  10023SM  C10F13618   0.619   1.108   7.407  0.2296  0.2432 -0.2161
  10023SM  H10F13619   0.674   1.159   7.489 -1.6122  1.9749  0.0281
  10023SM  H10G13620   0.687   1.028   7.371 -2.0217 -2.7455  1.7673
  10023SM  C11F13621   0.490   1.044   7.456  0.5096  0.1380  0.7047
  10023SM  H11F13622   0.433   0.996   7.374 -0.2669 -1.2489  2.0183
  10023SM  H11G13623   0.425   1.122   7.503  0.8317  2.0647 -1.7961
  10023SM  C12F13624   0.522   0.936   7.564 -0.1056  0.4168  0.1186
  10023SM  H12F13625   0.582   0.864   7.504 -1.3686  0.3444 -1.0946
  10023SM  H12G13626   0.426   0.884   7.585 -0.1460  0.6566  0.5353
  10023SM  C13F13627   0.581   0.979   7.702 -0.2784 -0.9712  0.1558
  10023SM  H13F13628   0.513   1.042   7.763 -0.2520 -1.4505  0.6847
  10023SM  H13G13629   0.669   1.046   7.690  0.3012 -0.4930  4.9714
  10023SM  C14F13630   0.629   0.862   7.782 -0.1689  0.0530  0.6418
  10023SM  H14F13631   0.716   0.818   7.729  0.5593 -0.1349  1.9355
  10023SM  H14G13632   0.550   0.785   7.793 -0.2169  0.1540  1.0257
  10023SM  C15F13633   0.673   0.896   7.925 -0.0692  0.0063 -0.4790
  10023SM  H15F13634   0.597   0.957   7.979  2.5515  0.1707  3.3901
  10023SM  H15G13635   0.763   0.961   7.930  0.0004 -0.0208 -1.2773
  10023SM  C16F13636   0.697   0.770   8.007  0.3419 -0.6521 -0.2742
  10023SM  H16F13637   0.777   0.710   7.959  1.6027  0.5271  0.2892
  10023SM  H16G13638   0.602   0.711   7.999  0.1485 -0.0754 -3.7311
  10023SM  C17F13639   0.738   0.809   8.150  0.1152  0.5972  0.3054
  10023SM  H17F13640   0.646   0.859   8.187  0.0329  2.4875 -2.1663
  10023SM  H17G13641   0.819   0.886   8.153  2.0185 -1.3460  2.6223
  10023SM  C18F13642   0.787   0.686   8.219 -0.4760  0.2178 -0.0404
  10023SM  H18F13643   0.726   0.593   8.214 -1.4544  0.8823 -1.1034
  10023SM  H18G13644   0.785   0.716   8.326  1.3680  1.0316 -0.1938
  10023SM  C19F13645   0.928   0.638   8.184  0.0005 -0.4694  0.4279
  10023SM  H19F13646   1.005   0.715   8.161  0.7928 -1.8075 -1.7121
  10023SM  H19G13647   0.922   0.587   8.086 -0.0754  0.7841 -0.2319
  10023SM  C20F13648   0.993   0.555   8.291  0.4928  0.4075  0.0483
  10023SM  H20F13649   0.928   0.471   8.324  0.2485  0.6331  0.1510
  10023SM  H20G13650   1.005   0.625   8.377 -0.4004 -2.5500  2.8074
  10023SM  C21F13651   1.133   0.506   8.274 -0.1287  0.1913 -0.5645
  10023SM  H21F13652   1.119   0.437   8.189 -3.0849  0.2179 -0.1942
  10023SM  H21G13653   1.168   0.456   8.367 -1.4612  0.7810  0.2814
  10023SM  C22F13654   1.243   0.616   8.237 -0.2234 -0.7977  0.0954
  10023SM  H22F13655   1.218   0.696   8.310 -1.8174 -0.7067 -0.5114
  10023SM  H22G13656   1.227   0.643   8.131 -0.4697 -1.0774  0.0577
  10023SM  C23F13657   1.387   0.577   8.261 -0.6141  0.1671  0.4645
  10023SM  H23F13658   1.452   0.664   8.241 -1.2351  0.8612  1.3873
  10023SM  H23G13659   1.415   0.495   8.192 -0.5273  0.3868  0.2354
  10023SM  H23H13660   1.407   0.546   8.366  0.4004  0.3519  0.3331
  101CHL1    C313661   2.421   5.392   8.931  0.8407  0.2428 -0.3991
  101CHL1    H313662   2.322   5.341   8.935  0.7224  0.3752 -1.4816
  101CHL1    O313663   2.474   5.389   9.062 -0.1296  0.7136  0.3007
  101CHL1   H3'13664   2.466   5.300   9.096 -1.1574 -0.3393 -2.4026
  101CHL1    C413665   2.520   5.318   8.829  0.9457  0.2585  0.1951
  101CHL1   H4A13666   2.619   5.370   8.828  1.2555 -0.2443 -2.8063
  101CHL1   H4B13667   2.550   5.220   8.873 -0.9957 -0.3051  0.3427
  101CHL1    C513668   2.460   5.320   8.690 -0.2496 -0.2068  0.5814
  101CHL1    C613669   2.437   5.213   8.614  0.3702  0.2560 -0.0079
  101CHL1    H613670   2.475   5.115   8.648  1.0503  0.2750 -0.6883
  101CHL1    C713671   2.377   5.215   8.477 -0.2958  0.4583  0.1307
  101CHL1   H7A13672   2.453   5.161   8.417  0.0048  1.1393 -0.1002
  101CHL1   H7B13673   2.273   5.175   8.477 -0.2432  0.3181 -0.2936
  101CHL1    C813674   2.381   5.355   8.406  0.3415  0.1126 -0.2295
  101CHL1    H813675   2.489   5.364   8.382  0.5662  0.4832  0.8481
  101CHL1   C1413676   2.285   5.356   8.291 -0.1243  0.5437  0.5211
  101CHL1   H1413677   2.181   5.344   8.329 -0.4599  1.8590  0.0703
  101CHL1   C1513678   2.304   5.243   8.184  0.4962  0.7304 -0.0461
  101CHL1  H15A13679   2.413   5.229   8.166 -0.2035 -3.4857 -2.3991
  101CHL1  H15B13680   2.263   5.146   8.219  0.1281 -0.2360 -2.8819
  101CHL1   C1613681   2.241   5.297   8.059  0.0822  0.0508 -0.5510
  101CHL1  H16A13682   2.312   5.292   7.974  0.6146 -0.6047 -0.0723
  101CHL1  H16B13683   2.137   5.261   8.042 -0.2268 -0.0903  1.4443
  101CHL1   C1713684   2.210   5.448   8.096  0.2285 -0.5019  0.4925
  101CHL1   H1713685   2.109   5.457   8.142 -0.2064 -1.8147 -0.1441
  101CHL1   C1313686   2.295   5.490   8.211  0.1139  0.4347 -0.7188
  101CHL1   C1813687   2.446   5.516   8.160 -0.1424  0.1343  0.1651
  101CHL1  H18A13688   2.518   5.509   8.244  2.0626 -2.3341 -1.7311
  101CHL1  H18B13689   2.478   5.440   8.085 -1.3169  0.4148 -0.6547
  101CHL1  H18C13690   2.458   5.611   8.105 -0.5540 -1.0945 -2.1950
  101CHL1   C1213691   2.252   5.609   8.301 -0.0667  0.6660  0.1982
  101CHL1  H12A13692   2.285   5.707   8.260 -0.1762  0.6184 -0.0048
  101CHL1  H12B13693   2.144   5.595   8.326 -0.2077 -2.1375 -1.6062
  101CHL1   C1113694   2.330   5.615   8.441  0.3943 -0.7123  0.8848
  101CHL1  H11A13695   2.427   5.652   8.402  0.3610 -0.3629  1.1311
  101CHL1  H11B13696   2.284   5.684   8.514  0.2537 -0.1014  0.2290
  101CHL1    C913697   2.350   5.467   8.502  0.5437  0.0811 -0.2629
  101CHL1    H913698   2.247   5.444   8.537  0.7982 -1.6893 -0.5661
  101CHL1   C1013699   2.433   5.464   8.637 -0.2005 -0.0986 -0.0749
  101CHL1   C1913700   2.567   5.530   8.609 -0.9109 -0.5070  1.0558
  101CHL1  H19A13701   2.632   5.546   8.697 -0.3386  0.7077  0.4331
  101CHL1  H19B13702   2.636   5.464   8.551 -1.5797 -1.5287  1.3970
  101CHL1  H19C13703   2.560   5.634   8.571 -0.0769 -1.4701 -2.0138
  101CHL1    C113704   2.355   5.556   8.741  0.2706 -0.1493 -0.7682
  101CHL1   H1A13705   2.370   5.662   8.712 -0.9389 -0.2108 -1.6913
  101CHL1   H1B13706   2.248   5.526   8.734 -0.1868  1.4535 -0.9992
  101CHL1    C213707   2.404   5.545   8.891  0.2412  0.9281  0.0590
  101CHL1   H2A13708   2.324   5.594   8.951  2.4981 -0.2397  4.3937
  101CHL1   H2B13709   2.497   5.605   8.894  0.6246  0.5195 -1.9393
  101CHL1   C2013710   2.200   5.531   7.964  0.3165  0.1700 -0.3496
  101CHL1   H2013711   2.300   5.523   7.917  1.4191  0.6297  1.7909
  101CHL1   C2113712   2.161   5.678   7.998 -0.6819  0.0083 -0.3226
  101CHL1  H21A13713   2.243   5.719   8.062 -1.9612 -0.3931  1.6630
  101CHL1  H21B13714   2.066   5.680   8.055 -0.2930  1.3903  0.3422
  101CHL1  H21C13715   2.147   5.739   7.906  0.8196 -3.8837 -3.4019
  101CHL1   C2213716   2.106   5.483   7.859 -0.0268  0.3059  0.6525
  101CHL1  H22A13717   2.022   5.430   7.909  0.9512 -1.5030  0.4673
  101CHL1  H22B13718   2.059   5.569   7.807  1.4494  0.8532  0.1805
  101CHL1   C2313719   2.153   5.394   7.739  0.6292  0.9211  0.6448
  101CHL1  H23A13720   2.235   5.449   7.689  1.1307 -0.8912 -0.6156
  101CHL1  H23B13721   2.206   5.310   7.790  0.5000  1.0526  0.9995
  101CHL1   C2413722   2.041   5.350   7.633  0.0835 -0.1291 -0.3937
  101CHL1  H24A13723   1.979   5.263   7.664 -0.3992  0.7034  1.0558
  101CHL1  H24B13724   1.973   5.438   7.627 -0.7696 -0.7724 -0.3144
  101CHL1   C2513725   2.102   5.322   7.488 -0.0335  0.3270  0.2090
  101CHL1   H2513726   2.164   5.410   7.462 -0.3764  0.2461 -0.9343
  101CHL1   C2613727   2.193   5.195   7.486  0.6024  0.3754  0.5113
  101CHL1  H26A13728   2.147   5.098   7.513  2.1017 -1.4435 -2.8527
  101CHL1  H26B13729   2.235   5.189   7.383 -0.5483  1.2785 -0.0362
  101CHL1  H26C13730   2.273   5.214   7.560  0.6642 -3.5001  1.6401
  101CHL1   C2713731   1.986   5.310   7.391  0.1399 -0.3366  0.1207
  101CHL1  H27A13732   2.020   5.316   7.286  0.2240 -0.3368  0.1477
  101CHL1  H27B13733   1.933   5.214   7.405 -0.1035 -0.2394 -0.1189
  101CHL1  H27C13734   1.924   5.401   7.406  1.4699  0.4321  1.1656
  102CHL1    C313735   4.368   6.734   9.444  0.0934 -0.4252  0.3740
  102CHL1    H313736   4.280   6.796   9.469 -0.2986 -0.7918 -0.0631
  102CHL1    O313737   4.433   6.680   9.561 -0.1874 -0.3588 -0.5059
  102CHL1   H3'13738   4.436   6.756   9.620 -2.2262  0.3789 -1.2820
  102CHL1    C413739   4.324   6.604   9.362  0.1999  0.5774 -0.6600
  102CHL1   H4A13740   4.406   6.530   9.347 -0.6477 -0.3783 -0.6745
  102CHL1   H4B13741   4.253   6.550   9.428 -0.5381 -0.2239 -2.0587
  102CHL1    C513742   4.263   6.637   9.228 -0.3934  0.6522 -0.3683
  102CHL1    C613743   4.143   6.604   9.193  0.2545 -0.3071  0.2847
  102CHL1    H613744   4.082   6.548   9.265  0.2417 -0.8650 -0.1581
  102CHL1    C713745   4.076   6.644   9.063  0.1890 -0.1128 -0.0515
  102CHL1   H7A13746   4.007   6.564   9.032 -0.4036 -1.3916  3.9180
  102CHL1   H7B13747   4.020   6.739   9.080 -0.0510 -0.1639 -0.5522
  102CHL1    C813748   4.174   6.685   8.959  0.0363  0.3366 -0.0359
  102CHL1    H813749   4.238   6.596   8.937  4.2494  3.1904 -0.6229
  102CHL1   C1413750   4.106   6.740   8.831  0.2744 -0.2646  0.1298
  102CHL1   H1413751   4.046   6.826   8.868 -0.8490 -1.2968  0.8111
  102CHL1   C1513752   3.999   6.648   8.774  1.0301  0.1137 -0.7568
  102CHL1  H15A13753   4.035   6.543   8.779  1.0110 -0.0548 -2.9556
  102CHL1  H15B13754   3.903   6.641   8.829  1.5215 -0.9153  0.0001
  102CHL1   C1613755   3.979   6.703   8.630  0.2078  0.5770 -0.1100
  102CHL1  H16A13756   3.991   6.617   8.560 -2.2385 -0.6266  0.8356
  102CHL1  H16B13757   3.878   6.747   8.614 -0.2607 -1.0948 -2.3015
  102CHL1   C1713758   4.086   6.820   8.618 -0.4216  0.1056  0.4823
  102CHL1   H1713759   4.033   6.911   8.653  1.7486  1.9860 -0.8680
  102CHL1   C1313760   4.194   6.790   8.719  0.5238  1.1355  0.0314
  102CHL1   C1813761   4.282   6.672   8.669  0.2626  0.1960  0.3225
  102CHL1  H18A13762   4.220   6.597   8.617  0.4797 -0.0351  0.3967
  102CHL1  H18B13763   4.371   6.706   8.612  0.4875  0.3963  0.7851
  102CHL1  H18C13764   4.319   6.618   8.759  1.0508 -0.7162 -0.5406
  102CHL1   C1213765   4.297   6.893   8.773 -0.0568 -1.0013 -0.3662
  102CHL1  H12A13766   4.360   6.929   8.690  1.3726 -0.2363  1.0086
  102CHL1  H12B13767   4.240   6.982   8.808  2.6460  0.2990  0.9943
  102CHL1   C1113768   4.366   6.842   8.900  0.0749  0.7725 -0.4424
  102CHL1  H11A13769   4.431   6.763   8.858  0.2283  0.6083  0.0901
  102CHL1  H11B13770   4.432   6.921   8.940  0.8264  0.0326 -0.1912
  102CHL1    C913771   4.277   6.787   9.011  0.2620  0.3060 -0.4083
  102CHL1    H913772   4.214   6.867   9.055 -3.1266 -2.4823  0.3009
  102CHL1   C1013773   4.350   6.732   9.140  1.2155  0.7656 -0.5074
  102CHL1   C1913774   4.464   6.640   9.098 -0.3012 -0.3044 -0.4681
  102CHL1  H19A13775   4.511   6.599   9.190  0.2254 -1.2979 -1.1540
  102CHL1  H19B13776   4.429   6.555   9.035  0.9479 -0.9908 -0.2537
  102CHL1  H19C13777   4.544   6.691   9.039 -1.3020 -0.2277 -1.8136
  102CHL1    C113778   4.404   6.852   9.229  0.3909 -0.1106 -0.1082
  102CHL1   H1A13779   4.489   6.893   9.169  1.3725 -0.0254  1.2860
  102CHL1   H1B13780   4.322   6.926   9.232  2.0213  1.8830 -1.6102
  102CHL1    C213781   4.465   6.819   9.366 -0.0241 -0.4150  0.0175
  102CHL1   H2A13782   4.478   6.910   9.427 -1.1353 -0.1353 -0.1496
  102CHL1   H2B13783   4.566   6.772   9.365  1.9061  3.2963 -1.8613
  102CHL1   C2013784   4.114   6.855   8.473 -0.3940  0.1429 -0.2166
  102CHL1   H2013785   4.189   6.777   8.447 -0.2706 -0.5387  2.0126
  102CHL1   C2113786   4.183   6.996   8.458  0.2888  0.5364 -0.2453
  102CHL1  H21A13787   4.194   7.022   8.350 -0.5654 -3.1703 -1.3474
  102CHL1  H21B13788   4.288   6.974   8.487 -0.2285 -1.3980  0.2785
  102CHL1  H21C13789   4.134   7.076   8.517 -1.0369  0.0041 -0.5907
  102CHL1   C2213790   4.007   6.844   8.364 -0.4081  0.3358 -0.2696
  102CHL1  H22A13791   4.042   6.858   8.259 -2.9842 -1.3433 -1.4604
  102CHL1  H22B13792   3.977   6.738   8.377  1.8107 -0.0894  2.2153
  102CHL1   C2313793   3.897   6.943   8.372  0.3939  0.2651  0.2092
  102CHL1  H23A13794   3.858   6.965   8.474  0.3366  0.5274  0.1323
  102CHL1  H23B13795   3.927   7.044   8.336 -0.5360  0.9509  1.2721
  102CHL1   C2413796   3.769   6.903   8.291 -0.1643 -0.0483  0.0911
  102CHL1  H24A13797   3.796   6.879   8.186 -1.3074  0.0405 -0.2398
  102CHL1  H24B13798   3.720   6.812   8.332 -1.0416 -0.6640 -2.1629
  102CHL1   C2513799   3.663   7.017   8.277 -0.1314  0.5055 -0.5207
  102CHL1   H2513800   3.713   7.111   8.244 -1.3005  1.1754 -0.4293
  102CHL1   C2613801   3.544   6.972   8.188  0.7024 -0.3625 -0.3890
  102CHL1  H26A13802   3.579   6.949   8.085 -0.1269  0.1560 -0.7976
  102CHL1  H26B13803   3.503   6.884   8.242  3.9784 -1.5135  0.5050
  102CHL1  H26C13804   3.468   7.052   8.185 -0.4382 -1.3640  0.6880
  102CHL1   C2713805   3.594   7.035   8.411 -0.2814  0.0454  0.1408
  102CHL1  H27A13806   3.507   7.101   8.388 -0.1180 -0.0777 -0.8450
  102CHL1  H27B13807   3.560   6.939   8.455 -0.2837  0.3752  0.8901
  102CHL1  H27C13808   3.663   7.086   8.481  0.1909  1.3867 -1.2439
  103CHL1    C313809   6.799   5.082   8.997  0.0193  0.6621 -0.1874
  103CHL1    H313810   6.895   5.080   8.941 -1.0027  1.7275 -2.0941
  103CHL1    O313811   6.810   5.080   9.136 -0.0605  0.2656 -0.0942
  103CHL1   H3'13812   6.887   5.131   9.160 -1.2405  2.0670  0.0320
  103CHL1    C413813   6.721   5.209   8.951  0.1310  0.0771  0.1331
  103CHL1   H4A13814   6.628   5.213   9.012  1.7305 -0.8284  2.8192
  103CHL1   H4B13815   6.779   5.296   8.987 -0.6141  1.1189 -1.1194
  103CHL1    C513816   6.683   5.210   8.804  0.2644 -0.1305 -0.2701
  103CHL1    C613817   6.727   5.306   8.722  0.0729  0.4395  0.3788
  103CHL1    H613818   6.782   5.389   8.769 -0.4216  1.4840 -0.8231
  103CHL1    C713819   6.704   5.303   8.570  0.1777  0.4754  0.2794
  103CHL1   H7A13820   6.673   5.404   8.535 -2.6922 -0.7634 -1.1380
  103CHL1   H7B13821   6.790   5.277   8.505 -0.4125  2.1666 -1.2513
  103CHL1    C813822   6.575   5.220   8.532  0.7559  0.6292  0.0773
  103CHL1    H813823   6.487   5.272   8.577  0.3009  0.2572 -0.3723
  103CHL1   C1413824   6.567   5.216   8.378  0.0894  0.7997  0.0962
  103CHL1   H1413825   6.668   5.184   8.343  1.1765  2.8028  1.2678
  103CHL1   C1513826   6.545   5.340   8.297  0.3916  0.2720  0.6819
  103CHL1  H15A13827   6.460   5.401   8.335  1.7518  3.0967 -0.5813
  103CHL1  H15B13828   6.638   5.400   8.289  0.3268  0.1197 -1.9987
  103CHL1   C1613829   6.513   5.286   8.158  0.1624 -0.3523  0.1701
  103CHL1  H16A13830   6.434   5.347   8.109  1.4603  0.2196 -1.2693
  103CHL1  H16B13831   6.609   5.288   8.102  1.0905  0.5519  1.7364
  103CHL1   C1713832   6.475   5.138   8.175 -0.0544 -0.4004  0.6613
  103CHL1   H1713833   6.566   5.078   8.153 -1.1145 -1.4808 -1.0401
  103CHL1   C1313834   6.464   5.115   8.325 -0.5100 -0.4257  1.0251
  103CHL1   C1813835   6.323   5.145   8.384 -0.0281 -0.0311  0.0677
  103CHL1  H18A13836   6.243   5.083   8.338 -1.8199  3.1843 -1.4682
  103CHL1  H18B13837   6.311   5.146   8.495 -1.2340 -1.3799 -0.0124
  103CHL1  H18C13838   6.286   5.247   8.362  0.1998  0.4114  1.5859
  103CHL1   C1213839   6.497   4.973   8.375 -0.4778  0.1182 -0.4071
  103CHL1  H12A13840   6.426   4.897   8.333  1.4648 -0.7314 -2.3593
  103CHL1  H12B13841   6.596   4.947   8.333 -0.7188 -0.0645 -0.8769
  103CHL1   C1113842   6.498   4.971   8.529  0.3109  0.2572  0.2545
  103CHL1  H11A13843   6.393   4.964   8.562 -0.3222 -0.8819 -1.7927
  103CHL1  H11B13844   6.539   4.877   8.571  0.1708  0.4843  0.9141
  103CHL1    C913845   6.592   5.080   8.597 -0.5155 -0.0776 -0.6458
  103CHL1    H913846   6.693   5.044   8.565  0.8487  1.3352  1.7647
  103CHL1   C1013847   6.609   5.085   8.752  0.1002  0.3851  0.4725
  103CHL1   C1913848   6.467   5.109   8.803 -0.3533 -0.1123  0.0503
  103CHL1  H19A13849   6.405   5.026   8.763 -0.9408 -1.5153  3.4918
  103CHL1  H19B13850   6.448   5.104   8.913 -1.8489  2.4889  0.0003
  103CHL1  H19C13851   6.425   5.204   8.764 -0.7301 -0.6934 -0.9829
  103CHL1    C113852   6.681   4.958   8.802 -0.0170 -0.1965  0.0108
  103CHL1   H1A13853   6.620   4.868   8.778 -0.5865 -0.0550  0.8935
  103CHL1   H1B13854   6.773   4.940   8.742 -1.0429 -1.5801 -1.2468
  103CHL1    C213855   6.723   4.951   8.955 -0.1872  0.2683  0.5513
  103CHL1   H2A13856   6.782   4.858   8.975  0.8836  1.2048  1.9390
  103CHL1   H2B13857   6.631   4.942   9.016 -0.1169 -2.2143  0.4031
  103CHL1   C2013858   6.365   5.086   8.085  0.5884 -0.0574  0.5826
  103CHL1   H2013859   6.339   4.990   8.135  0.7169 -1.1180 -1.2997
  103CHL1   C2113860   6.429   5.056   7.946  0.6751 -0.7215  0.4092
  103CHL1  H21A13861   6.464   5.153   7.903 -1.2461  1.2725  3.0529
  103CHL1  H21B13862   6.359   5.017   7.869  0.3866  0.1615  0.2185
  103CHL1  H21C13863   6.520   4.992   7.953  0.7152 -0.9144 -1.3145
  103CHL1   C2213864   6.234   5.174   8.062 -0.4887 -0.2823  0.7385
  103CHL1  H22A13865   6.192   5.221   8.153 -1.3016  1.1383 -0.3433
  103CHL1  H22B13866   6.253   5.255   7.989  0.5016 -1.2750 -0.1541
  103CHL1   C2313867   6.114   5.082   8.016  0.1866 -0.7042 -0.7182
  103CHL1  H23A13868   6.147   5.055   7.913  1.2772  2.9308 -1.4623
  103CHL1  H23B13869   6.115   4.999   8.089  1.3264  0.9519  1.2604
  103CHL1   C2413870   5.981   5.158   8.017 -0.2466 -0.1364 -0.0783
  103CHL1  H24A13871   5.939   5.149   8.119  0.3322 -0.2649  0.1545
  103CHL1  H24B13872   6.000   5.265   7.996  1.8403 -0.5026 -0.3249
  103CHL1   C2513873   5.877   5.097   7.922  0.7610 -0.6125  0.0058
  103CHL1   H2513874   5.923   5.105   7.821  0.8099 -1.0454 -0.0067
  103CHL1   C2613875   5.837   4.951   7.947 -0.7503  0.1321  0.2829
  103CHL1  H26A13876   5.814   4.937   8.055 -0.9613  1.0133  0.3603
  103CHL1  H26B13877   5.750   4.916   7.889  0.6462 -1.3586 -1.0123
  103CHL1  H26C13878   5.923   4.888   7.917 -0.1735  0.8160  0.4695
  103CHL1   C2713879   5.752   5.189   7.909 -0.1188  0.1188 -0.1510
  103CHL1  H27A13880   5.680   5.159   7.989  0.1330  0.3791  0.1725
  103CHL1  H27B13881   5.769   5.296   7.929  2.0084 -0.4749  1.5902
  103CHL1  H27C13882   5.705   5.162   7.812  1.5292  1.6706 -1.4446
  104CHL1    C313883   8.862   4.751   8.947 -0.0839 -0.1010  0.0165
  104CHL1    H313884   8.939   4.797   8.883 -0.4774  0.1110 -0.3135
  104CHL1    O313885   8.903   4.654   9.040 -0.3199  0.4848 -0.0977
  104CHL1   H3'13886   8.819   4.618   9.069 -0.0921 -1.1667 -1.3456
  104CHL1    C413887   8.805   4.860   9.040  0.7463 -0.4594 -0.0023
  104CHL1   H4A13888   8.736   4.815   9.115 -0.0107  1.1745  0.3316
  104CHL1   H4B13889   8.893   4.901   9.093  0.2034  1.1267 -0.2833
  104CHL1    C513890   8.733   4.972   8.963 -0.0146 -0.2822  0.7203
  104CHL1    C613891   8.770   5.099   8.961  0.0914  0.1808 -0.6952
  104CHL1    H613892   8.854   5.125   9.028 -1.1841  0.4261  0.8794
  104CHL1    C713893   8.709   5.211   8.892 -0.7293  0.1161 -0.2087
  104CHL1   H7A13894   8.699   5.297   8.961 -0.1650  0.1371 -0.1487
  104CHL1   H7B13895   8.788   5.239   8.820  1.2582 -2.2191  0.9438
  104CHL1    C813896   8.580   5.168   8.827 -0.5160 -0.3745  0.0334
  104CHL1    H813897   8.500   5.158   8.903 -1.2768 -1.8814 -0.8990
  104CHL1   C1413898   8.541   5.278   8.725 -0.6956 -0.7506 -0.6420
  104CHL1   H1413899   8.613   5.275   8.640  0.3056 -0.4244  0.1802
  104CHL1   C1513900   8.541   5.430   8.755 -0.0818  0.8027 -0.8219
  104CHL1  H15A13901   8.487   5.440   8.852 -1.5959  1.9261 -1.7398
  104CHL1  H15B13902   8.643   5.475   8.757 -0.1693  1.0208 -1.2500
  104CHL1   C1613903   8.450   5.496   8.657  0.8006  0.3987 -0.1919
  104CHL1  H16A13904   8.373   5.554   8.713  0.3718 -0.0614 -0.2896
  104CHL1  H16B13905   8.510   5.557   8.587  4.8159 -2.3196  0.5625
  104CHL1   C1713906   8.390   5.375   8.574 -0.3872 -0.4342 -0.3368
  104CHL1   H1713907   8.463   5.360   8.491 -0.3030 -0.8078 -0.2002
  104CHL1   C1313908   8.403   5.247   8.663  0.1516  0.2954 -0.1314
  104CHL1   C1813909   8.288   5.258   8.777  0.2327 -0.2665  0.6140
  104CHL1  H18A13910   8.304   5.196   8.868  0.0596  0.7319  1.3414
  104CHL1  H18B13911   8.264   5.363   8.804 -1.6346 -0.9605  1.9323
  104CHL1  H18C13912   8.185   5.228   8.746  0.2309 -1.5037  1.7309
  104CHL1   C1213913   8.402   5.113   8.595  0.0834  0.1179  0.5873
  104CHL1  H12A13914   8.299   5.087   8.564  1.3088 -2.5800 -1.6698
  104CHL1  H12B13915   8.462   5.110   8.501  0.0690  3.0412  0.3973
  104CHL1   C1113916   8.459   5.003   8.682 -0.4114  0.6707  0.0162
  104CHL1  H11A13917   8.376   4.981   8.752  0.1522 -1.1626  0.1789
  104CHL1  H11B13918   8.466   4.910   8.621 -0.0770  1.1507 -0.7017
  104CHL1    C913919   8.590   5.032   8.758 -0.5168  0.1613 -0.2846
  104CHL1    H913920   8.667   5.032   8.678 -0.0305 -0.4560  0.1744
  104CHL1   C1013921   8.631   4.917   8.855 -0.3631 -0.2631  0.1301
  104CHL1   C1913922   8.498   4.858   8.932 -0.2885  0.5446  0.0711
  104CHL1  H19A13923   8.529   4.779   9.004  0.7523  0.2567 -0.6694
  104CHL1  H19B13924   8.435   4.937   8.979  0.1621 -0.8163  3.1810
  104CHL1  H19C13925   8.421   4.807   8.871 -1.7586  1.3458  1.1800
  104CHL1    C113926   8.696   4.809   8.766 -0.2103 -0.3941 -0.3482
  104CHL1   H1A13927   8.625   4.759   8.698 -1.4789  1.1561 -0.2154
  104CHL1   H1B13928   8.774   4.862   8.707  0.0958 -1.3435 -0.8128
  104CHL1    C213929   8.758   4.693   8.847 -0.3806 -0.9175 -0.0090
  104CHL1   H2A13930   8.806   4.620   8.778  1.0517 -0.1485  0.1311
  104CHL1   H2B13931   8.677   4.644   8.905 -1.4837  1.8987  0.9812
  104CHL1   C2013932   8.258   5.406   8.507  0.3674  0.6085 -0.4834
  104CHL1   H2013933   8.173   5.377   8.572  1.7303  0.2849  1.2176
  104CHL1   C2113934   8.253   5.320   8.377 -0.5100  0.1091  0.0910
  104CHL1  H21A13935   8.154   5.334   8.328 -1.2961  0.3300  1.7079
  104CHL1  H21B13936   8.268   5.212   8.395  0.0875 -0.0190 -1.0630
  104CHL1  H21C13937   8.329   5.350   8.302 -1.4019  1.1846 -0.4219
  104CHL1   C2213938   8.223   5.558   8.477 -0.2754 -0.1730 -0.0775
  104CHL1  H22A13939   8.222   5.609   8.575  2.1786  2.5466 -1.3446
  104CHL1  H22B13940   8.305   5.613   8.428  1.8761 -1.9191  1.3761
  104CHL1   C2313941   8.082   5.580   8.411 -0.1509  0.6517 -0.0228
  104CHL1  H23A13942   8.095   5.528   8.313  0.0102 -0.5881  0.6386
  104CHL1  H23B13943   7.995   5.540   8.466  0.1881 -0.5474 -0.3359
  104CHL1   C2413944   8.047   5.727   8.377  0.1081 -0.2618  0.0625
  104CHL1  H24A13945   8.054   5.789   8.469  0.7614 -0.5019  0.1772
  104CHL1  H24B13946   8.124   5.756   8.303  0.0087  0.8066  0.3562
  104CHL1   C2513947   7.912   5.752   8.306 -0.8227  0.8445  0.4042
  104CHL1   H2513948   7.834   5.701   8.366 -1.3653 -0.0351 -1.0042
  104CHL1   C2613949   7.872   5.899   8.312 -0.2132 -0.1914  0.1081
  104CHL1  H26A13950   7.928   5.963   8.240 -0.4306 -1.0390 -0.8270
  104CHL1  H26B13951   7.764   5.904   8.285  0.3812 -4.1214 -4.4131
  104CHL1  H26C13952   7.892   5.941   8.413  1.1126 -1.9571  0.6192
  104CHL1   C2713953   7.910   5.688   8.164  0.0708  0.2753  0.5553
  104CHL1  H27A13954   7.830   5.733   8.102  0.4928  2.0246  1.2239
  104CHL1  H27B13955   8.006   5.702   8.109 -0.4867 -1.2990 -0.8984
  104CHL1  H27C13956   7.897   5.579   8.182  0.6322  0.3397  1.4401
  105CHL1    C313957   6.022   5.887   9.141  0.0745  0.0577  0.3870
  105CHL1    H313958   6.130   5.862   9.133  0.9661  2.1799  3.5162
  105CHL1    O313959   6.011   5.926   9.280 -0.5767 -0.5414  0.1626
  105CHL1   H3'13960   6.043   5.856   9.338  0.0193  0.0297  0.5274
  105CHL1    C413961   5.988   6.014   9.055  0.5505  0.2613 -0.1696
  105CHL1   H4A13962   5.900   6.074   9.087  0.2782 -0.3581  0.2518
  105CHL1   H4B13963   6.073   6.083   9.069  0.7435  0.3090 -1.4647
  105CHL1    C513964   5.952   5.980   8.907 -0.7731 -0.1639  0.9389
  105CHL1    C613965   6.017   6.039   8.806 -1.3398 -0.4009  0.4342
  105CHL1    H613966   6.082   6.122   8.835 -2.8558  0.4661  1.4637
  105CHL1    C713967   5.996   6.024   8.656 -0.2509  0.5304 -0.2789
  105CHL1   H7A13968   6.006   6.122   8.605  0.4632  0.2697 -0.6632
  105CHL1   H7B13969   6.086   5.963   8.631  0.6431  1.8308 -0.3846
  105CHL1    C813970   5.869   5.941   8.635  0.0996 -0.2100  0.5010
  105CHL1    H813971   5.779   6.007   8.636  1.2646  1.5639 -2.0667
  105CHL1   C1413972   5.872   5.890   8.487  0.2582 -0.3711  0.3201
  105CHL1   H1413973   5.962   5.824   8.488  1.3055  1.0136  0.8909
  105CHL1   C1513974   5.894   5.976   8.367 -0.5294  0.6831 -0.1959
  105CHL1  H15A13975   5.831   6.067   8.376 -1.2752  0.6337 -3.5427
  105CHL1  H15B13976   6.001   6.003   8.360 -0.2253 -0.3763  0.1401
  105CHL1   C1613977   5.853   5.892   8.246 -0.0827  0.0577 -0.7227
  105CHL1  H16A13978   5.773   5.955   8.202 -0.7807  0.7477  1.3867
  105CHL1  H16B13979   5.931   5.868   8.170  0.5480 -0.5344  0.0875
  105CHL1   C1713980   5.788   5.766   8.307 -0.3881  0.2189  0.3156
  105CHL1   H1713981   5.877   5.701   8.318  0.9293  2.1737  1.9023
  105CHL1   C1313982   5.756   5.799   8.455 -0.2867 -0.0049  0.2749
  105CHL1   C1813983   5.623   5.873   8.449 -0.0328  0.8807  0.0583
  105CHL1  H18A13984   5.608   5.935   8.540  0.5215  1.1574 -0.0345
  105CHL1  H18B13985   5.620   5.931   8.355 -0.0694  0.1285 -0.4172
  105CHL1  H18C13986   5.540   5.799   8.447  0.6832  0.0411 -2.2445
  105CHL1   C1213987   5.749   5.682   8.555  0.1554  0.1922  0.0752
  105CHL1  H12A13988   5.665   5.612   8.533 -0.2705  0.6809  0.1207
  105CHL1  H12B13989   5.838   5.616   8.544 -2.6121 -4.0693  0.7491
  105CHL1   C1113990   5.733   5.731   8.697  0.4357  0.3300 -0.5109
  105CHL1  H11A13991   5.635   5.780   8.715 -0.2035  0.4379 -3.6408
  105CHL1  H11B13992   5.744   5.646   8.767  1.6662  1.2745  0.4973
  105CHL1    C913993   5.852   5.821   8.734 -0.5900  0.0425  0.4735
  105CHL1    H913994   5.940   5.759   8.707 -0.1476  1.7604 -2.4338
  105CHL1   C1013995   5.854   5.869   8.882  0.4611 -0.3656 -0.1242
  105CHL1   C1913996   5.707   5.914   8.918  0.6646 -0.2293  0.2661
  105CHL1  H19A13997   5.690   5.969   9.014 -3.1275 -0.9616  0.1971
  105CHL1  H19B13998   5.661   5.972   8.835  0.8753 -2.4881 -1.5169
  105CHL1  H19C13999   5.625   5.839   8.930 -0.1176  0.6598  0.6579
  105CHL1    C114000   5.905   5.748   8.960  0.4479 -0.2502  0.2083
  105CHL1   H1A14001   5.838   5.659   8.954  1.0911 -0.6411 -1.9358
  105CHL1   H1B14002   6.004   5.720   8.918  1.3669  2.2317  0.5678
  105CHL1    C214003   5.923   5.775   9.110 -0.1991  0.2996  0.2518
  105CHL1   H2A14004   5.965   5.678   9.143  1.4188  0.2272 -1.8556
  105CHL1   H2B14005   5.823   5.797   9.154 -1.9655 -1.0548 -2.7213
  105CHL1   C2014006   5.680   5.698   8.212 -0.0428 -0.7173  1.0101
  105CHL1   H2014007   5.585   5.755   8.223 -0.0689 -0.7655  1.0316
  105CHL1   C2114008   5.656   5.555   8.255  0.6302 -0.3099 -0.0532
  105CHL1  H21A14009   5.748   5.494   8.239 -0.6585 -1.8886 -2.0333
  105CHL1  H21B14010   5.596   5.497   8.181  2.8201 -2.3442 -0.4030
  105CHL1  H21C14011   5.595   5.526   8.342 -0.8582  0.5710 -0.7633
  105CHL1   C2214012   5.729   5.698   8.063  0.1577 -0.0867  0.0997
  105CHL1  H22A14013   5.735   5.803   8.029  2.0345 -0.3007 -0.3457
  105CHL1  H22B14014   5.832   5.657   8.070  0.7515  1.5124  1.3383
  105CHL1   C2314015   5.658   5.620   7.954 -0.5203 -0.0221  0.0300
  105CHL1  H23A14016   5.653   5.512   7.977 -2.2818 -0.3266 -1.5334
  105CHL1  H23B14017   5.555   5.658   7.940  0.1450  2.7266  1.7251
  105CHL1   C2414018   5.737   5.618   7.817  0.3778  0.7070  0.6228
  105CHL1  H24A14019   5.760   5.724   7.792 -2.8011  1.0130 -1.6317
  105CHL1  H24B14020   5.828   5.560   7.843 -0.8592 -2.6148 -1.7782
  105CHL1   C2514021   5.660   5.560   7.689 -0.2484 -0.3617  0.2781
  105CHL1   H2514022   5.573   5.628   7.679 -0.1590 -0.3524 -0.5998
  105CHL1   C2614023   5.731   5.592   7.555 -0.7093 -0.2779 -0.1300
  105CHL1  H26A14024   5.804   5.509   7.544  0.2433  0.3309  1.3101
  105CHL1  H26B14025   5.669   5.573   7.465  0.2000 -2.3443 -0.3718
  105CHL1  H26C14026   5.773   5.695   7.558 -1.0827 -0.0161 -2.2365
  105CHL1   C2714027   5.614   5.417   7.699 -0.0641  0.0897  1.0885
  105CHL1  H27A14028   5.700   5.347   7.691 -0.0759  0.0476  1.3166
  105CHL1  H27B14029   5.575   5.393   7.800  2.4686  1.8615  2.6293
  105CHL1  H27C14030   5.542   5.392   7.619  0.7208 -0.1656  0.4527
  106CHL1    C314031   0.102   2.898   8.793  0.6105  0.0275  0.0057
  106CHL1    H314032   0.136   3.003   8.808 -1.9144  1.0308 -0.7923
  106CHL1    O314033   0.047   2.837   8.909 -0.0819  0.1452 -0.3731
  106CHL1   H3'14034   0.120   2.828   8.969 -0.3994 -1.7153 -0.2301
  106CHL1    C414035  -0.008   2.921   8.682 -0.5016 -0.6631 -0.7529
  106CHL1   H4A14036  -0.063   2.829   8.654 -0.3053 -0.8022 -0.6723
  106CHL1   H4B14037  -0.068   2.996   8.739  1.7121  0.5423  0.1005
  106CHL1    C514038   0.054   2.983   8.560 -0.5549  0.0357  0.0443
  106CHL1    C614039   0.014   3.097   8.515 -0.5870 -0.3617 -0.4194
  106CHL1    H614040  -0.078   3.139   8.558  0.8421  2.5110  0.1073
  106CHL1    C714041   0.070   3.148   8.383 -0.3305  0.4626 -0.0082
  106CHL1   H7A14042  -0.013   3.170   8.313  1.2232  1.5455 -1.5754
  106CHL1   H7B14043   0.118   3.245   8.405  0.6253 -0.4183  2.0437
  106CHL1    C814044   0.160   3.047   8.302 -0.5981  0.0664  0.0367
  106CHL1    H814045   0.088   2.974   8.257 -1.4967  0.5584  0.6438
  106CHL1   C1414046   0.224   3.126   8.195  0.0125  0.1347  0.5140
  106CHL1   H1414047   0.292   3.197   8.247 -0.3898  0.2465  0.9011
  106CHL1   C1514048   0.137   3.219   8.106 -0.5113  0.4635 -0.0707
  106CHL1  H15A14049   0.050   3.160   8.067 -0.0151 -0.2052 -0.1773
  106CHL1  H15B14050   0.101   3.310   8.157  0.1197  0.1702  0.9221
  106CHL1   C1614051   0.236   3.242   7.984 -0.5387 -0.4118 -0.1752
  106CHL1  H16A14052   0.183   3.200   7.896 -1.8145 -0.8053  0.7463
  106CHL1  H16B14053   0.250   3.351   7.965  1.4223 -0.7741 -1.0485
  106CHL1   C1714054   0.361   3.153   8.011 -0.0434  1.0626 -0.4590
  106CHL1   H1714055   0.432   3.226   8.055  1.1973 -0.2029 -0.2633
  106CHL1   C1314056   0.321   3.042   8.110  0.1403  0.1232  0.6652
  106CHL1   C1814057   0.249   2.921   8.041 -0.1079 -0.2928  0.5286
  106CHL1  H18A14058   0.162   2.956   7.982  0.4499 -1.2533 -0.9200
  106CHL1  H18B14059   0.321   2.865   7.977  0.0863  1.0568 -0.4700
  106CHL1  H18C14060   0.216   2.844   8.114 -2.4352 -0.9579 -1.1341
  106CHL1   C1214061   0.433   2.997   8.203 -0.3362 -0.5718 -0.4437
  106CHL1  H12A14062   0.495   2.922   8.149 -0.8948 -0.3272 -1.4487
  106CHL1  H12B14063   0.503   3.078   8.232 -0.5062 -0.6332  0.1693
  106CHL1   C1114064   0.375   2.916   8.317  0.1708  0.6853 -0.2283
  106CHL1  H11A14065   0.337   2.820   8.276  2.0917  0.0262 -0.5700
  106CHL1  H11B14066   0.461   2.880   8.378 -0.7338 -2.1085 -0.4279
  106CHL1    C914067   0.255   2.980   8.397  0.1864  0.4685 -0.1534
  106CHL1    H914068   0.307   3.060   8.454  1.9642 -1.5347  1.1960
  106CHL1   C1014069   0.177   2.901   8.502 -0.3025 -0.2718  0.2790
  106CHL1   C1914070   0.127   2.767   8.447 -0.1889  0.1315 -0.5754
  106CHL1  H19A14071   0.213   2.697   8.440 -0.9178 -0.7137 -1.2227
  106CHL1  H19B14072   0.062   2.718   8.522  1.3884 -0.2049  0.6291
  106CHL1  H19C14073   0.069   2.777   8.353 -0.7100  0.2184 -0.2452
  106CHL1    C114074   0.274   2.871   8.627  0.0275  0.2969  0.0268
  106CHL1   H1A14075   0.352   2.805   8.583 -1.9170 -1.1420 -1.4377
  106CHL1   H1B14076   0.323   2.969   8.647  0.8128 -0.1967  0.5414
  106CHL1    C214077   0.221   2.810   8.755 -0.5078 -0.1146  0.5957
  106CHL1   H2A14078   0.300   2.827   8.831 -0.5288 -1.4031  0.9143
  106CHL1   H2B14079   0.196   2.704   8.737  1.1222 -0.3894 -0.1720
  106CHL1   C2014080   0.419   3.101   7.875  0.5271 -0.5060  0.4063
  106CHL1   H2014081   0.342   3.032   7.834  2.0875 -2.1503  0.1273
  106CHL1   C2114082   0.539   3.001   7.891  0.5816  0.8313  0.0885
  106CHL1  H21A14083   0.556   2.967   7.787  0.4218  4.2490 -1.1897
  106CHL1  H21B14084   0.531   2.908   7.952 -0.4885  0.3445 -0.7693
  106CHL1  H21C14085   0.629   3.057   7.925  0.1181  2.0297 -0.5917
  106CHL1   C2214086   0.446   3.218   7.776  0.3276 -0.3282  0.3026
  106CHL1  H22A14087   0.352   3.247   7.724  0.5835 -1.0314 -0.5840
  106CHL1  H22B14088   0.484   3.306   7.831 -2.0892  2.5629 -2.2810
  106CHL1   C2314089   0.558   3.193   7.669 -0.1412  0.2794  0.0784
  106CHL1  H23A14090   0.650   3.205   7.729 -0.6614 -0.1391  0.9917
  106CHL1  H23B14091   0.554   3.087   7.634 -2.1998 -0.5381  2.4453
  106CHL1   C2414092   0.541   3.292   7.557 -0.1876 -0.0871  0.0972
  106CHL1  H24A14093   0.438   3.293   7.515 -0.2334  2.6233  0.1157
  106CHL1  H24B14094   0.538   3.387   7.615 -3.2545 -0.8216  1.3417
  106CHL1   C2514095   0.649   3.297   7.442 -0.6519 -0.0642  0.4359
  106CHL1   H2514096   0.744   3.327   7.491 -0.0402 -0.7636 -0.2981
  106CHL1   C2614097   0.681   3.163   7.375  0.2174 -0.6410  0.4087
  106CHL1  H26A14098   0.764   3.181   7.303 -2.1164  1.2226 -2.0291
  106CHL1  H26B14099   0.713   3.086   7.448  0.7537 -0.6916  0.1277
  106CHL1  H26C14100   0.596   3.134   7.310  0.6219  0.1089 -0.4775
  106CHL1   C2714101   0.618   3.402   7.325 -0.5309 -0.1634 -0.5018
  106CHL1  H27A14102   0.527   3.365   7.272 -0.8057  0.1459 -0.2535
  106CHL1  H27B14103   0.607   3.505   7.367 -0.4977  0.4673 -2.0029
  106CHL1  H27C14104   0.706   3.416   7.260  0.1399  1.9133  0.7456
  107CHL1    C314105   5.760   7.474   9.070 -0.8625 -0.0398  0.0094
  107CHL1    H314106   5.697   7.393   9.027 -0.9778  0.0918 -0.0705
  107CHL1    O314107   5.783   7.423   9.206  0.2964  0.0177 -0.1971
  107CHL1   H3'14108   5.872   7.386   9.208  0.6194  0.7499  1.4856
  107CHL1    C414109   5.892   7.481   9.003 -0.3466  0.3007  0.3086
  107CHL1   H4A14110   5.961   7.546   9.062 -0.4403  0.4397  0.2643
  107CHL1   H4B14111   5.928   7.375   9.002 -1.3841 -0.1240 -3.1620
  107CHL1    C514112   5.889   7.538   8.864 -0.0209  0.1063  0.1782
  107CHL1    C614113   5.930   7.472   8.759 -0.2753 -0.3354 -0.0704
  107CHL1    H614114   5.970   7.370   8.770 -0.6681 -0.3863  0.9774
  107CHL1    C714115   5.938   7.524   8.618 -0.1778 -0.4808 -0.4020
  107CHL1   H7A14116   6.028   7.501   8.558 -1.2754 -1.7393 -1.6306
  107CHL1   H7B14117   5.859   7.471   8.560 -1.1028  0.1422  0.2529
  107CHL1    C814118   5.899   7.675   8.608  0.5888  0.5016  0.5733
  107CHL1    H814119   5.996   7.722   8.637  0.9417 -0.1986  0.5291
  107CHL1   C1414120   5.861   7.720   8.467  0.2127  0.3131 -0.9052
  107CHL1   H1414121   5.780   7.653   8.432 -0.3284 -0.4454  1.6163
  107CHL1   C1514122   5.975   7.709   8.369  0.1194  0.4469 -0.1241
  107CHL1  H15A14123   6.073   7.745   8.407  0.3307 -0.3755  0.1238
  107CHL1  H15B14124   6.000   7.604   8.344  1.0904  0.6194  0.0618
  107CHL1   C1614125   5.931   7.801   8.248 -0.0077 -0.0743 -0.1712
  107CHL1  H16A14126   6.013   7.868   8.215  1.0968 -1.5835 -0.5965
  107CHL1  H16B14127   5.903   7.745   8.156 -2.1815 -1.1373  1.0581
  107CHL1   C1714128   5.807   7.876   8.303  0.5840 -0.6175  0.9962
  107CHL1   H1714129   5.715   7.818   8.278 -1.4864  2.5094  0.8727
  107CHL1   C1314130   5.820   7.867   8.460  0.2568  0.0995  0.6071
  107CHL1   C1814131   5.930   7.971   8.493  0.6367  0.3749 -0.2866
  107CHL1  H18A14132   5.980   7.944   8.589 -1.3119  1.2820  1.0363
  107CHL1  H18B14133   6.002   7.977   8.409  2.6257 -1.7896  1.1231
  107CHL1  H18C14134   5.887   8.073   8.484  3.2775  1.4590 -1.8277
  107CHL1   C1214135   5.691   7.878   8.547 -0.8502  0.6266 -1.0704
  107CHL1  H12A14136   5.660   7.985   8.549 -0.0581  0.8901 -1.9197
  107CHL1  H12B14137   5.606   7.816   8.510 -0.2788 -0.2703 -0.8932
  107CHL1   C1114138   5.722   7.844   8.695  0.4714  0.1566  0.7209
  107CHL1  H11A14139   5.792   7.923   8.730  0.8915 -1.0937  2.8945
  107CHL1  H11B14140   5.632   7.862   8.757  0.1408 -0.5099  0.4478
  107CHL1    C914141   5.783   7.710   8.708 -0.3050  0.0258 -0.1621
  107CHL1    H914142   5.696   7.647   8.676  0.2600 -0.9662  0.1920
  107CHL1   C1014143   5.820   7.672   8.854  0.0031  0.0261 -0.7490
  107CHL1   C1914144   5.920   7.777   8.907 -0.3484 -0.3653 -0.2560
  107CHL1  H19A14145   6.014   7.762   8.850 -0.6930 -1.8898 -0.4758
  107CHL1  H19B14146   5.897   7.883   8.881 -0.6853 -0.3682  0.0186
  107CHL1  H19C14147   5.940   7.772   9.016 -0.1634 -0.6122 -0.3010
  107CHL1    C114148   5.683   7.674   8.936  0.7065  0.0840 -0.6373
  107CHL1   H1A14149   5.647   7.778   8.948  1.5746  0.0903  3.7422
  107CHL1   H1B14150   5.606   7.620   8.877 -0.7482  0.9036  0.4508
  107CHL1    C214151   5.687   7.601   9.069 -0.3711  0.3299 -0.1031
  107CHL1   H2A14152   5.588   7.596   9.119 -0.0851 -0.9936  0.3542
  107CHL1   H2B14153   5.744   7.670   9.136  2.3614 -1.8078 -0.0708
  107CHL1   C2014154   5.804   8.023   8.243  0.3333 -0.1551  0.4231
  107CHL1   H2014155   5.884   8.092   8.279  0.3393  0.1274 -0.1209
  107CHL1   C2114156   5.677   8.100   8.282  0.0923 -0.5573  0.7083
  107CHL1  H21A14157   5.672   8.203   8.241  0.7162 -1.3427 -1.4947
  107CHL1  H21B14158   5.675   8.116   8.392  0.1695 -0.7487  0.7363
  107CHL1  H21C14159   5.583   8.050   8.250  0.3651 -0.2987 -0.5683
  107CHL1   C2214160   5.818   8.026   8.094  0.2321 -0.5240  0.4425
  107CHL1  H22A14161   5.815   8.132   8.061 -0.2530  0.5522  3.5470
  107CHL1  H22B14162   5.918   7.988   8.064 -0.7304 -3.7562  0.9553
  107CHL1   C2314163   5.710   7.949   8.014  0.0259  0.8142 -0.1054
  107CHL1  H23A14164   5.681   7.863   8.079 -0.1418  1.7076  1.0227
  107CHL1  H23B14165   5.619   8.013   8.019 -0.2123  0.7168 -2.3185
  107CHL1   C2414166   5.753   7.898   7.878  0.0007  0.0577  0.0276
  107CHL1  H24A14167   5.848   7.844   7.898  0.7602  0.2732 -2.6042
  107CHL1  H24B14168   5.693   7.822   7.824  0.7048 -0.0339 -0.6572
  107CHL1   C2514169   5.780   8.004   7.765 -0.6146 -0.0844 -0.1000
  107CHL1   H2514170   5.857   8.071   7.809 -0.0251 -0.1297 -1.0312
  107CHL1   C2614171   5.855   7.944   7.643  0.8906  0.3015  0.0792
  107CHL1  H26A14172   5.886   8.019   7.568 -0.2771 -0.7437 -1.5293
  107CHL1  H26B14173   5.954   7.899   7.666  1.0663  0.7475  0.2090
  107CHL1  H26C14174   5.788   7.873   7.590 -0.5073  1.0739  0.7677
  107CHL1   C2714175   5.648   8.069   7.728  0.5130 -0.4982 -0.3816
  107CHL1  H27A14176   5.572   7.998   7.688 -0.9777  0.0009  1.4500
  107CHL1  H27B14177   5.604   8.116   7.818 -1.3493 -0.1993 -1.4080
  107CHL1  H27C14178   5.668   8.156   7.662 -0.2900  1.5603  1.9693
  108CHL1    C314179   6.872   4.047   8.958 -0.5892  0.3244  0.0038
  108CHL1    H314180   6.978   4.071   8.938 -0.7510  0.4179 -0.7863
  108CHL1    O314181   6.860   3.970   9.071  0.3551  0.5089 -0.4387
  108CHL1   H3'14182   6.767   3.943   9.071  0.7415 -1.3326 -3.5438
  108CHL1    C414183   6.792   4.181   8.978 -0.6703 -0.4057 -0.2688
  108CHL1   H4A14184   6.690   4.158   9.016 -0.0186 -1.7806  0.7439
  108CHL1   H4B14185   6.841   4.236   9.062  2.9415  0.5006 -2.6900
  108CHL1    C514186   6.778   4.272   8.850 -0.1615  0.3903 -0.7679
  108CHL1    C614187   6.807   4.405   8.855  0.0772  0.7810  0.1879
  108CHL1    H614188   6.841   4.449   8.950 -0.4687  0.3618  0.5772
  108CHL1    C714189   6.789   4.495   8.738  0.6288  0.4457  1.1141
  108CHL1   H7A14190   6.721   4.580   8.760  0.4065  0.3449  0.8281
  108CHL1   H7B14191   6.888   4.517   8.692  0.7761 -2.4149 -0.2031
  108CHL1    C814192   6.707   4.422   8.617 -0.5970 -0.4160  0.5628
  108CHL1    H814193   6.598   4.433   8.636 -0.9527  2.2190 -2.2159
  108CHL1   C1414194   6.740   4.490   8.477 -1.5917  0.1698 -0.3923
  108CHL1   H1414195   6.850   4.476   8.464 -1.2233 -1.4145  3.2740
  108CHL1   C1514196   6.722   4.647   8.472 -0.1004 -0.6525 -0.0959
  108CHL1  H15A14197   6.622   4.669   8.513  0.1223  0.3933 -0.0810
  108CHL1  H15B14198   6.800   4.702   8.529  0.3149 -0.0033 -1.2593
  108CHL1   C1614199   6.724   4.675   8.323  0.0438  0.4717  0.8657
  108CHL1  H16A14200   6.631   4.733   8.304 -0.2832 -0.6252 -1.1527
  108CHL1  H16B14201   6.819   4.723   8.292 -0.2285  0.9483  0.7660
  108CHL1   C1714202   6.712   4.531   8.251 -0.1650  0.0031 -0.1071
  108CHL1   H1714203   6.815   4.498   8.224 -0.2155 -0.8008  0.6374
  108CHL1   C1314204   6.664   4.437   8.361 -0.2331 -0.1118 -0.6701
  108CHL1   C1814205   6.511   4.457   8.382 -0.2103  0.5476 -0.4585
  108CHL1  H18A14206   6.459   4.394   8.306  0.1624 -0.1460 -0.1523
  108CHL1  H18B14207   6.483   4.414   8.481 -0.0754 -1.5065 -1.2507
  108CHL1  H18C14208   6.489   4.566   8.380 -0.3228  0.5149 -0.9952
  108CHL1   C1214209   6.712   4.288   8.350  0.7233  0.6812  0.2798
  108CHL1  H12A14210   6.664   4.240   8.262  1.5380 -0.1534  0.2797
  108CHL1  H12B14211   6.816   4.279   8.313  0.1234 -0.0159 -1.3244
  108CHL1   C1114212   6.691   4.209   8.476  0.3812  0.4276  0.2348
  108CHL1  H11A14213   6.581   4.203   8.492  0.1936  3.0639  0.4347
  108CHL1  H11B14214   6.733   4.107   8.468  0.8573  0.5558  1.0001
  108CHL1    C914215   6.751   4.274   8.602 -0.0673  0.5080  0.4432
  108CHL1    H914216   6.861   4.278   8.586  0.1493 -0.0652  1.7387
  108CHL1   C1014217   6.723   4.195   8.728 -0.0987 -0.3427 -0.0579
  108CHL1   C1914218   6.575   4.162   8.756  0.5255  0.1977 -0.0229
  108CHL1  H19A14219   6.526   4.120   8.666 -0.1980  0.1070  0.4001
  108CHL1  H19B14220   6.554   4.096   8.843 -1.3579  0.7185 -0.0400
  108CHL1  H19C14221   6.525   4.261   8.771 -2.1322 -1.2640  1.4995
  108CHL1    C114222   6.801   4.058   8.715  0.5133  0.8776  0.1457
  108CHL1   H1A14223   6.770   3.989   8.634 -1.1044  0.1020  1.3592
  108CHL1   H1B14224   6.905   4.084   8.687  0.4353  1.1990  0.1421
  108CHL1    C214225   6.809   3.974   8.840  0.5844  0.5451 -0.3883
  108CHL1   H2A14226   6.874   3.888   8.812  0.1926 -0.0093  0.3582
  108CHL1   H2B14227   6.712   3.930   8.870 -0.1015  1.3467 -1.3893
  108CHL1   C2014228   6.632   4.546   8.124 -0.0265 -0.1666 -0.4923
  108CHL1   H2014229   6.526   4.572   8.144  0.3769  1.5181 -0.4237
  108CHL1   C2114230   6.637   4.413   8.044 -0.5357  0.0665  0.5653
  108CHL1  H21A14231   6.741   4.379   8.027 -0.9716 -2.2451  2.0306
  108CHL1  H21B14232   6.586   4.430   7.947  1.4622  0.2218 -0.5024
  108CHL1  H21C14233   6.582   4.332   8.097 -2.5057 -0.1537 -1.6474
  108CHL1   C2214234   6.672   4.663   8.021 -0.3758 -0.5215 -0.4757
  108CHL1  H22A14235   6.613   4.644   7.930 -0.9633  0.8163 -0.3986
  108CHL1  H22B14236   6.638   4.757   8.070  0.5486 -0.3922 -0.0586
  108CHL1   C2314237   6.819   4.687   7.985  0.5497  0.5109 -0.3887
  108CHL1  H23A14238   6.893   4.678   8.068  0.7678  0.9739 -0.5315
  108CHL1  H23B14239   6.855   4.601   7.924  0.0382 -1.1686  1.5387
  108CHL1   C2414240   6.833   4.807   7.896  0.0875  0.3046 -0.1646
  108CHL1  H24A14241   6.770   4.784   7.807  0.4751 -3.9724  0.4540
  108CHL1  H24B14242   6.807   4.900   7.951 -0.3694 -0.5616  1.1157
  108CHL1   C2514243   6.977   4.829   7.856  0.3117 -0.0733  0.1416
  108CHL1   H2514244   7.016   4.728   7.830  0.5596 -0.0624  0.4573
  108CHL1   C2614245   6.972   4.921   7.728  0.3557 -0.2044 -0.3795
  108CHL1  H26A14246   6.907   5.007   7.755  1.7852  0.4751  1.1582
  108CHL1  H26B14247   7.072   4.959   7.696 -0.0501 -1.1817 -3.0784
  108CHL1  H26C14248   6.925   4.874   7.639 -2.2201  0.8410  0.3451
  108CHL1   C2714249   7.077   4.882   7.953  0.0701  0.3160 -0.2860
  108CHL1  H27A14250   7.164   4.926   7.899  1.0051 -0.4124  0.5812
  108CHL1  H27B14251   7.029   4.963   8.012  0.8130  0.0362  0.7323
  108CHL1  H27C14252   7.119   4.808   8.025  0.8155 -0.3892 -1.4034
  109CHL1    C314253   3.080   8.527   8.794 -0.4066  0.1763  0.6473
  109CHL1    H314254   3.025   8.587   8.718 -0.0616  1.3615  1.3134
  109CHL1    O314255   3.051   8.584   8.919  0.3794  0.2264  0.3965
  109CHL1   H3'14256   3.124   8.647   8.922  0.9850 -0.4188 -0.2566
  109CHL1    C414257   3.015   8.383   8.793 -0.2464 -0.6920  0.5905
  109CHL1   H4A14258   3.058   8.315   8.870 -0.1602  0.1842  1.3273
  109CHL1   H4B14259   2.906   8.397   8.808 -0.0948  2.3921 -0.5620
  109CHL1    C514260   3.031   8.316   8.663  0.3983 -0.0758  0.2854
  109CHL1    C614261   2.927   8.281   8.587  0.5704 -0.3558  0.5494
  109CHL1    H614262   2.825   8.293   8.628  0.9520  0.3895  1.2975
  109CHL1    C714263   2.941   8.221   8.447  0.0580  0.2709  0.4641
  109CHL1   H7A14264   2.857   8.149   8.431 -0.3885  1.1656 -1.4039
  109CHL1   H7B14265   2.927   8.297   8.368 -1.3246 -0.8300 -0.4132
  109CHL1    C814266   3.086   8.167   8.423  0.6128  0.5368  0.8480
  109CHL1    H814267   3.111   8.074   8.480 -0.6849 -1.6095 -1.8800
  109CHL1   C1414268   3.105   8.122   8.277 -0.1912  0.2802 -0.5608
  109CHL1   H1414269   3.071   8.203   8.209 -1.3017  0.8449  0.6238
  109CHL1   C1514270   3.003   8.009   8.234 -0.2362  0.1779 -0.2805
  109CHL1  H15A14271   2.999   7.929   8.311 -2.1878 -0.4367 -0.9459
  109CHL1  H15B14272   2.898   8.044   8.220 -0.5865 -0.8076 -0.1711
  109CHL1   C1614273   3.078   7.955   8.104 -0.3538 -0.3797 -0.1102
  109CHL1  H16A14274   3.096   7.848   8.131 -0.5581 -0.9945 -2.2341
  109CHL1  H16B14275   3.031   7.964   8.004 -0.4605 -2.9075 -0.3518
  109CHL1   C1714276   3.219   8.026   8.100  0.4617 -0.1099 -0.8483
  109CHL1   H1714277   3.212   8.118   8.040  2.9166  0.1411 -0.8754
  109CHL1   C1314278   3.245   8.071   8.246 -0.1495  0.1081 -0.3283
  109CHL1   C1814279   3.286   7.949   8.337  0.0040 -0.9239  0.1202
  109CHL1  H18A14280   3.306   7.985   8.440 -0.4745  0.5317 -0.2651
  109CHL1  H18B14281   3.202   7.878   8.351 -1.6629  0.7273 -0.9087
  109CHL1  H18C14282   3.382   7.900   8.310 -1.6156 -4.2144 -0.1807
  109CHL1   C1214283   3.339   8.196   8.256  0.0001  0.0658  0.1502
  109CHL1  H12A14284   3.441   8.157   8.239  0.0368 -0.2628  1.0593
  109CHL1  H12B14285   3.304   8.269   8.181 -0.3828  2.8116  2.8321
  109CHL1   C1114286   3.334   8.254   8.401 -0.8722  0.6306  0.2362
  109CHL1  H11A14287   3.405   8.197   8.464 -0.8067  0.2533 -0.1745
  109CHL1  H11B14288   3.372   8.358   8.402  0.2898  0.2853 -2.0899
  109CHL1    C914289   3.189   8.279   8.463  0.2148  0.4493 -0.0146
  109CHL1    H914290   3.150   8.358   8.397 -0.3773 -0.2493 -0.5105
  109CHL1   C1014291   3.182   8.318   8.610 -0.0718  0.3458  0.5928
  109CHL1   C1914292   3.259   8.211   8.703  0.8100 -0.5953 -0.0980
  109CHL1  H19A14293   3.234   8.105   8.682 -1.0510 -0.2033 -0.0910
  109CHL1  H19B14294   3.370   8.221   8.699  0.9184 -1.7474 -0.1094
  109CHL1  H19C14295   3.227   8.227   8.808  0.9043 -1.0436 -0.0009
  109CHL1    C114296   3.245   8.462   8.629 -0.3067  0.8585  0.1800
  109CHL1   H1A14297   3.353   8.453   8.606 -0.6271 -0.2700 -1.0299
  109CHL1   H1B14298   3.212   8.527   8.545 -0.6207  1.0704  0.4623
  109CHL1    C214299   3.235   8.524   8.767  0.7722 -0.4288 -0.1504
  109CHL1   H2A14300   3.272   8.629   8.776 -0.8461  0.2880 -1.2737
  109CHL1   H2B14301   3.288   8.454   8.834  0.0907 -1.1185 -0.3271
  109CHL1   C2014302   3.311   7.924   8.031  0.1307  0.8565 -1.1720
  109CHL1   H2014303   3.311   7.826   8.085  2.0310  1.4693  0.0275
  109CHL1   C2114304   3.459   7.976   8.043  0.2465  0.0344  0.1942
  109CHL1  H21A14305   3.521   7.915   7.973  1.6286  1.3166  0.2373
  109CHL1  H21B14306   3.501   7.979   8.146 -1.4734  0.4776  0.9031
  109CHL1  H21C14307   3.465   8.081   8.008 -1.9107 -0.0674 -0.6121
  109CHL1   C2214308   3.269   7.895   7.886  0.0656  0.2230 -0.6437
  109CHL1  H22A14309   3.163   7.890   7.855  0.5052  2.4797 -2.8178
  109CHL1  H22B14310   3.310   7.963   7.808 -0.3474  0.7817 -0.3787
  109CHL1   C2314311   3.301   7.747   7.854 -0.7257 -0.1194  0.2438
  109CHL1  H23A14312   3.409   7.735   7.875 -0.6231 -0.0160 -0.2183
  109CHL1  H23B14313   3.252   7.679   7.928 -0.3725 -0.5533  0.0856
  109CHL1   C2414314   3.268   7.702   7.711  0.0344 -0.0027 -0.0771
  109CHL1  H24A14315   3.296   7.595   7.701 -1.0274 -0.1892 -1.3967
  109CHL1  H24B14316   3.157   7.708   7.704 -0.2108 -2.3445  0.7595
  109CHL1   C2514317   3.340   7.780   7.598 -0.6589 -0.5225 -0.4214
  109CHL1   H2514318   3.295   7.882   7.599  0.4544  0.0385 -2.3351
  109CHL1   C2614319   3.489   7.799   7.610  0.7874 -0.1017  0.5441
  109CHL1  H26A14320   3.539   7.707   7.646 -0.0571 -0.5505  0.5714
  109CHL1  H26B14321   3.530   7.824   7.510  0.7665 -1.3790  0.1996
  109CHL1  H26C14322   3.514   7.877   7.685  2.4098 -0.1411  0.0879
  109CHL1   C2714323   3.304   7.725   7.461 -0.5226 -0.0376 -0.6843
  109CHL1  H27A14324   3.354   7.788   7.386 -0.4558  1.0018  0.2082
  109CHL1  H27B14325   3.333   7.618   7.456  2.3250  0.4821  1.8069
  109CHL1  H27C14326   3.194   7.737   7.449 -0.6873 -2.4476 -2.2878
  110CHL1    C314327   2.438   7.860   9.106  0.5178  1.2385 -0.2978
  110CHL1    H314328   2.339   7.830   9.065  1.1392 -3.9140  1.2799
  110CHL1    O314329   2.445   7.993   9.164 -0.0696 -0.0739  0.4212
  110CHL1   H3'14330   2.399   8.051   9.102  2.9599  1.6217 -0.4452
  110CHL1    C414331   2.481   7.752   9.209 -0.2290 -0.4123 -0.4564
  110CHL1   H4A14332   2.575   7.784   9.258 -0.3174 -0.8216 -0.0117
  110CHL1   H4B14333   2.416   7.761   9.299  1.5932  0.5178  0.8315
  110CHL1    C514334   2.487   7.613   9.157 -0.0465  0.8288 -0.5648
  110CHL1    C614335   2.414   7.509   9.210 -0.0594  0.6414 -0.6569
  110CHL1    H614336   2.353   7.529   9.299 -0.8510 -2.1352 -0.4918
  110CHL1    C714337   2.415   7.372   9.153  0.1121  0.0822 -1.0822
  110CHL1   H7A14338   2.418   7.304   9.240  0.1667  3.2260  1.5768
  110CHL1   H7B14339   2.312   7.351   9.116 -1.2060  0.4174  2.0489
  110CHL1    C814340   2.524   7.344   9.039 -0.0796 -0.1012  0.0844
  110CHL1    H814341   2.622   7.321   9.086 -0.3369 -3.4479 -0.7094
  110CHL1   C1414342   2.488   7.224   8.951 -0.4680  0.5889  0.3004
  110CHL1   H1414343   2.392   7.243   8.899 -1.2901 -1.1213  1.0937
  110CHL1   C1514344   2.465   7.089   9.029 -0.6633 -0.1638  0.4606
  110CHL1  H15A14345   2.540   7.082   9.111  2.5376 -1.1912 -2.3119
  110CHL1  H15B14346   2.362   7.079   9.068 -0.4439 -2.3217  0.5618
  110CHL1   C1614347   2.480   6.982   8.919 -0.3757  0.4065  0.7666
  110CHL1  H16A14348   2.544   6.905   8.967 -1.3659 -1.0733 -0.1899
  110CHL1  H16B14349   2.388   6.945   8.870  0.1407 -1.5707  1.2200
  110CHL1   C1714350   2.544   7.062   8.798 -0.2850  0.4946 -0.0522
  110CHL1   H1714351   2.456   7.085   8.735  0.0185 -0.2884 -0.7788
  110CHL1   C1314352   2.596   7.195   8.846 -0.1220 -0.5291  0.4510
  110CHL1   C1814353   2.742   7.164   8.903 -0.5060  0.4527 -0.1932
  110CHL1  H18A14354   2.778   7.249   8.965  0.8979  0.5241 -1.0675
  110CHL1  H18B14355   2.752   7.062   8.945 -2.9704  0.2395  0.0441
  110CHL1  H18C14356   2.813   7.157   8.818 -0.3443 -0.5526  0.0180
  110CHL1   C1214357   2.604   7.311   8.745  0.4697 -0.0330  0.0500
  110CHL1  H12A14358   2.698   7.299   8.687 -0.5462  0.6815 -1.8247
  110CHL1  H12B14359   2.522   7.318   8.671 -0.0034  0.5393  0.6112
  110CHL1   C1114360   2.627   7.444   8.823  0.5570 -0.5462 -0.0042
  110CHL1  H11A14361   2.733   7.441   8.857  0.3669  1.7809  0.9633
  110CHL1  H11B14362   2.630   7.530   8.753  0.8805  0.7527  1.5565
  110CHL1    C914363   2.534   7.469   8.948  0.2608 -0.2800 -0.3280
  110CHL1    H914364   2.431   7.473   8.907  0.1859 -2.7787 -0.5790
  110CHL1   C1014365   2.568   7.598   9.023  0.5076 -0.7051  0.5585
  110CHL1   C1914366   2.716   7.604   9.066 -0.1374 -0.2958 -0.4723
  110CHL1  H19A14367   2.779   7.605   8.975 -2.4283  1.9233 -2.1713
  110CHL1  H19B14368   2.737   7.694   9.128 -2.3313  1.1463 -1.6801
  110CHL1  H19C14369   2.739   7.519   9.133  0.0405  1.5418  1.9126
  110CHL1    C114370   2.545   7.715   8.921 -0.0175 -0.0871 -0.1673
  110CHL1   H1A14371   2.627   7.714   8.846 -1.0012  0.5623 -1.2707
  110CHL1   H1B14372   2.452   7.694   8.864 -1.5657  1.2733  1.7261
  110CHL1    C214373   2.541   7.857   8.993  0.7138  0.2268  0.8207
  110CHL1   H2A14374   2.522   7.933   8.914  0.9781 -1.6426 -1.1390
  110CHL1   H2B14375   2.637   7.879   9.042  0.8955 -1.2151  1.1652
  110CHL1   C2014376   2.634   6.965   8.710 -0.3959 -0.1457  0.4174
  110CHL1   H2014377   2.721   6.923   8.766  0.7639 -2.6013 -2.9276
  110CHL1   C2114378   2.695   7.047   8.595 -0.2548 -0.0754  0.6257
  110CHL1  H21A14379   2.741   6.975   8.523  0.0701  0.4969  0.2557
  110CHL1  H21B14380   2.774   7.121   8.619  1.2927 -0.9853 -1.3772
  110CHL1  H21C14381   2.608   7.093   8.544 -0.2289 -0.1645  0.4992
  110CHL1   C2214382   2.547   6.847   8.649 -0.3492  0.6950 -0.1767
  110CHL1  H22A14383   2.526   6.781   8.735 -0.4484  0.9060 -0.0392
  110CHL1  H22B14384   2.447   6.877   8.610 -0.4464 -0.2825 -0.6938
  110CHL1   C2314385   2.626   6.758   8.541 -0.1899  0.5932 -0.4931
  110CHL1  H23A14386   2.644   6.803   8.441  0.3111 -0.5491 -0.9455
  110CHL1  H23B14387   2.720   6.725   8.591 -1.5943 -1.9438  0.6561
  110CHL1   C2414388   2.542   6.632   8.513 -0.4758 -0.3532  0.4487
  110CHL1  H24A14389   2.493   6.585   8.601 -0.7527 -0.9974 -0.0416
  110CHL1  H24B14390   2.443   6.649   8.465 -0.3558  1.7672  0.8557
  110CHL1   C2514391   2.611   6.521   8.442 -0.3773  0.5906  0.6167
  110CHL1   H2514392   2.698   6.500   8.508 -2.7481 -1.6525  3.2701
  110CHL1   C2614393   2.533   6.387   8.447 -0.1434  0.4398 -0.0826
  110CHL1  H26A14394   2.530   6.347   8.551 -0.0116  0.1649 -0.1862
  110CHL1  H26B14395   2.430   6.411   8.415 -0.0964 -0.1927 -0.7057
  110CHL1  H26C14396   2.579   6.312   8.380  1.0431  1.2054 -0.1639
  110CHL1   C2714397   2.665   6.555   8.300  0.5987  0.0449  0.3621
  110CHL1  H27A14398   2.696   6.463   8.246 -0.2567  0.4366 -0.8291
  110CHL1  H27B14399   2.584   6.605   8.243  0.2436 -0.5478  0.3409
  110CHL1  H27C14400   2.750   6.626   8.310  1.5725 -1.0541  0.1222
  111CHL1    C314401   3.781   7.739   9.165  0.1255 -0.5382  0.4935
  111CHL1    H314402   3.858   7.819   9.168 -1.3607  0.9087  3.2062
  111CHL1    O314403   3.728   7.758   9.293 -0.6577  0.1047 -0.5290
  111CHL1   H3'14404   3.689   7.845   9.304 -1.3123 -0.1308 -0.9174
  111CHL1    C414405   3.679   7.751   9.058  0.5447  0.7789  0.3850
  111CHL1   H4A14406   3.591   7.687   9.082 -1.0458  2.3252 -1.0525
  111CHL1   H4B14407   3.634   7.852   9.051  0.7434  0.7489 -3.1541
  111CHL1    C514408   3.733   7.713   8.919  0.0331 -0.0477  0.0270
  111CHL1    C614409   3.719   7.806   8.819 -0.3372 -0.5732 -0.2359
  111CHL1    H614410   3.670   7.904   8.832  0.4958 -0.4187  2.3313
  111CHL1    C714411   3.779   7.788   8.685 -0.2520  0.4919  0.5649
  111CHL1   H7A14412   3.712   7.816   8.600  0.2150 -0.4437 -0.1341
  111CHL1   H7B14413   3.871   7.846   8.665  0.4294 -0.7348  0.0473
  111CHL1    C814414   3.817   7.639   8.659  0.2909  0.4114  0.7295
  111CHL1    H814415   3.720   7.588   8.642  0.8059 -0.4531  0.3398
  111CHL1   C1414416   3.904   7.626   8.522 -0.1408  0.2348 -0.4587
  111CHL1   H1414417   4.007   7.660   8.547 -1.2779  2.1630  2.0788
  111CHL1   C1514418   3.866   7.713   8.398  0.1046 -0.2248 -0.0538
  111CHL1  H15A14419   3.755   7.719   8.393  0.2317  1.8665 -1.8589
  111CHL1  H15B14420   3.915   7.812   8.403 -0.8941  0.2947 -0.2133
  111CHL1   C1614421   3.921   7.635   8.279 -0.1793 -0.2462 -0.1439
  111CHL1  H16A14422   3.840   7.607   8.208 -1.4762 -0.9375  1.5313
  111CHL1  H16B14423   4.000   7.686   8.220  0.4832  0.4663  1.3100
  111CHL1   C1714424   3.995   7.512   8.346  0.1058 -0.3989  0.3786
  111CHL1   H1714425   4.096   7.547   8.376 -0.3808  0.0968  1.4733
  111CHL1   C1314426   3.920   7.488   8.481 -0.2968  0.2099  0.2054
  111CHL1   C1814427   3.788   7.424   8.450 -0.3362 -0.0271  0.3833
  111CHL1  H18A14428   3.800   7.318   8.420 -2.0775 -0.6498  1.7205
  111CHL1  H18B14429   3.713   7.417   8.532  1.4652 -0.6306  2.0598
  111CHL1  H18C14430   3.733   7.478   8.371  1.6132  2.4817  0.5913
  111CHL1   C1214431   3.995   7.410   8.587  0.3515 -0.0340 -0.3834
  111CHL1  H12A14432   4.006   7.302   8.561 -3.2177 -1.2525  2.4291
  111CHL1  H12B14433   4.096   7.455   8.598  0.7587 -1.4613  2.8737
  111CHL1   C1114434   3.929   7.421   8.731  0.4127 -0.6117 -0.0178
  111CHL1  H11A14435   3.830   7.371   8.725 -0.2453  0.7293 -0.7465
  111CHL1  H11B14436   3.994   7.367   8.803  0.8564 -2.1124 -1.4488
  111CHL1    C914437   3.898   7.568   8.768 -0.4287  0.2719  0.0466
  111CHL1    H914438   3.998   7.617   8.777  0.2514 -1.0175 -0.2301
  111CHL1   C1014439   3.818   7.586   8.904  0.1088 -0.0184 -0.5777
  111CHL1   C1914440   3.703   7.486   8.925 -0.1343  0.7185  0.7522
  111CHL1  H19A14441   3.630   7.501   8.842  0.0662  1.0703  0.6339
  111CHL1  H19B14442   3.755   7.388   8.930  0.8308  1.0966 -0.9782
  111CHL1  H19C14443   3.653   7.495   9.023  1.7243 -2.4808  2.1377
  111CHL1    C114444   3.920   7.577   9.027  0.4191 -0.7439  0.1623
  111CHL1   H1A14445   3.978   7.482   9.027 -0.3158 -1.2008 -0.2227
  111CHL1   H1B14446   4.001   7.651   9.010 -0.6034  0.4767  0.4131
  111CHL1    C214447   3.855   7.601   9.164  0.2555  0.7104 -0.0521
  111CHL1   H2A14448   3.938   7.603   9.238  1.3941 -1.3177 -1.1889
  111CHL1   H2B14449   3.784   7.520   9.191  0.8318  0.2422  0.0803
  111CHL1   C2014450   4.006   7.391   8.246  0.0964  0.5825  0.1974
  111CHL1   H2014451   3.928   7.314   8.268  1.4886 -0.5579  1.3987
  111CHL1   C2114452   4.140   7.331   8.286  0.6044  0.3634  0.3712
  111CHL1  H21A14453   4.147   7.313   8.396 -1.3942 -1.0914  0.3153
  111CHL1  H21B14454   4.226   7.390   8.248 -0.0610  0.0284 -1.7604
  111CHL1  H21C14455   4.155   7.233   8.236  0.4050  1.5071 -2.0559
  111CHL1   C2214456   4.000   7.421   8.090  0.3846 -0.1941 -0.0336
  111CHL1  H22A14457   3.897   7.450   8.058  0.3680 -0.8789 -0.6136
  111CHL1  H22B14458   4.069   7.503   8.062 -0.0606  0.2992  0.2861
  111CHL1   C2314459   4.037   7.299   8.003 -0.1409 -0.0488 -0.0242
  111CHL1  H23A14460   4.056   7.342   7.902 -0.6218  0.3561  0.0549
  111CHL1  H23B14461   4.136   7.256   8.031 -0.0046 -0.7096 -1.4419
  111CHL1   C2414462   3.934   7.189   7.997  0.1599  0.7007 -0.0908
  111CHL1  H24A14463   3.930   7.121   8.085  0.4284 -0.0062 -0.6132
  111CHL1  H24B14464   3.836   7.239   7.979  1.2762  2.6557 -0.9979
  111CHL1   C2514465   3.982   7.092   7.886 -0.1573  0.0738  0.5052
  111CHL1   H2514466   4.082   7.132   7.858 -1.1696  1.7499 -0.8551
  111CHL1   C2614467   3.994   6.944   7.930 -0.5047 -0.3016  0.2854
  111CHL1  H26A14468   4.023   6.886   7.840 -0.6183  0.8751 -0.5341
  111CHL1  H26B14469   4.081   6.933   7.998 -0.2293 -0.1602 -0.0458
  111CHL1  H26C14470   3.901   6.910   7.980 -0.6085  0.5457  0.6967
  111CHL1   C2714471   3.885   7.103   7.765 -0.2286  0.7537  0.0620
  111CHL1  H27A14472   3.892   7.018   7.694  0.1790 -0.9632  2.0708
  111CHL1  H27B14473   3.783   7.104   7.808  0.5435  0.8226  1.9964
  111CHL1  H27C14474   3.913   7.193   7.705  3.8483  0.4122  1.1597
  112CHL1    C314475   5.334   1.533   8.814 -0.0933  0.6379  0.1956
  112CHL1    H314476   5.286   1.630   8.786  1.1850  0.4113 -3.2747
  112CHL1    O314477   5.292   1.492   8.940  0.2946 -0.4636 -0.0353
  112CHL1   H3'14478   5.357   1.426   8.966  2.0020  1.9545  2.3568
  112CHL1    C414479   5.292   1.418   8.715  0.0505  0.8742  0.7182
  112CHL1   H4A14480   5.325   1.321   8.757 -0.0722  0.1962 -0.6712
  112CHL1   H4B14481   5.181   1.418   8.713  0.0040 -1.3770  0.0776
  112CHL1    C514482   5.344   1.433   8.575 -0.2520 -0.7854  1.4217
  112CHL1    C614483   5.259   1.431   8.472  0.2517 -0.2910  0.0202
  112CHL1    H614484   5.151   1.426   8.489  0.1964  3.3201  1.6595
  112CHL1    C714485   5.298   1.443   8.323  0.3022  0.6022 -0.2847
  112CHL1   H7A14486   5.254   1.369   8.253  1.2983  0.4829 -0.7999
  112CHL1   H7B14487   5.265   1.547   8.300  0.7578  1.0420  0.9662
  112CHL1    C814488   5.454   1.431   8.310 -0.3787 -0.0068 -0.7838
  112CHL1    H814489   5.478   1.323   8.302 -1.2214 -0.1243 -2.0520
  112CHL1   C1414490   5.496   1.497   8.178  0.2062  0.2537  0.0291
  112CHL1   H1414491   5.478   1.605   8.196 -0.1641  0.3575 -0.9005
  112CHL1   C1514492   5.411   1.457   8.059 -0.1604 -0.0340  0.9050
  112CHL1  H15A14493   5.373   1.354   8.073 -1.2760  0.6735  3.9285
  112CHL1  H15B14494   5.327   1.530   8.058  1.8112  2.4261  1.9546
  112CHL1   C1614495   5.507   1.474   7.935  0.4826  0.7326 -1.0144
  112CHL1  H16A14496   5.517   1.367   7.906  2.1115 -0.2257  2.5455
  112CHL1  H16B14497   5.455   1.540   7.862 -0.5166  0.3019 -0.7139
  112CHL1   C1714498   5.638   1.530   7.995 -0.1081 -0.1714  0.1652
  112CHL1   H1714499   5.616   1.638   8.002  0.4312 -0.1732  2.9200
  112CHL1   C1314500   5.643   1.483   8.139  0.4613 -0.1512  0.1191
  112CHL1   C1814501   5.673   1.331   8.130 -0.1254 -0.1202  0.8287
  112CHL1  H18A14502   5.775   1.304   8.094 -0.1252 -1.8721  2.0043
  112CHL1  H18B14503   5.653   1.293   8.233  0.2634 -0.7931  0.6626
  112CHL1  H18C14504   5.603   1.279   8.061  1.5511 -0.5090 -0.6705
  112CHL1   C1214505   5.723   1.553   8.248  0.0085  0.3015 -0.0504
  112CHL1  H12A14506   5.830   1.532   8.227  0.7418  1.9129  1.7376
  112CHL1  H12B14507   5.695   1.660   8.238  2.3338  1.1486  1.6169
  112CHL1   C1114508   5.687   1.511   8.392 -0.5400 -0.6691  0.0132
  112CHL1  H11A14509   5.739   1.414   8.407 -0.1093 -0.9388 -2.6919
  112CHL1  H11B14510   5.743   1.584   8.454 -0.0782  0.0662 -1.2259
  112CHL1    C914511   5.539   1.503   8.426 -0.1601 -0.0469  0.5113
  112CHL1    H914512   5.513   1.611   8.424 -1.5572 -0.2152  3.9211
  112CHL1   C1014513   5.497   1.461   8.567 -0.0999 -0.0991 -0.3682
  112CHL1   C1914514   5.580   1.334   8.609  0.3214 -0.6295 -0.2578
  112CHL1  H19A14515   5.595   1.280   8.513  0.9035  1.0085 -1.1231
  112CHL1  H19B14516   5.674   1.365   8.659 -0.6743 -0.0683  1.3277
  112CHL1  H19C14517   5.523   1.267   8.677  1.2052 -1.1515 -0.0163
  112CHL1    C114518   5.540   1.575   8.671  0.4807 -0.5119 -0.8616
  112CHL1   H1A14519   5.651   1.578   8.675  0.4338 -0.1027  1.1109
  112CHL1   H1B14520   5.502   1.670   8.628 -0.9900 -0.8619 -0.4153
  112CHL1    C214521   5.487   1.549   8.810 -0.1577 -0.4592 -0.0990
  112CHL1   H2A14522   5.513   1.630   8.882 -1.2365 -1.9135  2.0186
  112CHL1   H2B14523   5.528   1.454   8.850 -0.0249 -0.7425 -0.8828
  112CHL1   C2014524   5.770   1.512   7.916  0.5469 -0.4232 -0.0500
  112CHL1   H2014525   5.839   1.442   7.968 -1.0244 -1.6327  0.4684
  112CHL1   C2114526   5.839   1.648   7.931 -0.0539  0.0126  0.5165
  112CHL1  H21A14527   5.862   1.673   8.037 -2.7139 -1.6118  1.5716
  112CHL1  H21B14528   5.778   1.732   7.890  1.6156  1.2337  0.4340
  112CHL1  H21C14529   5.932   1.641   7.871 -0.6424 -0.7673 -0.3291
  112CHL1   C2214530   5.756   1.474   7.762  0.9156  0.0701 -0.4993
  112CHL1  H22A14531   5.851   1.420   7.741  1.7504  0.4279  1.9931
  112CHL1  H22B14532   5.675   1.400   7.749  0.3583  0.9205 -2.1616
  112CHL1   C2314533   5.724   1.581   7.654 -0.2172 -0.3013  0.0521
  112CHL1  H23A14534   5.665   1.665   7.696 -0.8148 -0.0794 -1.1931
  112CHL1  H23B14535   5.830   1.609   7.635  0.3275 -3.0539 -1.5992
  112CHL1   C2414536   5.645   1.525   7.534 -0.6971 -0.0204 -0.0527
  112CHL1  H24A14537   5.553   1.479   7.576 -1.7609  0.0254 -2.2028
  112CHL1  H24B14538   5.609   1.600   7.461  0.5494  0.0699 -0.5883
  112CHL1   C2514539   5.717   1.414   7.463  0.1482 -0.5750  0.0270
  112CHL1   H2514540   5.746   1.333   7.534  1.3802  0.4798  0.7643
  112CHL1   C2614541   5.623   1.356   7.351 -0.1821 -0.2735 -0.2497
  112CHL1  H26A14542   5.664   1.272   7.291  0.1620  1.2094 -2.2124
  112CHL1  H26B14543   5.532   1.324   7.406  0.5468 -0.7856  0.6629
  112CHL1  H26C14544   5.588   1.438   7.283 -0.5466  0.7030  1.0652
  112CHL1   C2714545   5.838   1.454   7.384 -0.2463  0.1134 -0.5844
  112CHL1  H27A14546   5.921   1.482   7.452  0.1262 -2.0688 -0.0635
  112CHL1  H27B14547   5.870   1.364   7.327 -0.4773 -1.1192  1.1472
  112CHL1  H27C14548   5.817   1.537   7.313 -0.0332  0.1227 -0.6368
  113CHL1    C314549   1.416   3.517   9.166 -0.3963 -0.5724  0.4987
  113CHL1    H314550   1.483   3.600   9.134  0.9132 -1.7661  0.0149
  113CHL1    O314551   1.399   3.520   9.308  0.6839  0.0284 -0.1705
  113CHL1   H3'14552   1.328   3.457   9.325 -1.0243  2.1670  1.1559
  113CHL1    C414553   1.283   3.535   9.090  0.6152  0.4057 -0.7930
  113CHL1   H4A14554   1.212   3.461   9.132  0.2510  1.1987  0.0139
  113CHL1   H4B14555   1.226   3.623   9.127 -0.6543 -1.1414  1.1454
  113CHL1    C514556   1.294   3.514   8.942 -0.4557  0.4766  0.3620
  113CHL1    C614557   1.254   3.604   8.850  0.3142 -0.0837  0.1981
  113CHL1    H614558   1.209   3.699   8.883  2.7313  1.0731  0.4255
  113CHL1    C714559   1.247   3.574   8.700 -0.2862 -0.3997  0.0712
  113CHL1   H7A14560   1.154   3.616   8.658  1.0110  1.8299 -0.7292
  113CHL1   H7B14561   1.332   3.629   8.655  0.3533 -1.2467  0.2088
  113CHL1    C814562   1.268   3.425   8.669 -0.4104  0.1139 -1.3586
  113CHL1    H814563   1.173   3.375   8.698  0.4160 -0.7310 -0.0217
  113CHL1   C1414564   1.306   3.404   8.524  0.3717 -0.9713 -0.2601
  113CHL1   H1414565   1.399   3.463   8.509 -1.0690  1.1703 -1.1299
  113CHL1   C1514566   1.212   3.466   8.429  0.2958 -0.2394 -0.1954
  113CHL1  H15A14567   1.110   3.437   8.459  0.3832  1.4190  1.9183
  113CHL1  H15B14568   1.219   3.577   8.423 -4.0263  0.1984  0.0260
  113CHL1   C1614569   1.243   3.398   8.293 -1.0258 -0.4120  0.3721
  113CHL1  H16A14570   1.162   3.335   8.251  0.4997  0.1720 -4.0491
  113CHL1  H16B14571   1.276   3.464   8.210 -0.6555 -2.9321 -1.6391
  113CHL1   C1714572   1.370   3.298   8.319  0.1159  0.5026  0.3216
  113CHL1   H1714573   1.460   3.364   8.322  0.4309  0.0534  1.3688
  113CHL1   C1314574   1.342   3.263   8.469  0.3364  0.3691  0.3688
  113CHL1   C1814575   1.223   3.163   8.475 -0.9190  0.1392 -0.0514
  113CHL1  H18A14576   1.204   3.157   8.584 -1.0309  1.0788 -0.0067
  113CHL1  H18B14577   1.133   3.193   8.417 -0.7062 -0.3593 -0.6544
  113CHL1  H18C14578   1.260   3.064   8.443  1.4241  0.9779 -0.1132
  113CHL1   C1214579   1.462   3.211   8.550 -0.1904  0.1762 -0.4743
  113CHL1  H12A14580   1.467   3.101   8.534  1.1321  0.2163 -0.5071
  113CHL1  H12B14581   1.545   3.270   8.506 -0.1920 -0.6220 -1.5831
  113CHL1   C1114582   1.435   3.233   8.696  0.2340  0.9529  0.1966
  113CHL1  H11A14583   1.366   3.149   8.720  0.9971  0.2610  0.0135
  113CHL1  H11B14584   1.527   3.211   8.754 -0.9338  0.1908  1.8817
  113CHL1    C914585   1.390   3.375   8.752 -0.3424  0.6012  1.0627
  113CHL1    H914586   1.477   3.444   8.740  2.3329 -2.7971 -0.8060
  113CHL1   C1014587   1.366   3.374   8.898  0.3907  0.0553 -0.3383
  113CHL1   C1914588   1.264   3.259   8.927  0.3550 -0.3718 -1.1842
  113CHL1  H19A14589   1.247   3.252   9.036  0.1622 -1.8609 -1.2877
  113CHL1  H19B14590   1.164   3.282   8.884 -0.7474  1.5382  2.0406
  113CHL1  H19C14591   1.290   3.158   8.889  0.4823 -0.3702 -1.1048
  113CHL1    C114592   1.497   3.351   8.980  0.6970  0.1827  0.2456
  113CHL1   H1A14593   1.522   3.243   8.966 -3.0559 -0.6797 -0.8126
  113CHL1   H1B14594   1.578   3.408   8.930 -1.1118  2.0370 -0.7057
  113CHL1    C214595   1.484   3.385   9.132  0.3936 -0.4348  0.8945
  113CHL1   H2A14596   1.586   3.384   9.178  0.4020 -0.6114  0.8729
  113CHL1   H2B14597   1.426   3.301   9.175 -2.4066  0.1846 -1.3885
  113CHL1   C2014598   1.383   3.173   8.226  0.0073 -0.8936 -0.4176
  113CHL1   H2014599   1.299   3.104   8.248 -1.8509  1.0347 -1.1452
  113CHL1   C2114600   1.519   3.099   8.243 -0.0020  0.4181 -0.1148
  113CHL1  H21A14601   1.521   3.022   8.324  0.9635  2.3777  1.8391
  113CHL1  H21B14602   1.585   3.185   8.266 -0.6087  1.1290 -0.9468
  113CHL1  H21C14603   1.542   3.047   8.148  1.0999  1.5652 -0.5131
  113CHL1   C2214604   1.366   3.203   8.071 -0.5975  0.2211  0.3602
  113CHL1  H22A14605   1.395   3.114   8.012  1.1929 -0.2416  1.8364
  113CHL1  H22B14606   1.257   3.225   8.076 -0.3395  1.4166  3.7172
  113CHL1   C2314607   1.443   3.325   8.025  0.4613 -0.3814  0.4819
  113CHL1  H23A14608   1.385   3.412   8.061  2.0445  0.1215  1.9278
  113CHL1  H23B14609   1.543   3.333   8.072 -0.8527  1.3843  3.2110
  113CHL1   C2414610   1.457   3.330   7.874 -0.0050  0.1674 -0.8410
  113CHL1  H24A14611   1.508   3.236   7.843 -2.4337 -0.5270 -3.0749
  113CHL1  H24B14612   1.361   3.318   7.821 -0.0672  1.8554 -1.1711
  113CHL1   C2514613   1.524   3.456   7.811  0.2381 -0.0447 -0.3116
  113CHL1   H2514614   1.447   3.536   7.812 -0.6394 -0.8710  0.1311
  113CHL1   C2614615   1.643   3.516   7.888 -0.2842  0.4448 -0.2134
  113CHL1  H26A14616   1.708   3.436   7.930 -2.7140 -1.0797  0.9178
  113CHL1  H26B14617   1.699   3.584   7.820  0.7902  0.1799  0.3783
  113CHL1  H26C14618   1.608   3.575   7.975  0.3275 -0.1546  0.4565
  113CHL1   C2714619   1.560   3.429   7.663  0.6683  0.2500  0.5863
  113CHL1  H27A14620   1.581   3.524   7.610 -2.6264  0.2304 -1.0152
  113CHL1  H27B14621   1.652   3.367   7.662  0.4343 -0.0945  0.1813
  113CHL1  H27C14622   1.477   3.372   7.616 -0.3551  1.1968  1.2132
  114CHL1    C314623   5.549   0.397   8.948 -0.1641  0.0483  0.4689
  114CHL1    H314624   5.535   0.287   8.961 -0.2696  0.0250  0.1586
  114CHL1    O314625   5.530   0.461   9.072 -0.1726  0.7694 -0.6262
  114CHL1   H3'14626   5.615   0.500   9.096 -0.3397  1.1133 -0.5773
  114CHL1    C414627   5.690   0.432   8.915 -0.9472  0.7203  1.4454
  114CHL1   H4A14628   5.705   0.542   8.912  0.3556  0.5505  1.3868
  114CHL1   H4B14629   5.768   0.395   8.985 -0.7637 -4.1405 -0.9133
  114CHL1    C514630   5.734   0.370   8.780  0.0392 -0.2377 -0.0193
  114CHL1    C614631   5.828   0.276   8.780  0.3544  1.0346 -0.0043
  114CHL1    H614632   5.883   0.256   8.873  0.6013  0.1714 -0.3293
  114CHL1    C714633   5.880   0.218   8.651  0.3496  0.5447 -0.3922
  114CHL1   H7A14634   5.991   0.207   8.652  0.2526 -0.5382  0.5750
  114CHL1   H7B14635   5.831   0.119   8.648  0.2952  0.5147  0.8846
  114CHL1    C814636   5.824   0.294   8.528 -0.0983  0.3767  0.7485
  114CHL1    H814637   5.887   0.386   8.519  0.2265  0.1348  0.5565
  114CHL1   C1414638   5.832   0.202   8.409 -0.2357  0.1144 -0.3538
  114CHL1   H1414639   5.771   0.113   8.436  0.0072 -0.4282 -1.5457
  114CHL1   C1514640   5.963   0.143   8.375  0.0324  0.2340  1.3833
  114CHL1  H15A14641   6.045   0.218   8.382 -0.0905  0.4499  0.5923
  114CHL1  H15B14642   5.991   0.061   8.444  0.1932 -1.1360 -0.2454
  114CHL1   C1614643   5.954   0.090   8.232  0.1309  0.0273 -0.3069
  114CHL1  H16A14644   6.027   0.140   8.165 -0.5625 -0.3444 -1.3631
  114CHL1  H16B14645   5.976  -0.018   8.228 -1.2457 -0.3241  0.8962
  114CHL1   C1714646   5.812   0.127   8.177  0.0632 -0.7133 -0.3715
  114CHL1   H1714647   5.740   0.049   8.209  0.4767 -0.9448  0.0050
  114CHL1   C1314648   5.775   0.249   8.272  0.2613 -0.3321  0.6030
  114CHL1   C1814649   5.849   0.373   8.228 -0.2854  0.1091 -0.3241
  114CHL1  H18A14650   5.847   0.453   8.306 -0.4018 -0.7328  0.5581
  114CHL1  H18B14651   5.957   0.356   8.210 -0.8405 -0.1957 -4.0500
  114CHL1  H18C14652   5.814   0.417   8.132  2.9711  3.0941 -0.3348
  114CHL1   C1214653   5.623   0.289   8.285  0.7592 -0.0707 -0.5110
  114CHL1  H12A14654   5.600   0.349   8.195  0.4520 -1.6452 -1.5288
  114CHL1  H12B14655   5.558   0.203   8.312  0.1352  0.5676  0.0436
  114CHL1   C1114656   5.610   0.382   8.400 -0.0703 -0.6861 -0.5396
  114CHL1  H11A14657   5.657   0.478   8.370  2.4909 -1.5427  0.4366
  114CHL1  H11B14658   5.499   0.381   8.408 -0.0257  0.3780  0.5564
  114CHL1    C914659   5.676   0.334   8.535  0.3761  0.4746 -0.9015
  114CHL1    H914660   5.629   0.236   8.560 -0.7494  1.2474  0.1358
  114CHL1   C1014661   5.642   0.408   8.668  1.2980 -0.2979  0.4807
  114CHL1   C1914662   5.658   0.558   8.640 -0.1628 -0.0350 -0.4264
  114CHL1  H19A14663   5.589   0.601   8.564  0.5111  0.4767 -0.7517
  114CHL1  H19B14664   5.623   0.627   8.720 -0.7662  1.3407 -1.8197
  114CHL1  H19C14665   5.763   0.585   8.619  0.4539 -0.2288  2.1332
  114CHL1    C114666   5.490   0.382   8.702 -0.4029  0.0134 -0.1566
  114CHL1   H1A14667   5.413   0.411   8.628 -1.1936  0.1949  0.7079
  114CHL1   H1B14668   5.479   0.273   8.723  0.8350 -0.4557 -1.7644
  114CHL1    C214669   5.453   0.451   8.837 -0.0539 -0.1005  0.1470
  114CHL1   H2A14670   5.346   0.445   8.865 -0.3098 -0.4424 -0.8686
  114CHL1   H2B14671   5.470   0.559   8.817  0.5029 -0.4825 -1.6859
  114CHL1   C2014672   5.800   0.145   8.028 -0.5443  0.3729 -0.0626
  114CHL1   H2014673   5.875   0.223   8.002  0.9298  0.2307  3.3085
  114CHL1   C2114674   5.656   0.188   7.987  0.4675 -0.4031  0.0612
  114CHL1  H21A14675   5.636   0.184   7.877 -0.5091  0.4287  0.1988
  114CHL1  H21B14676   5.640   0.295   8.011 -0.4349 -0.3095 -0.8977
  114CHL1  H21C14677   5.581   0.133   8.046  1.4285 -2.4162 -0.5062
  114CHL1   C2214678   5.833   0.017   7.948 -0.2217 -0.3537  0.2908
  114CHL1  H22A14679   5.919  -0.039   7.992  0.5608 -0.7903 -1.6561
  114CHL1  H22B14680   5.743  -0.048   7.949 -1.2628  1.0069 -0.7206
  114CHL1   C2314681   5.876   0.044   7.803 -1.0461 -0.4498 -0.0481
  114CHL1  H23A14682   5.871  -0.054   7.750 -0.9177 -0.7450  0.4762
  114CHL1  H23B14683   5.800   0.101   7.745 -0.0968 -0.9438 -1.8703
  114CHL1   C2414684   6.019   0.109   7.778  1.3759  0.7813 -0.6777
  114CHL1  H24A14685   6.042   0.205   7.829 -1.4217  0.3864  1.5493
  114CHL1  H24B14686   6.095   0.034   7.807 -0.2469 -0.4135  0.6482
  114CHL1   C2514687   6.046   0.146   7.628  0.2113  0.2050  0.5052
  114CHL1   H2514688   5.963   0.206   7.587  0.5545  0.1646 -0.2750
  114CHL1   C2614689   6.171   0.223   7.622  0.1704 -0.2364 -0.0158
  114CHL1  H26A14690   6.253   0.165   7.669 -0.3076 -0.7783  0.1558
  114CHL1  H26B14691   6.194   0.259   7.519 -0.0870  0.9719  0.3319
  114CHL1  H26C14692   6.154   0.318   7.677 -1.5310  0.0543 -0.9730
  114CHL1   C2714693   6.070   0.015   7.544  0.1333 -0.1909  0.7381
  114CHL1  H27A14694   6.162  -0.038   7.575  1.5669  1.3917 -0.6072
  114CHL1  H27B14695   5.977  -0.046   7.545  0.8633 -1.3162  1.7047
  114CHL1  H27C14696   6.083   0.053   7.440  0.6226 -0.7083  0.6045
  115CHL1    C314697   4.382   2.081   8.805 -0.2242  0.4340  0.6825
  115CHL1    H314698   4.400   2.191   8.797 -1.5559  0.7054  1.0541
  115CHL1    O314699   4.341   2.055   8.944  0.2744  0.1005 -0.1915
  115CHL1   H3'14700   4.398   1.984   8.974 -0.1818 -0.9360 -1.6916
  115CHL1    C414701   4.275   2.041   8.706  0.0868 -0.1479  1.0139
  115CHL1   H4A14702   4.241   1.938   8.730  0.1744  0.0643  2.0826
  115CHL1   H4B14703   4.188   2.103   8.734  0.7109  0.9091  0.6571
  115CHL1    C514704   4.319   2.068   8.562  0.3493  0.6151 -0.0486
  115CHL1    C614705   4.254   2.158   8.485  0.2936  0.5820 -0.1371
  115CHL1    H614706   4.161   2.204   8.522  0.5226 -0.3503  1.7439
  115CHL1    C714707   4.301   2.195   8.342 -0.2099 -0.1124  0.8074
  115CHL1   H7A14708   4.221   2.192   8.265  1.9590 -1.4173 -1.5494
  115CHL1   H7B14709   4.331   2.299   8.366 -1.4934  0.2818  0.7951
  115CHL1    C814710   4.415   2.108   8.277 -0.1397  0.5133 -0.6705
  115CHL1    H814711   4.365   2.014   8.246  2.6405 -1.2044 -0.3278
  115CHL1   C1414712   4.482   2.167   8.157 -1.0406 -0.3225  0.1997
  115CHL1   H1414713   4.536   2.254   8.199 -0.7454 -0.5796  0.3588
  115CHL1   C1514714   4.399   2.237   8.045  0.3607  0.2511 -0.0765
  115CHL1  H15A14715   4.316   2.173   8.007  0.1433  0.2612  0.3752
  115CHL1  H15B14716   4.362   2.336   8.078 -0.3957 -0.4985  1.4328
  115CHL1   C1614717   4.498   2.249   7.924  0.5456 -0.0190 -0.5600
  115CHL1  H16A14718   4.451   2.205   7.833  0.0049 -2.3858  0.7993
  115CHL1  H16B14719   4.530   2.355   7.912  0.5291  0.0051 -0.3858
  115CHL1   C1714720   4.626   2.175   7.969 -0.4940 -0.0929 -0.6229
  115CHL1   H1714721   4.690   2.244   8.028  0.1932 -1.2836  0.0588
  115CHL1   C1314722   4.590   2.084   8.087 -1.1803  0.4577 -0.3363
  115CHL1   C1814723   4.537   1.947   8.035  0.3464 -0.1900 -0.5617
  115CHL1  H18A14724   4.614   1.876   7.998 -0.9931 -1.7567 -0.4863
  115CHL1  H18B14725   4.485   1.884   8.111  0.7430 -0.3208 -0.3981
  115CHL1  H18C14726   4.458   1.963   7.958  0.0862  1.3345 -0.0050
  115CHL1   C1214727   4.702   2.063   8.193  0.1279 -0.0434  0.0446
  115CHL1  H12A14728   4.786   2.009   8.146  1.6749  1.1292  1.3158
  115CHL1  H12B14729   4.733   2.163   8.231  3.5763 -1.2528  0.7578
  115CHL1   C1114730   4.637   1.991   8.318 -0.4784  0.3422  0.2716
  115CHL1  H11A14731   4.619   1.883   8.300  0.3048  0.1060  0.8392
  115CHL1  H11B14732   4.725   1.985   8.385  2.2083  0.0280 -3.0223
  115CHL1    C914733   4.518   2.071   8.388 -0.1315 -0.0872  0.6816
  115CHL1    H914734   4.561   2.166   8.424  0.3454  0.9960 -2.4115
  115CHL1   C1014735   4.457   2.013   8.520  0.4685 -0.1935  0.1156
  115CHL1   C1914736   4.438   1.863   8.501  0.1401  0.2088 -0.0491
  115CHL1  H19A14737   4.537   1.814   8.507  1.8914  3.5639  0.4428
  115CHL1  H19B14738   4.379   1.815   8.582  0.5014  0.5110  0.3949
  115CHL1  H19C14739   4.396   1.842   8.400  1.4883  2.6771 -1.2181
  115CHL1    C114740   4.562   2.038   8.628 -0.3401  0.1601 -0.7031
  115CHL1   H1A14741   4.651   1.978   8.597  0.1197  1.1772 -1.4184
  115CHL1   H1B14742   4.595   2.144   8.629 -1.6792  0.6068 -1.8078
  115CHL1    C214743   4.512   2.003   8.776  0.0031 -0.3015 -0.2351
  115CHL1   H2A14744   4.596   2.027   8.844  2.6466 -3.6706 -1.9792
  115CHL1   H2B14745   4.490   1.894   8.775 -1.4543 -0.0607  1.4414
  115CHL1   C2014746   4.725   2.135   7.860 -0.0627  0.2472 -0.3595
  115CHL1   H2014747   4.797   2.066   7.909 -0.8179 -0.2531  0.0631
  115CHL1   C2114748   4.803   2.262   7.822  0.4133 -1.1022  0.0620
  115CHL1  H21A14749   4.883   2.231   7.750 -1.5842 -0.2672 -2.6761
  115CHL1  H21B14750   4.845   2.306   7.915 -1.6493 -0.4362  0.7196
  115CHL1  H21C14751   4.740   2.337   7.770  1.5368  1.2473  1.9296
  115CHL1   C2214752   4.664   2.047   7.747 -0.3751 -0.0527 -0.2785
  115CHL1  H22A14753   4.630   1.950   7.790  0.0702 -0.3332 -0.5513
  115CHL1  H22B14754   4.575   2.099   7.707 -0.4059  0.5138  0.5005
  115CHL1   C2314755   4.758   2.025   7.626 -0.5955  0.7689 -0.5927
  115CHL1  H23A14756   4.795   2.127   7.602 -0.0053  0.7268  0.1017
  115CHL1  H23B14757   4.844   1.963   7.662 -1.0071  1.7802  2.4180
  115CHL1   C2414758   4.705   1.943   7.507  0.1516  0.0636  0.1916
  115CHL1  H24A14759   4.795   1.916   7.449  0.7273 -2.3200  2.0364
  115CHL1  H24B14760   4.665   1.846   7.543  0.3198  0.4811  1.5818
  115CHL1   C2514761   4.609   2.025   7.416 -0.2836 -0.4992 -0.5103
  115CHL1   H2514762   4.519   2.051   7.476 -1.3283 -2.7536 -0.9994
  115CHL1   C2614763   4.670   2.162   7.362 -0.4900 -0.5260  0.0295
  115CHL1  H26A14764   4.765   2.134   7.311 -0.6533 -1.7550  0.3606
  115CHL1  H26B14765   4.597   2.214   7.297 -1.8625 -0.8970  1.1923
  115CHL1  H26C14766   4.693   2.227   7.449 -1.3688  0.5047 -0.4878
  115CHL1   C2714767   4.574   1.936   7.296 -0.1361  0.4054 -0.5161
  115CHL1  H27A14768   4.509   1.981   7.218 -1.0738 -0.8933 -0.5247
  115CHL1  H27B14769   4.670   1.890   7.265 -0.1855 -0.7148  0.8634
  115CHL1  H27C14770   4.503   1.859   7.334  1.5049 -0.8551  0.1302
  116CHL1    C314771   4.299   2.538   8.916  0.5649 -0.8923  0.4576
  116CHL1    H314772   4.268   2.448   8.860  0.6180  0.8125 -2.5282
  116CHL1    O314773   4.279   2.527   9.059  0.1474  0.0725 -0.1164
  116CHL1   H3'14774   4.350   2.574   9.102  0.3803  1.1828 -1.6291
  116CHL1    C414775   4.454   2.547   8.899 -0.7256 -0.0307 -0.1353
  116CHL1   H4A14776   4.491   2.631   8.962 -0.9622 -1.0699  1.4555
  116CHL1   H4B14777   4.486   2.452   8.947  0.0523 -0.2130 -1.0029
  116CHL1    C514778   4.487   2.554   8.754 -0.3391  0.7098  0.1125
  116CHL1    C614779   4.554   2.447   8.703 -0.2210 -0.0416 -0.0826
  116CHL1    H614780   4.589   2.367   8.770 -1.5555 -1.6193 -1.1897
  116CHL1    C714781   4.587   2.454   8.556 -0.0889 -0.0734  0.8092
  116CHL1   H7A14782   4.695   2.430   8.546  0.4006  1.1047  2.6160
  116CHL1   H7B14783   4.520   2.383   8.502 -0.7585  1.3048 -0.2238
  116CHL1    C814784   4.568   2.593   8.487 -0.0190 -0.0881  0.1469
  116CHL1    H814785   4.655   2.660   8.507 -1.3234  1.6326  0.2904
  116CHL1   C1414786   4.575   2.580   8.337  0.0875  0.1949  0.2108
  116CHL1   H1414787   4.504   2.499   8.314 -1.3652  2.0499 -2.3113
  116CHL1   C1514788   4.707   2.532   8.276  0.4945  0.2936  0.0403
  116CHL1  H15A14789   4.800   2.571   8.322 -0.1027 -0.8179  2.3422
  116CHL1  H15B14790   4.718   2.422   8.279 -1.5042  0.0727  0.3495
  116CHL1   C1614791   4.697   2.571   8.128 -0.1675  0.1488  0.3772
  116CHL1  H16A14792   4.791   2.617   8.092 -0.6944 -0.0639 -1.3500
  116CHL1  H16B14793   4.680   2.480   8.067  0.4357  0.6702 -0.5920
  116CHL1   C1714794   4.564   2.654   8.119 -0.3143 -0.0620 -0.0715
  116CHL1   H1714795   4.476   2.588   8.103  0.9571 -1.4760 -1.6205
  116CHL1   C1314796   4.537   2.701   8.262 -0.5754 -0.2816  0.1497
  116CHL1   C1814797   4.631   2.821   8.302 -0.8319  0.5027  0.3027
  116CHL1  H18A14798   4.612   2.910   8.239  1.7711  0.4263 -0.7432
  116CHL1  H18B14799   4.627   2.850   8.409 -1.9926 -3.6023  1.5680
  116CHL1  H18C14800   4.736   2.793   8.277 -1.3061  0.0572 -1.2711
  116CHL1   C1214801   4.384   2.735   8.301  0.1553 -0.3149 -0.0618
  116CHL1  H12A14802   4.368   2.828   8.242  1.1768 -0.9557 -1.4267
  116CHL1  H12B14803   4.308   2.662   8.265 -0.1833  1.0602 -2.3346
  116CHL1   C1114804   4.378   2.773   8.449 -0.1513  0.1360  0.1587
  116CHL1  H11A14805   4.420   2.874   8.469 -1.4844  0.3856  1.9816
  116CHL1  H11B14806   4.270   2.789   8.471 -0.8525  0.6969 -3.1561
  116CHL1    C914807   4.434   2.656   8.530 -0.0933  0.4213  0.2493
  116CHL1    H914808   4.365   2.571   8.509 -0.3260  0.8789 -0.9022
  116CHL1   C1014809   4.422   2.669   8.679  0.1474 -0.2706 -0.1165
  116CHL1   C1914810   4.486   2.798   8.723  0.5403  0.0392 -0.3040
  116CHL1  H19A14811   4.448   2.884   8.663  2.4363  1.8890  1.0035
  116CHL1  H19B14812   4.460   2.821   8.828  1.6587  0.9190 -0.2046
  116CHL1  H19C14813   4.596   2.800   8.706  0.5882  0.9290  0.0738
  116CHL1    C114814   4.268   2.682   8.721  0.7570  0.5270  0.4904
  116CHL1   H1A14815   4.232   2.781   8.687 -4.0211 -0.7423  0.9886
  116CHL1   H1B14816   4.214   2.599   8.671 -0.1357 -0.5182  2.9958
  116CHL1    C214817   4.230   2.665   8.869  0.2322 -0.0632 -0.4107
  116CHL1   H2A14818   4.120   2.651   8.868  0.0333  1.3365 -1.6419
  116CHL1   H2B14819   4.259   2.752   8.932 -0.0237  0.1487 -0.5843
  116CHL1   C2014820   4.544   2.760   8.009 -0.2908  0.5077 -0.0505
  116CHL1   H2014821   4.474   2.836   8.050 -1.2903  0.2953 -1.2869
  116CHL1   C2114822   4.469   2.688   7.896 -0.4106  0.5152  0.0006
  116CHL1  H21A14823   4.382   2.635   7.940  0.2269  1.0597  2.0301
  116CHL1  H21B14824   4.542   2.623   7.844 -1.0807 -0.4994  0.3027
  116CHL1  H21C14825   4.426   2.765   7.827  1.1026  1.3693 -0.0422
  116CHL1   C2214826   4.668   2.826   7.955  0.4502 -0.4474  0.0785
  116CHL1  H22A14827   4.728   2.874   8.035 -0.4056  0.8687 -0.0274
  116CHL1  H22B14828   4.730   2.754   7.898  1.9533 -0.4004  1.5910
  116CHL1   C2314829   4.646   2.943   7.858  0.7812 -0.6114  0.4201
  116CHL1  H23A14830   4.590   2.903   7.771  0.7516  2.3331 -1.0333
  116CHL1  H23B14831   4.582   3.023   7.901 -2.3291 -1.0125 -2.9426
  116CHL1   C2414832   4.781   2.999   7.813  0.3409  0.0381  0.0586
  116CHL1  H24A14833   4.849   3.030   7.895 -0.6965 -0.4669  1.1374
  116CHL1  H24B14834   4.837   2.918   7.762 -0.5308 -0.8602  0.5038
  116CHL1   C2514835   4.772   3.111   7.707 -0.2420  0.1617  0.5156
  116CHL1   H2514836   4.710   3.074   7.622  0.1493 -1.6892  0.9878
  116CHL1   C2614837   4.738   3.243   7.759  0.2794 -0.8155 -0.3205
  116CHL1  H26A14838   4.739   3.319   7.678 -0.1196  0.0341  0.4536
  116CHL1  H26B14839   4.637   3.250   7.805  0.4903  1.6982 -0.1270
  116CHL1  H26C14840   4.805   3.273   7.843 -1.7861 -3.0018  2.3257
  116CHL1   C2714841   4.913   3.125   7.633  0.4945  0.7868 -0.3042
  116CHL1  H27A14842   4.994   3.141   7.707 -0.0857  3.2729 -0.1048
  116CHL1  H27B14843   4.933   3.033   7.576  1.5918  0.4174  0.6360
  116CHL1  H27C14844   4.911   3.214   7.567 -0.2516  0.6082 -0.5352
  117CHL1    C314845   5.045   1.002   8.808  0.1083  0.3646  0.3897
  117CHL1    H314846   4.981   1.082   8.766  0.6234  0.6501  0.1395
  117CHL1    O314847   5.011   0.988   8.944 -0.3190  0.3548  0.5570
  117CHL1   H3'14848   4.918   1.012   8.950 -1.1508 -1.8387 -1.8292
  117CHL1    C414849   5.032   0.867   8.740  0.0974  0.2041 -0.4770
  117CHL1   H4A14850   5.097   0.799   8.799 -2.1358 -1.3254  0.3476
  117CHL1   H4B14851   4.933   0.819   8.756  0.4447 -0.0906  0.9371
  117CHL1    C514852   5.073   0.860   8.595 -0.3672 -0.7389 -0.3689
  117CHL1    C614853   4.995   0.818   8.489 -0.1370  0.3035  0.7237
  117CHL1    H614854   4.893   0.785   8.512  0.0994 -0.6300  0.4783
  117CHL1    C714855   5.040   0.806   8.343  0.2685 -0.3531  0.0656
  117CHL1   H7A14856   5.005   0.714   8.290 -2.9107  1.4795 -1.3431
  117CHL1   H7B14857   4.988   0.881   8.279 -0.0487 -0.9331 -0.3648
  117CHL1    C814858   5.193   0.827   8.327 -0.2681  1.1736  0.3451
  117CHL1    H814859   5.235   0.729   8.359 -0.9036  0.7018 -0.2145
  117CHL1   C1414860   5.227   0.861   8.182  0.4760 -0.5360  1.1087
  117CHL1   H1414861   5.178   0.960   8.167 -0.5271 -1.3744 -1.8307
  117CHL1   C1514862   5.174   0.776   8.059  0.0501 -0.2964 -0.0665
  117CHL1  H15A14863   5.176   0.667   8.080  0.7383 -1.1164 -3.6846
  117CHL1  H15B14864   5.070   0.804   8.032  0.4093 -0.8142 -2.1867
  117CHL1   C1614865   5.272   0.808   7.947  0.7928  0.5075  0.4958
  117CHL1  H16A14866   5.308   0.716   7.898  1.3961 -0.0901  1.9975
  117CHL1  H16B14867   5.209   0.858   7.870 -1.3402 -3.4765 -0.5980
  117CHL1   C1714868   5.382   0.905   8.005 -0.0244 -0.2814  1.4228
  117CHL1   H1714869   5.340   1.007   7.991  0.6711 -0.2872 -1.1370
  117CHL1   C1314870   5.379   0.885   8.156 -0.2880  0.4104 -0.3327
  117CHL1   C1814871   5.455   0.754   8.195  0.2525  0.5001 -0.4396
  117CHL1  H18A14872   5.565   0.764   8.205  0.2812 -1.1875  1.4581
  117CHL1  H18B14873   5.428   0.724   8.298  1.4971 -0.1525 -0.2834
  117CHL1  H18C14874   5.419   0.671   8.131 -1.3225  1.6709 -1.1556
  117CHL1   C1214875   5.434   0.997   8.247  0.1587 -0.5468  0.5196
  117CHL1  H12A14876   5.544   1.012   8.240 -0.1987  1.5849 -2.9211
  117CHL1  H12B14877   5.403   1.096   8.206 -0.8668 -0.7702  0.7507
  117CHL1   C1114878   5.392   0.976   8.398 -0.5979  0.3899 -0.1538
  117CHL1  H11A14879   5.455   0.889   8.427 -0.2214  0.4313 -0.8271
  117CHL1  H11B14880   5.425   1.066   8.453 -0.2588  0.2635 -0.1492
  117CHL1    C914881   5.249   0.936   8.421  0.4896 -0.5869 -0.1413
  117CHL1    H914882   5.179   1.019   8.397  0.3869 -0.0453  1.8708
  117CHL1   C1014883   5.220   0.910   8.575  0.1740  0.5812  0.0656
  117CHL1   C1914884   5.314   0.806   8.628 -0.2181  0.7179  0.0428
  117CHL1  H19A14885   5.319   0.705   8.581  0.4883  0.4270  0.7172
  117CHL1  H19B14886   5.419   0.844   8.634  0.1235 -0.0422 -0.8352
  117CHL1  H19C14887   5.286   0.768   8.728  1.5252  0.4380  0.4724
  117CHL1    C114888   5.241   1.039   8.656 -0.2032 -0.0210  0.4707
  117CHL1   H1A14889   5.349   1.066   8.659 -0.6510  2.2377 -1.1605
  117CHL1   H1B14890   5.186   1.122   8.606  0.2258 -1.7328 -3.1227
  117CHL1    C214891   5.194   1.035   8.804  0.4686 -0.5888 -0.6354
  117CHL1   H2A14892   5.200   1.132   8.857 -2.4664  0.0478 -1.2987
  117CHL1   H2B14893   5.259   0.964   8.861 -0.5539 -0.7922  0.3165
  117CHL1   C2014894   5.513   0.915   7.920 -0.5131 -0.1637 -0.4476
  117CHL1   H2014895   5.582   0.981   7.976 -0.0291 -2.4863  1.8717
  117CHL1   C2114896   5.483   0.997   7.793 -0.2974  0.1353  0.0299
  117CHL1  H21A14897   5.441   0.933   7.713  1.6657 -1.1490 -0.0561
  117CHL1  H21B14898   5.581   1.035   7.756  0.0737  0.7792  1.5827
  117CHL1  H21C14899   5.418   1.083   7.819  0.5148 -0.0196  3.0052
  117CHL1   C2214900   5.594   0.784   7.889 -1.2298  0.4988  0.3369
  117CHL1  H22A14901   5.605   0.732   7.987  1.5328 -0.2800 -0.3106
  117CHL1  H22B14902   5.547   0.713   7.818 -2.9058  0.2648  1.6137
  117CHL1   C2314903   5.733   0.819   7.832 -0.0194  0.2087 -0.3011
  117CHL1  H23A14904   5.716   0.876   7.738  1.0519  0.0617 -0.5928
  117CHL1  H23B14905   5.780   0.887   7.906 -1.7038 -0.7351  1.7441
  117CHL1   C2414906   5.834   0.699   7.805  0.2331 -0.0651 -0.0353
  117CHL1  H24A14907   5.924   0.746   7.759  1.1006  0.0873  1.7234
  117CHL1  H24B14908   5.890   0.666   7.895  2.0658  0.0039 -1.0752
  117CHL1   C2514909   5.790   0.582   7.715 -0.9156 -0.4281  0.3441
  117CHL1   H2514910   5.703   0.611   7.653 -0.6864  0.6328  0.4921
  117CHL1   C2614911   5.899   0.533   7.617  0.0083 -0.5011  0.4107
  117CHL1  H26A14912   5.855   0.449   7.559 -1.7066  0.6581 -0.0386
  117CHL1  H26B14913   5.932   0.613   7.547  2.1955  2.1369  4.1077
  117CHL1  H26C14914   5.993   0.492   7.660 -0.1811 -0.4492  0.8740
  117CHL1   C2714915   5.740   0.458   7.793 -0.3886  0.0030  0.6036
  117CHL1  H27A14916   5.814   0.420   7.866 -1.6093 -2.0015  0.8930
  117CHL1  H27B14917   5.642   0.482   7.840 -1.7210 -0.5271 -1.7295
  117CHL1  H27C14918   5.706   0.372   7.731 -0.4167 -0.1097  0.7737
  118CHL1    C314919   8.535   0.438   8.608  0.6523 -0.7050  0.2830
  118CHL1    H314920   8.619   0.446   8.536  1.4948  0.4162  1.3384
  118CHL1    O314921   8.557   0.546   8.696 -0.2585 -0.6382  0.0479
  118CHL1   H3'14922   8.649   0.536   8.721 -0.7863  0.3211  2.6715
  118CHL1    C414923   8.402   0.459   8.540 -0.1721  0.1255  0.2649
  118CHL1   H4A14924   8.310   0.475   8.601  0.8237  1.7220  1.4359
  118CHL1   H4B14925   8.401   0.556   8.486 -0.2303  0.0471  0.1246
  118CHL1    C514926   8.373   0.344   8.445  0.6591 -0.1604  0.0617
  118CHL1    C614927   8.360   0.367   8.315  0.2378  0.1179 -0.0873
  118CHL1    H614928   8.380   0.466   8.272  1.2090 -0.2440 -0.5126
  118CHL1    C714929   8.330   0.260   8.215 -0.2880  0.0135  0.3102
  118CHL1   H7A14930   8.247   0.299   8.152  1.8283  2.2452 -1.2477
  118CHL1   H7B14931   8.424   0.246   8.158  0.1797  1.2098  0.7517
  118CHL1    C814932   8.285   0.123   8.279 -0.4177  0.8465 -0.0057
  118CHL1    H814933   8.176   0.141   8.291 -0.5159  1.6731 -1.8366
  118CHL1   C1414934   8.302   0.009   8.182  0.2144 -0.1883  0.4617
  118CHL1   H1414935   8.409  -0.010   8.159  0.7566  3.2518 -0.5398
  118CHL1   C1514936   8.244   0.024   8.046  0.5678 -0.0109  0.3621
  118CHL1  H15A14937   8.153   0.088   8.041  0.6335 -0.0120 -1.1682
  118CHL1  H15B14938   8.316   0.067   7.974  1.7047  0.1158  1.5253
  118CHL1   C1614939   8.213  -0.116   8.008 -0.1758 -0.1709  0.1718
  118CHL1  H16A14940   8.102  -0.124   8.009 -0.1542 -0.4637  1.3228
  118CHL1  H16B14941   8.257  -0.153   7.913 -0.0961  0.3665 -0.0018
  118CHL1   C1714942   8.264  -0.215   8.117 -0.5180  0.4191 -0.3245
  118CHL1   H1714943   8.372  -0.237   8.103  0.4434  2.9062  2.1996
  118CHL1   C1314944   8.252  -0.133   8.241 -0.4389 -0.5556  0.5396
  118CHL1   C1814945   8.110  -0.130   8.295  0.1697 -0.3162 -0.4759
  118CHL1  H18A14946   8.033  -0.116   8.216 -0.2137 -1.4453 -0.3239
  118CHL1  H18B14947   8.082  -0.224   8.346  0.4408  0.0828  0.4346
  118CHL1  H18C14948   8.103  -0.045   8.367 -0.7840 -0.7829 -0.0000
  118CHL1   C1214949   8.347  -0.166   8.352 -0.2904 -0.1560 -0.5672
  118CHL1  H12A14950   8.312  -0.260   8.401 -0.9808  0.3835 -0.0141
  118CHL1  H12B14951   8.453  -0.171   8.319  0.0908  2.7425 -0.0348
  118CHL1   C1114952   8.356  -0.052   8.462  0.3901 -0.0938  0.9533
  118CHL1  H11A14953   8.258  -0.056   8.515 -0.3103 -1.0605 -0.3669
  118CHL1  H11B14954   8.431  -0.076   8.540 -1.1410  1.5640  3.0924
  118CHL1    C914955   8.373   0.089   8.399 -0.1247 -0.4503 -0.6399
  118CHL1    H914956   8.475   0.085   8.357 -0.0525 -0.1701 -0.4952
  118CHL1   C1014957   8.374   0.203   8.509  0.2318  0.7125 -0.4616
  118CHL1   C1914958   8.250   0.180   8.598 -1.1581 -0.5242  0.2634
  118CHL1  H19A14959   8.153   0.150   8.555 -0.1057 -1.2063 -1.7693
  118CHL1  H19B14960   8.289   0.110   8.675 -1.4990 -0.5135  0.4470
  118CHL1  H19C14961   8.230   0.265   8.667  0.9253 -0.8106  1.3155
  118CHL1    C114962   8.510   0.190   8.592  1.0061  0.3004 -0.2644
  118CHL1   H1A14963   8.512   0.091   8.640 -1.3667  0.3810  0.0896
  118CHL1   H1B14964   8.588   0.182   8.513  0.9476  0.6998 -0.3648
  118CHL1    C214965   8.547   0.310   8.686 -0.1416  0.5501  0.2214
  118CHL1   H2A14966   8.653   0.303   8.719  0.0639  1.8627 -0.0945
  118CHL1   H2B14967   8.489   0.301   8.781  0.2600  0.2328  0.4361
  118CHL1   C2014968   8.195  -0.353   8.105 -0.3615  0.4091  0.2393
  118CHL1   H2014969   8.086  -0.339   8.118 -0.1649  0.3664  2.2857
  118CHL1   C2114970   8.244  -0.442   8.219 -0.2259  0.0810  0.3402
  118CHL1  H21A14971   8.208  -0.404   8.317  0.3794  1.9356 -0.1061
  118CHL1  H21B14972   8.355  -0.441   8.221 -0.0959 -1.8474 -1.6476
  118CHL1  H21C14973   8.211  -0.546   8.198 -2.0296  0.9509 -1.6386
  118CHL1   C2214974   8.225  -0.413   7.967  1.0310  0.9125  0.2609
  118CHL1  H22A14975   8.185  -0.517   7.974 -1.1375  1.6719 -0.0606
  118CHL1  H22B14976   8.178  -0.357   7.884 -0.1729  0.4657  0.6026
  118CHL1   C2314977   8.383  -0.427   7.936  0.2173  0.0465  0.6388
  118CHL1  H23A14978   8.412  -0.324   7.906 -0.7678 -0.5943 -2.9964
  118CHL1  H23B14979   8.424  -0.464   8.032 -2.6068  1.6315  2.6022
  118CHL1   C2414980   8.417  -0.526   7.825 -0.2209 -0.8188 -0.2488
  118CHL1  H24A14981   8.379  -0.629   7.845 -1.1018  0.0072  3.0354
  118CHL1  H24B14982   8.359  -0.504   7.733  0.5251  0.3824 -0.4569
  118CHL1   C2514983   8.572  -0.534   7.799  0.4811 -0.2903  0.8793
  118CHL1   H2514984   8.615  -0.561   7.898 -1.6231 -0.8870  1.6994
  118CHL1   C2614985   8.604  -0.646   7.690  0.6883 -0.2629  1.4860
  118CHL1  H26A14986   8.712  -0.674   7.695  0.8243  0.4378  3.2165
  118CHL1  H26B14987   8.547  -0.740   7.704  1.6588 -0.9977  0.6691
  118CHL1  H26C14988   8.585  -0.606   7.588 -0.5464 -0.4872  1.6178
  118CHL1   C2714989   8.632  -0.404   7.747 -0.3801 -0.2961 -0.3896
  118CHL1  H27A14990   8.587  -0.369   7.652  1.2255  1.1539 -0.6624
  118CHL1  H27B14991   8.630  -0.324   7.824 -1.4224 -0.4466 -0.2412
  118CHL1  H27C14992   8.740  -0.428   7.733 -0.5065 -1.4254  0.4051
  119CHL1    C314993   1.908   2.289   9.221  0.3254 -1.1548 -0.9736
  119CHL1    H314994   1.993   2.218   9.216  0.3888 -1.0197 -1.9910
  119CHL1    O314995   1.906   2.356   9.344 -0.4504 -0.3480 -0.1670
  119CHL1   H3'14996   1.887   2.291   9.412  0.2033 -1.4126 -0.9694
  119CHL1    C414997   1.930   2.395   9.118  0.4307  0.0208 -0.5332
  119CHL1   H4A14998   1.857   2.478   9.128  1.4364  0.9382 -0.6629
  119CHL1   H4B14999   2.031   2.435   9.142  0.0979  0.7380 -0.3205
  119CHL1    C515000   1.922   2.333   8.976 -0.3320  0.2630  0.1449
  119CHL1    C615001   2.032   2.343   8.895  0.4507 -0.3943  0.2052
  119CHL1    H615002   2.118   2.401   8.932  0.6014 -0.3122 -0.2644
  119CHL1    C715003   2.030   2.300   8.749 -0.3500 -0.4185  0.2891
  119CHL1   H7A15004   2.072   2.383   8.687 -0.4152 -1.2526 -0.8985
  119CHL1   H7B15005   2.108   2.222   8.738  1.1275  0.6609  2.3102
  119CHL1    C815006   1.885   2.255   8.703  0.1186 -0.2246  0.8297
  119CHL1    H815007   1.832   2.351   8.685 -0.4927 -0.2927  2.1450
  119CHL1   C1415008   1.889   2.177   8.569  0.2585  0.2285 -0.2968
  119CHL1   H1415009   1.952   2.087   8.580  0.2761 -0.2514 -3.4692
  119CHL1   C1515010   1.958   2.256   8.450 -0.0328 -0.8155 -0.0510
  119CHL1  H15A15011   1.925   2.362   8.449  1.5101 -0.2848  1.1200
  119CHL1  H15B15012   2.067   2.266   8.469 -0.4178  2.0563  1.2069
  119CHL1   C1615013   1.916   2.177   8.327 -0.3200  0.3161  0.5262
  119CHL1  H16A15014   1.882   2.241   8.242  0.5650 -1.2446 -1.0807
  119CHL1  H16B15015   2.001   2.117   8.288 -0.6954 -0.0641  0.2837
  119CHL1   C1715016   1.798   2.084   8.373  0.0607  0.0987  0.4113
  119CHL1   H1715017   1.841   1.985   8.395 -0.1628 -0.1762 -0.3597
  119CHL1   C1315018   1.750   2.135   8.510 -0.3935  0.1935 -0.0911
  119CHL1   C1815019   1.667   2.260   8.490  0.2195  0.2073  0.1358
  119CHL1  H18A15020   1.559   2.233   8.483  0.3891 -0.5917  0.6053
  119CHL1  H18B15021   1.675   2.330   8.576  0.6323  0.6570 -0.2609
  119CHL1  H18C15022   1.698   2.318   8.400 -2.5380  2.1056  0.2806
  119CHL1   C1215023   1.688   2.040   8.620 -1.0507  0.1126  0.4439
  119CHL1  H12A15024   1.591   1.992   8.598 -0.2019 -1.1410 -0.7527
  119CHL1  H12B15025   1.754   1.952   8.633 -0.7358 -0.3912 -3.3803
  119CHL1   C1115026   1.678   2.111   8.757 -0.0785  0.3741  0.1250
  119CHL1  H11A15027   1.597   2.186   8.756 -1.5538 -1.1383  0.6298
  119CHL1  H11B15028   1.651   2.029   8.827  2.0485  1.3941  2.2785
  119CHL1    C915029   1.812   2.179   8.812  0.1889 -0.2398 -0.0454
  119CHL1    H915030   1.873   2.089   8.836 -2.7189 -1.7662  2.3007
  119CHL1   C1015031   1.789   2.257   8.941 -0.6507 -0.4907  0.9135
  119CHL1   C1915032   1.674   2.359   8.938  0.3812 -0.3491  0.2426
  119CHL1  H19A15033   1.694   2.431   8.856 -0.1709  0.9041  1.1664
  119CHL1  H19B15034   1.573   2.316   8.921 -0.2647  2.1392 -3.3084
  119CHL1  H19C15035   1.656   2.419   9.031 -0.5868 -1.3229  0.7132
  119CHL1    C115036   1.761   2.156   9.054 -1.1988 -0.2635 -0.3205
  119CHL1   H1A15037   1.667   2.101   9.034 -1.2387  0.2191 -1.6158
  119CHL1   H1B15038   1.837   2.075   9.050  0.6719  1.4444 -1.6924
  119CHL1    C215039   1.775   2.220   9.198  0.3454  0.0044  0.0284
  119CHL1   H2A15040   1.759   2.134   9.267  1.0332  0.0540  0.2559
  119CHL1   H2B15041   1.688   2.287   9.213  0.1489 -0.4088  0.8313
  119CHL1   C2015042   1.689   2.052   8.265 -0.0141 -0.3382  0.1874
  119CHL1   H2015043   1.618   2.137   8.260 -0.9035 -1.1369 -2.6329
  119CHL1   C2115044   1.603   1.925   8.310  0.7738 -0.1959 -0.0745
  119CHL1  H21A15045   1.540   1.955   8.396 -1.0968 -0.9853 -1.1283
  119CHL1  H21B15046   1.662   1.835   8.337 -0.9730 -1.0268  1.1043
  119CHL1  H21C15047   1.528   1.894   8.234  0.2178  2.0707 -0.5214
  119CHL1   C2215048   1.739   2.036   8.120 -0.1263  0.9261  0.9560
  119CHL1  H22A15049   1.648   2.014   8.059 -0.6770  1.7913  1.4454
  119CHL1  H22B15050   1.775   2.134   8.084 -0.7329  0.6831 -0.3884
  119CHL1   C2315051   1.834   1.916   8.093 -0.3364  0.2837 -0.0906
  119CHL1  H23A15052   1.916   1.930   8.167 -0.2376 -0.8427  0.0252
  119CHL1  H23B15053   1.796   1.817   8.126 -0.2083  0.8307  1.8421
  119CHL1   C2415054   1.896   1.911   7.957  0.7054  0.4825  0.3668
  119CHL1  H24A15055   1.812   1.884   7.890  0.9049  1.3012 -0.2269
  119CHL1  H24B15056   1.928   2.012   7.923 -0.2428 -0.1814 -2.8457
  119CHL1   C2515057   2.024   1.831   7.935  0.0692 -0.2711  0.7358
  119CHL1   H2515058   2.100   1.861   8.011  0.0193  0.0092  0.6748
  119CHL1   C2615059   1.997   1.678   7.951  0.0663 -0.3262 -0.7720
  119CHL1  H26A15060   2.096   1.631   7.965  0.9334  1.7474  0.5839
  119CHL1  H26B15061   1.935   1.650   8.039  0.5083 -1.6135 -0.8489
  119CHL1  H26C15062   1.954   1.643   7.855  0.9534  0.2534 -1.3949
  119CHL1   C2715063   2.076   1.872   7.789 -0.1193  0.2903  0.2800
  119CHL1  H27A15064   2.061   1.978   7.760 -1.2365  0.2243  0.5836
  119CHL1  H27B15065   2.184   1.843   7.790  0.7894  3.2915  0.2505
  119CHL1  H27C15066   2.015   1.824   7.710 -0.7743  1.6737 -0.0918
  120CHL1    C315067   5.546   6.983   9.126  0.4271 -0.2823 -0.5541
  120CHL1    H315068   5.461   6.939   9.070  0.6257 -0.4530 -0.7182
  120CHL1    O315069   5.537   6.988   9.271  0.0654  0.0535  0.5393
  120CHL1   H3'15070   5.614   7.034   9.304 -0.0390  0.4508  0.2356
  120CHL1    C415071   5.672   6.903   9.090  0.2399 -0.3382 -0.9047
  120CHL1   H4A15072   5.761   6.943   9.145  0.1214 -0.2343 -0.7872
  120CHL1   H4B15073   5.643   6.806   9.134 -0.9612 -0.4417 -1.8833
  120CHL1    C515074   5.692   6.899   8.939  0.7637 -0.0792 -0.4612
  120CHL1    C615075   5.712   6.780   8.876 -0.1538  0.1592  0.3461
  120CHL1    H615076   5.713   6.686   8.932  1.0076  0.5081  0.9475
  120CHL1    C715077   5.756   6.773   8.731  0.3218  0.2398 -0.4154
  120CHL1   H7A15078   5.841   6.701   8.728 -0.5122 -0.8081  0.1685
  120CHL1   H7B15079   5.668   6.733   8.676 -0.7717 -0.5183  1.7469
  120CHL1    C815080   5.796   6.913   8.685 -0.3026  0.0511 -0.0792
  120CHL1    H815081   5.894   6.945   8.726 -1.2277  1.4992  1.1231
  120CHL1   C1415082   5.806   6.915   8.530  0.4328 -0.5495 -0.1471
  120CHL1   H1415083   5.703   6.888   8.500  0.6809 -1.1693 -0.4685
  120CHL1   C1515084   5.888   6.804   8.469 -0.2447 -0.2951  0.0928
  120CHL1  H15A15085   5.973   6.755   8.521 -2.1849 -4.7035 -0.4481
  120CHL1  H15B15086   5.823   6.716   8.450 -1.5006  1.0206 -2.2270
  120CHL1   C1615087   5.939   6.859   8.337 -0.8409 -0.1873  0.0822
  120CHL1  H16A15088   6.048   6.882   8.344 -1.0296  1.4427 -1.6150
  120CHL1  H16B15089   5.921   6.792   8.251  0.2106 -2.0263  1.2448
  120CHL1   C1715090   5.883   6.997   8.319  0.3002  0.1802  0.3050
  120CHL1   H1715091   5.786   6.973   8.270 -0.8144  2.8040  1.0747
  120CHL1   C1315092   5.851   7.041   8.463  0.2077 -0.8718 -0.0299
  120CHL1   C1815093   5.985   7.089   8.525  0.2866  0.0312 -0.0382
  120CHL1  H18A15094   5.980   7.120   8.632 -0.2421 -1.3726  0.3616
  120CHL1  H18B15095   6.063   7.012   8.510  0.9093  0.4838  0.7694
  120CHL1  H18C15096   6.014   7.178   8.465 -0.9562 -0.1959 -1.0113
  120CHL1   C1215097   5.731   7.144   8.487  0.3631  0.5959  1.0841
  120CHL1  H12A15098   5.746   7.248   8.450  0.8850  0.2998  0.4429
  120CHL1  H12B15099   5.639   7.115   8.432  0.7099  0.3867  0.6035
  120CHL1   C1115100   5.707   7.148   8.636 -0.6076 -0.4436 -0.0723
  120CHL1  H11A15101   5.794   7.207   8.673 -1.3347 -0.0946  1.1357
  120CHL1  H11B15102   5.624   7.219   8.655  0.6065  1.6250 -2.0381
  120CHL1    C915103   5.692   7.023   8.720  0.1948 -0.4988 -0.4407
  120CHL1    H915104   5.591   6.981   8.702 -0.3647  0.3847  0.5361
  120CHL1   C1015105   5.697   7.041   8.871  0.1455 -0.2945 -0.1173
  120CHL1   C1915106   5.832   7.114   8.908 -0.2992  0.0712  0.0473
  120CHL1  H19A15107   5.845   7.124   9.018 -0.8329 -0.3099  0.1524
  120CHL1  H19B15108   5.924   7.058   8.883  0.6000  0.7277  1.7280
  120CHL1  H19C15109   5.838   7.215   8.862 -1.6704  1.1060  1.9924
  120CHL1    C115110   5.582   7.130   8.923  0.4099 -0.7463 -0.5585
  120CHL1   H1A15111   5.599   7.235   8.890 -0.6408  0.2740  1.8438
  120CHL1   H1B15112   5.493   7.096   8.866 -1.1932  1.2583  0.5504
  120CHL1    C215113   5.558   7.130   9.078 -0.0068  0.5891  0.0883
  120CHL1   H2A15114   5.466   7.183   9.112  1.4466  1.9818  2.1374
  120CHL1   H2B15115   5.650   7.182   9.114  0.6063 -0.3841 -0.0502
  120CHL1   C2015116   5.959   7.093   8.221  0.2089  0.5163 -0.1310
  120CHL1   H2015117   6.052   7.136   8.263  0.1788  1.2077 -0.7350
  120CHL1   C2115118   5.869   7.218   8.186  0.9657 -0.4067 -0.4295
  120CHL1  H21A15119   5.777   7.173   8.142  1.8721 -0.5990 -2.2205
  120CHL1  H21B15120   5.908   7.298   8.120  0.9982  1.8024  2.0770
  120CHL1  H21C15121   5.836   7.275   8.276 -1.5943  0.4514 -1.8319
  120CHL1   C2215122   6.014   7.025   8.096  0.0798  0.8054 -0.1127
  120CHL1  H22A15123   6.068   6.933   8.129  0.4391  0.6324 -1.1658
  120CHL1  H22B15124   5.932   6.984   8.034  0.3139  1.9775 -1.2178
  120CHL1   C2315125   6.105   7.118   8.020 -0.5586 -0.7205 -0.2111
  120CHL1  H23A15126   6.066   7.220   7.996 -0.5965 -0.7731 -0.3763
  120CHL1  H23B15127   6.195   7.137   8.082 -1.2341  1.7480  0.1553
  120CHL1   C2415128   6.151   7.061   7.886  0.1937 -0.1553 -0.4105
  120CHL1  H24A15129   6.203   6.964   7.904  1.1232  0.3658 -0.1887
  120CHL1  H24B15130   6.063   7.044   7.821 -0.5042  1.2780  0.1233
  120CHL1   C2515131   6.248   7.139   7.797 -0.3618 -0.5773 -0.8642
  120CHL1   H2515132   6.200   7.235   7.771  0.7943  1.5258  3.8234
  120CHL1   C2615133   6.375   7.175   7.874  0.2451  0.1881  0.2682
  120CHL1  H26A15134   6.353   7.209   7.978 -0.6087 -0.8386  0.4363
  120CHL1  H26B15135   6.438   7.086   7.893  1.4111  0.7839 -0.6714
  120CHL1  H26C15136   6.443   7.246   7.822 -1.1816  0.7877 -0.8600
  120CHL1   C2715137   6.281   7.042   7.680 -0.2458 -0.2740 -0.2819
  120CHL1  H27A15138   6.191   6.994   7.636 -1.8267  0.8529  1.5560
  120CHL1  H27B15139   6.319   7.118   7.608 -1.5166  1.2013  0.5403
  120CHL1  H27C15140   6.363   6.972   7.704 -1.1264 -1.3874 -0.4238
  121CHL1    C315141   4.383   5.161   7.074  0.1710  0.1106  0.8341
  121CHL1    H315142   4.349   5.194   7.175  0.4296 -2.2241  1.7425
  121CHL1    O315143   4.264   5.164   6.997  0.3456  0.4768  0.0541
  121CHL1   H3'15144   4.287   5.191   6.908  1.7126  0.5292  0.4013
  121CHL1    C415145   4.495   5.250   7.009 -0.7641 -0.4415  0.2882
  121CHL1   H4A15146   4.504   5.211   6.906 -0.7868 -0.6183  0.3531
  121CHL1   H4B15147   4.457   5.355   7.013 -0.5441 -0.3942  1.7144
  121CHL1    C515148   4.623   5.231   7.091  0.0396  0.1733 -0.1478
  121CHL1    C615149   4.677   5.334   7.156 -0.0273  0.9105 -0.2898
  121CHL1    H615150   4.642   5.435   7.129  1.5606  1.5343 -0.1262
  121CHL1    C715151   4.803   5.352   7.238  0.3903 -0.0488 -0.6541
  121CHL1   H7A15152   4.864   5.437   7.202 -0.3878 -0.5751 -3.4653
  121CHL1   H7B15153   4.779   5.374   7.344  0.1564 -0.3734 -0.6363
  121CHL1    C815154   4.877   5.213   7.232  0.0652  0.5299 -0.9621
  121CHL1    H815155   4.939   5.209   7.140 -0.9925 -0.7473 -1.6601
  121CHL1   C1415156   4.973   5.198   7.342 -0.7838  0.4742 -0.1452
  121CHL1   H1415157   4.913   5.187   7.435  0.4493 -3.5803  0.3881
  121CHL1   C1515158   5.065   5.311   7.376  0.3594  0.9966 -0.7488
  121CHL1  H15A15159   5.112   5.349   7.283  0.0732 -0.9258 -1.7280
  121CHL1  H15B15160   5.002   5.393   7.418 -1.1064  0.6929 -2.2865
  121CHL1   C1615161   5.166   5.240   7.471 -0.7940 -0.0497 -0.1927
  121CHL1  H16A15162   5.270   5.245   7.433 -0.8704 -2.2207 -0.8624
  121CHL1  H16B15163   5.156   5.278   7.575  0.2663 -0.8337  0.2196
  121CHL1   C1715164   5.128   5.089   7.479 -0.7863  0.3549 -0.8325
  121CHL1   H1715165   5.053   5.086   7.561  0.1012  0.5828  0.0160
  121CHL1   C1315166   5.050   5.069   7.348 -0.3681  0.3939 -0.5396
  121CHL1   C1815167   5.154   5.049   7.241  0.0341 -0.3021  0.1198
  121CHL1  H18A15168   5.211   5.143   7.226 -1.4322  0.4506 -0.9352
  121CHL1  H18B15169   5.219   4.959   7.253  1.2914  0.5890  0.2124
  121CHL1  H18C15170   5.090   5.036   7.152 -2.7633  1.0414  1.7991
  121CHL1   C1215171   4.942   4.950   7.353 -0.5984 -0.1970  0.3698
  121CHL1  H12A15172   5.004   4.859   7.345  2.5318  1.7888  0.2958
  121CHL1  H12B15173   4.882   4.973   7.444 -0.5529  0.5335  0.2261
  121CHL1   C1115174   4.853   4.958   7.234  0.4925 -0.9064 -0.3330
  121CHL1  H11A15175   4.913   4.945   7.141 -1.9179 -2.4042 -1.7658
  121CHL1  H11B15176   4.784   4.871   7.231  0.7933 -1.1202 -1.7017
  121CHL1    C915177   4.780   5.095   7.221 -0.0241  0.3461  0.1130
  121CHL1    H915178   4.712   5.105   7.308 -1.8500  0.9415 -1.3135
  121CHL1   C1015179   4.678   5.094   7.105  0.0418  0.5791  0.8305
  121CHL1   C1915180   4.749   5.054   6.964 -0.0622 -0.2064  0.5908
  121CHL1  H19A15181   4.689   5.076   6.874  0.4498  0.6636  0.4574
  121CHL1  H19B15182   4.851   5.097   6.951 -0.3935  0.0607 -1.3670
  121CHL1  H19C15183   4.772   4.945   6.963  1.4550  0.0869  1.1367
  121CHL1    C115184   4.561   4.997   7.138 -0.1116  0.1489  0.3215
  121CHL1   H1A15185   4.614   4.900   7.124  1.3099  1.0889 -1.0482
  121CHL1   H1B15186   4.527   4.997   7.244 -1.6844 -4.8364  0.1020
  121CHL1    C215187   4.435   5.016   7.053  0.2636  0.2842  0.9001
  121CHL1   H2A15188   4.356   4.944   7.084  0.6243 -1.0376 -1.0563
  121CHL1   H2B15189   4.464   5.000   6.947 -1.9510  1.7893 -0.0039
  121CHL1   C2015190   5.240   4.995   7.521  0.0547 -0.5378 -0.2470
  121CHL1   H2015191   5.305   4.996   7.431  0.7258  1.8768  0.1855
  121CHL1   C2115192   5.196   4.850   7.557  0.3040 -0.1208  0.8334
  121CHL1  H21A15193   5.280   4.780   7.578  1.1674  0.5930 -0.0685
  121CHL1  H21B15194   5.151   4.801   7.468  2.0870  0.8836 -0.7127
  121CHL1  H21C15195   5.130   4.857   7.645 -0.6886 -0.5056  0.1340
  121CHL1   C2215196   5.330   5.050   7.633  0.3322 -0.0451 -0.0938
  121CHL1  H22A15197   5.433   5.012   7.617  0.1085 -1.0540  0.7700
  121CHL1  H22B15198   5.341   5.160   7.632  0.3018 -0.0380  0.2552
  121CHL1   C2315199   5.289   5.012   7.779  0.5800  0.2698  0.3175
  121CHL1  H23A15200   5.182   5.042   7.784  1.1947  2.5921  0.8968
  121CHL1  H23B15201   5.309   4.904   7.799 -0.6629 -0.8620 -3.6891
  121CHL1   C2415202   5.346   5.108   7.888 -0.0534  0.4026 -0.2594
  121CHL1  H24A15203   5.456   5.102   7.871 -0.3025 -1.8690 -1.5585
  121CHL1  H24B15204   5.302   5.206   7.861  1.9626  0.6670 -3.0054
  121CHL1   C2515205   5.308   5.070   8.029 -0.6761  0.2849 -0.3103
  121CHL1   H2515206   5.197   5.066   8.036 -0.8005  1.0955 -1.5543
  121CHL1   C2615207   5.370   4.934   8.057 -0.7479  0.8481 -0.8422
  121CHL1  H26A15208   5.357   4.904   8.163  1.3915  0.3973 -0.6500
  121CHL1  H26B15209   5.344   4.849   7.991  0.9925  0.5971 -1.2667
  121CHL1  H26C15210   5.481   4.942   8.048 -0.5911  0.6135  0.6240
  121CHL1   C2715211   5.356   5.170   8.125 -0.3040 -0.3170 -0.2904
  121CHL1  H27A15212   5.467   5.165   8.121 -0.2806  0.6176 -1.2874
  121CHL1  H27B15213   5.321   5.275   8.115  2.2894  0.8249  1.6066
  121CHL1  H27C15214   5.326   5.135   8.226 -1.4095  0.3884 -0.3589
  122CHL1    C315215   3.293   4.665   7.056 -0.1760  0.1853  0.1921
  122CHL1    H315216   3.185   4.646   7.075 -0.5881  1.7245 -0.4618
  122CHL1    O315217   3.313   4.708   6.921 -0.4278  0.2223 -0.3501
  122CHL1   H3'15218   3.267   4.791   6.914  2.5455  1.8690 -2.9152
  122CHL1    C415219   3.357   4.772   7.153  0.3248  0.3214 -0.2683
  122CHL1   H4A15220   3.463   4.781   7.122  0.0855 -1.7304 -1.9097
  122CHL1   H4B15221   3.307   4.868   7.131  0.2077  0.1039 -0.9640
  122CHL1    C515222   3.335   4.733   7.299  0.2149 -0.1282  0.6419
  122CHL1    C615223   3.264   4.813   7.382 -0.5758  0.6092  0.2492
  122CHL1    H615224   3.217   4.906   7.346  1.9231  3.2129  3.1349
  122CHL1    C715225   3.270   4.780   7.533  0.2000  0.1268  0.0472
  122CHL1   H7A15226   3.306   4.871   7.586  0.1609 -0.1865  0.6218
  122CHL1   H7B15227   3.170   4.749   7.570  0.6965 -1.1635  0.3840
  122CHL1    C815228   3.373   4.672   7.571  0.3310  0.1600 -0.7732
  122CHL1    H815229   3.475   4.715   7.565  0.5687  0.2608  2.3530
  122CHL1   C1415230   3.346   4.628   7.713  0.2964 -0.3619 -0.1877
  122CHL1   H1415231   3.239   4.599   7.711 -0.6681  2.7703 -0.6214
  122CHL1   C1515232   3.364   4.730   7.829  0.0075 -0.1969 -0.6889
  122CHL1  H15A15233   3.466   4.774   7.823  0.4027 -0.5124  2.3813
  122CHL1  H15B15234   3.284   4.806   7.835  0.8922  1.2049 -4.1101
  122CHL1   C1615235   3.374   4.644   7.956 -0.4940  0.1146  0.6626
  122CHL1  H16A15236   3.471   4.670   8.004  1.4643 -2.0916 -1.8275
  122CHL1  H16B15237   3.290   4.655   8.028 -1.2066 -0.6835 -0.0323
  122CHL1   C1715238   3.383   4.496   7.911 -0.1908 -0.2162  0.4389
  122CHL1   H1715239   3.278   4.462   7.900 -0.3102  0.8331 -2.6464
  122CHL1   C1315240   3.429   4.507   7.765 -0.6810 -0.5803  0.9727
  122CHL1   C1815241   3.577   4.533   7.754 -0.7671 -0.1446 -0.2233
  122CHL1  H18A15242   3.639   4.443   7.776 -0.7647 -0.4014 -1.2231
  122CHL1  H18B15243   3.616   4.581   7.661 -3.1908  2.1886 -0.1648
  122CHL1  H18C15244   3.611   4.601   7.835  0.0435  0.2670 -0.8980
  122CHL1   C1215245   3.386   4.391   7.681  0.8032 -0.4229 -0.0026
  122CHL1  H12A15246   3.435   4.295   7.710 -0.5703 -0.8646  0.9442
  122CHL1  H12B15247   3.277   4.373   7.692  0.4875  0.6602 -1.1171
  122CHL1   C1115248   3.422   4.417   7.528 -0.0100  0.3702 -0.4540
  122CHL1  H11A15249   3.532   4.426   7.516 -0.2571 -0.2520 -4.3503
  122CHL1  H11B15250   3.390   4.331   7.465 -1.4638  0.0733  0.6337
  122CHL1    C915251   3.361   4.551   7.473 -0.0847  0.1516  0.2374
  122CHL1    H915252   3.252   4.532   7.473 -0.3662  1.6896 -0.2432
  122CHL1   C1015253   3.408   4.598   7.335 -0.0730 -0.9279  0.2853
  122CHL1   C1915254   3.561   4.618   7.322 -0.0238 -0.2561 -1.4938
  122CHL1  H19A15255   3.605   4.658   7.228  0.1928  1.8015 -0.5572
  122CHL1  H19B15256   3.605   4.690   7.394  0.4053  0.4763 -2.4673
  122CHL1  H19C15257   3.610   4.521   7.346 -1.9075 -0.8874  0.0644
  122CHL1    C115258   3.364   4.494   7.226 -0.3762  0.6842  0.5342
  122CHL1   H1A15259   3.415   4.396   7.234  0.2947  0.9571 -0.2626
  122CHL1   H1B15260   3.258   4.467   7.248 -0.1740 -2.5034 -1.7462
  122CHL1    C215261   3.371   4.539   7.076 -0.8336 -0.2004 -0.1246
  122CHL1   H2A15262   3.343   4.453   7.012 -1.0396 -0.3135  0.1162
  122CHL1   H2B15263   3.480   4.561   7.069 -0.9099  0.2336  0.0130
  122CHL1   C2015264   3.452   4.394   7.999 -0.3635  0.2693 -0.6974
  122CHL1   H2015265   3.518   4.330   7.937  1.4493  1.2525  0.1363
  122CHL1   C2115266   3.338   4.305   8.054  0.1957 -0.5760  0.2246
  122CHL1  H21A15267   3.376   4.213   8.103  2.2014  1.0093  1.8084
  122CHL1  H21B15268   3.274   4.266   7.972  0.7204 -0.4418 -0.2557
  122CHL1  H21C15269   3.277   4.356   8.132  1.1397  0.4041  0.3406
  122CHL1   C2215270   3.554   4.446   8.106  0.1889  0.7526  0.2955
  122CHL1  H22A15271   3.635   4.488   8.042  0.8950  0.0535  0.7076
  122CHL1  H22B15272   3.503   4.515   8.176  1.3591  4.3009 -2.0722
  122CHL1   C2315273   3.635   4.331   8.185  0.4625  0.1680 -0.1497
  122CHL1  H23A15274   3.572   4.306   8.273 -0.8438  0.5294 -0.9453
  122CHL1  H23B15275   3.649   4.243   8.119  1.2307 -0.2294  0.5297
  122CHL1   C2415276   3.774   4.368   8.243 -0.9024  0.3030  0.1637
  122CHL1  H24A15277   3.840   4.395   8.158 -0.3679 -3.3576 -0.7306
  122CHL1  H24B15278   3.759   4.458   8.307 -1.7518 -0.0888  0.5379
  122CHL1   C2515279   3.844   4.264   8.333 -1.1839 -1.1463  0.6909
  122CHL1   H2515280   3.876   4.171   8.281 -1.3674 -1.2516  0.7626
  122CHL1   C2615281   3.973   4.322   8.401  0.1266  0.3155 -0.0948
  122CHL1  H26A15282   4.014   4.250   8.475 -1.7110 -0.3807  0.3046
  122CHL1  H26B15283   4.054   4.363   8.337  1.3249  1.2389  1.9105
  122CHL1  H26C15284   3.943   4.418   8.447 -2.3685 -0.5587  0.2475
  122CHL1   C2715285   3.747   4.220   8.444 -1.0376  0.6853  0.3822
  122CHL1  H27A15286   3.699   4.310   8.487  0.4062  1.4618  0.4017
  122CHL1  H27B15287   3.674   4.149   8.399  0.2914 -1.3153  1.2699
  122CHL1  H27C15288   3.810   4.169   8.520 -0.5546 -1.9325 -1.6415
  123CHL1    C315289   5.421   3.585   6.800 -0.4714 -0.3168  0.5746
  123CHL1    H315290   5.531   3.573   6.789 -0.2875  1.0634  0.7369
  123CHL1    O315291   5.355   3.508   6.701  0.2126  0.7917 -0.1288
  123CHL1   H3'15292   5.261   3.519   6.716 -0.1636 -0.1061 -1.5976
  123CHL1    C415293   5.361   3.530   6.933 -0.0473  0.2265 -0.4986
  123CHL1   H4A15294   5.250   3.540   6.930 -0.5696 -3.4679  1.3204
  123CHL1   H4B15295   5.384   3.422   6.946 -0.6296  0.1939  0.3606
  123CHL1    C515296   5.401   3.621   7.047  0.3417  0.0819 -0.4902
  123CHL1    C615297   5.464   3.570   7.155 -0.3245  0.1654 -0.3854
  123CHL1    H615298   5.474   3.461   7.157  2.2581  0.3148 -1.3222
  123CHL1    C715299   5.502   3.651   7.284 -0.0824 -0.2465 -0.2536
  123CHL1   H7A15300   5.501   3.581   7.369 -0.1077  0.2823  0.1866
  123CHL1   H7B15301   5.610   3.678   7.274  0.1007 -1.4306 -2.0231
  123CHL1    C815302   5.429   3.788   7.287  0.0565  0.4768 -0.8026
  123CHL1    H815303   5.322   3.773   7.313  0.6262 -0.6075  1.1029
  123CHL1   C1415304   5.485   3.871   7.409 -0.4496 -0.0418  0.3971
  123CHL1   H1415305   5.593   3.885   7.382 -1.3443  1.3292 -3.1188
  123CHL1   C1515306   5.469   3.817   7.550 -0.4558  0.3175  0.2797
  123CHL1  H15A15307   5.363   3.783   7.555  0.5781 -3.3220 -0.3724
  123CHL1  H15B15308   5.526   3.723   7.562 -1.3540 -0.4169 -0.9679
  123CHL1   C1615309   5.524   3.938   7.629  0.1494 -0.9901 -0.2378
  123CHL1  H16A15310   5.459   3.946   7.719 -0.4072 -3.0695 -0.4054
  123CHL1  H16B15311   5.628   3.922   7.663  0.2973  0.3971  0.0250
  123CHL1   C1715312   5.522   4.070   7.543 -0.2539  0.2234 -0.7316
  123CHL1   H1715313   5.624   4.098   7.508 -0.2968  0.1249 -0.9376
  123CHL1   C1315314   5.444   4.021   7.416 -0.2340  0.3228 -0.0136
  123CHL1   C1815315   5.292   4.034   7.438  0.0106 -0.0713  0.2042
  123CHL1  H18A15316   5.262   3.987   7.535  0.0202 -1.7131 -0.5443
  123CHL1  H18B15317   5.265   4.140   7.418  0.1670  0.0109  0.4224
  123CHL1  H18C15318   5.244   3.977   7.355  1.8477  0.9472 -1.6508
  123CHL1   C1215319   5.489   4.089   7.284  0.1242 -0.1166  0.4848
  123CHL1  H12A15320   5.473   4.199   7.284 -2.4201 -0.4010  1.4971
  123CHL1  H12B15321   5.599   4.078   7.278  0.4102  1.5105  1.9124
  123CHL1   C1115322   5.426   4.013   7.164 -0.1362 -0.5460  0.7950
  123CHL1  H11A15323   5.317   4.032   7.155 -1.2833 -6.1362 -1.0383
  123CHL1  H11B15324   5.483   4.048   7.075 -0.8654  1.5027  1.0652
  123CHL1    C915325   5.435   3.853   7.154  0.3548 -0.3490  0.8155
  123CHL1    H915326   5.545   3.844   7.141  0.7644  2.9573  1.2761
  123CHL1   C1015327   5.368   3.773   7.036 -0.1370 -0.1460  0.3023
  123CHL1   C1915328   5.219   3.810   7.039 -0.5344  0.7598  0.0495
  123CHL1  H19A15329   5.154   3.758   6.965  0.4734 -0.2672 -0.1363
  123CHL1  H19B15330   5.178   3.779   7.138 -1.0009  1.7158  0.1708
  123CHL1  H19C15331   5.200   3.919   7.033  0.7662  0.9258 -1.5841
  123CHL1    C115332   5.432   3.820   6.897 -0.2419  0.3056 -0.3866
  123CHL1   H1A15333   5.392   3.922   6.884  0.0466  0.2392 -2.0846
  123CHL1   H1B15334   5.542   3.816   6.914 -0.1984  0.2714 -0.6679
  123CHL1    C215335   5.376   3.730   6.783  0.3972 -0.0662 -0.6150
  123CHL1   H2A15336   5.402   3.779   6.687  0.7254  2.6219  0.7558
  123CHL1   H2B15337   5.265   3.734   6.793  0.4939  0.2737  0.6043
  123CHL1   C2015338   5.455   4.181   7.622  0.0119  0.0778 -0.3092
  123CHL1   H2015339   5.345   4.167   7.629 -0.0885  1.6261  1.9835
  123CHL1   C2115340   5.470   4.309   7.536 -0.1043  0.0302  0.2860
  123CHL1  H21A15341   5.409   4.289   7.445  2.5398 -1.0839 -1.3552
  123CHL1  H21B15342   5.572   4.324   7.496 -0.7000  2.4898 -0.5042
  123CHL1  H21C15343   5.437   4.401   7.588 -2.6973  0.2746 -1.5700
  123CHL1   C2215344   5.512   4.218   7.764 -0.4828 -0.5309  0.1268
  123CHL1  H22A15345   5.467   4.313   7.799 -0.4923 -0.6463  0.4356
  123CHL1  H22B15346   5.481   4.137   7.834 -2.0375 -2.6059 -2.7409
  123CHL1   C2315347   5.660   4.233   7.761  0.3839 -0.0524 -0.3856
  123CHL1  H23A15348   5.705   4.134   7.741  1.4908  0.1519  0.9677
  123CHL1  H23B15349   5.686   4.304   7.680 -0.5618  0.8159  0.0444
  123CHL1   C2415350   5.722   4.283   7.891 -0.6731 -0.4240  0.1792
  123CHL1  H24A15351   5.674   4.377   7.928 -2.5617 -1.5155  0.6322
  123CHL1  H24B15352   5.708   4.216   7.978 -0.8694 -1.1483 -0.4065
  123CHL1   C2515353   5.875   4.299   7.898 -0.6206 -0.2397  0.8457
  123CHL1   H2515354   5.902   4.301   8.006  0.5261 -1.2819  0.6002
  123CHL1   C2615355   5.959   4.173   7.847  0.0871 -0.9293 -0.0359
  123CHL1  H26A15356   5.940   4.079   7.903 -3.1801 -0.0925  0.4821
  123CHL1  H26B15357   5.929   4.166   7.740  1.5075  1.3366 -0.6392
  123CHL1  H26C15358   6.067   4.197   7.839  0.0007 -0.9596 -1.5400
  123CHL1   C2715359   5.918   4.425   7.817 -0.0359  0.2992  0.5565
  123CHL1  H27A15360   5.880   4.426   7.712  1.8746 -2.4938 -0.2945
  123CHL1  H27B15361   5.865   4.510   7.865 -2.3119 -0.0456 -1.1463
  123CHL1  H27C15362   6.028   4.438   7.821  0.1026 -0.7924  0.5521
  124CHL1    C315363   3.093   5.920   7.175 -0.0421 -0.8550 -0.0273
  124CHL1    H315364   3.040   6.004   7.224  0.3207 -0.1122 -0.8919
  124CHL1    O315365   3.135   5.965   7.046 -0.0392 -0.2176 -0.1611
  124CHL1   H3'15366   3.054   5.947   6.999 -0.6987 -1.7315  1.4377
  124CHL1    C415367   3.220   5.892   7.255 -0.3125  0.1715 -0.1342
  124CHL1   H4A15368   3.278   5.821   7.192  0.8512  1.1394 -0.1938
  124CHL1   H4B15369   3.286   5.981   7.253 -1.5351  1.0858 -0.6852
  124CHL1    C515370   3.180   5.850   7.393  0.6670 -0.1418 -0.2467
  124CHL1    C615371   3.238   5.912   7.499 -0.0618  0.9428 -0.5007
  124CHL1    H615372   3.314   5.991   7.497  1.6533 -0.4375  2.8256
  124CHL1    C715373   3.200   5.883   7.640  0.5136  0.0517  0.0063
  124CHL1   H7A15374   3.294   5.866   7.697 -0.0430 -1.3649  0.5251
  124CHL1   H7B15375   3.154   5.974   7.685  4.1491  1.3785  1.4569
  124CHL1    C815376   3.110   5.761   7.658 -0.0290 -0.2772  0.9012
  124CHL1    H815377   3.190   5.685   7.644  0.8285  0.7583  0.0386
  124CHL1   C1415378   3.044   5.752   7.798  0.5708  0.0263  0.4519
  124CHL1   H1415379   2.966   5.830   7.783  2.2768  1.6731 -0.2913
  124CHL1   C1515380   3.123   5.805   7.924  0.3873  0.9464 -0.8108
  124CHL1  H15A15381   3.227   5.769   7.909  1.0149  2.1114  0.5896
  124CHL1  H15B15382   3.115   5.916   7.923  1.4039  1.0348  0.1903
  124CHL1   C1615383   3.035   5.743   8.039 -0.3446 -0.2904 -0.2275
  124CHL1  H16A15384   3.103   5.690   8.110 -2.3484 -0.7549  1.4359
  124CHL1  H16B15385   2.984   5.823   8.096  0.2940 -0.8861  1.2234
  124CHL1   C1715386   2.930   5.647   7.974 -0.0142 -0.5528  0.7325
  124CHL1   H1715387   2.837   5.706   7.961  0.8091  0.7874  0.8391
  124CHL1   C1315388   2.986   5.617   7.831 -0.1238 -0.7176  0.5092
  124CHL1   C1815389   3.100   5.514   7.832 -0.0784 -0.4843 -0.1841
  124CHL1  H18A15390   3.079   5.421   7.888  0.4504 -1.5619 -1.7096
  124CHL1  H18B15391   3.128   5.483   7.729 -1.7106 -0.5549 -0.6382
  124CHL1  H18C15392   3.191   5.555   7.880  0.1658  0.2360 -1.2417
  124CHL1   C1215393   2.877   5.586   7.725 -0.3701 -0.5689  0.3562
  124CHL1  H12A15394   2.839   5.482   7.734  1.8351 -1.8964 -3.1693
  124CHL1  H12B15395   2.792   5.657   7.733  0.2624  0.3412 -0.5872
  124CHL1   C1115396   2.930   5.604   7.581 -0.8137 -0.3923  0.0936
  124CHL1  H11A15397   3.002   5.521   7.566  0.5663  1.0205 -1.4864
  124CHL1  H11B15398   2.847   5.589   7.508 -0.2567 -0.8026 -0.4625
  124CHL1    C915399   3.007   5.737   7.548  0.2568  0.0733 -0.6682
  124CHL1    H915400   2.935   5.821   7.558  1.6566  1.2890 -0.3314
  124CHL1   C1015401   3.069   5.741   7.408  0.5611  0.0668  0.2817
  124CHL1   C1915402   3.150   5.609   7.378  0.0790 -0.4590  0.0686
  124CHL1  H19A15403   3.078   5.526   7.362 -0.1755 -0.4107  0.9502
  124CHL1  H19B15404   3.196   5.609   7.277 -0.2181  0.0580 -0.0758
  124CHL1  H19C15405   3.217   5.592   7.464 -1.6404 -3.7126  0.9179
  124CHL1    C115406   2.951   5.760   7.307 -0.4553  0.3527  0.7236
  124CHL1   H1A15407   2.896   5.663   7.306  1.1983 -0.6762  2.9727
  124CHL1   H1B15408   2.889   5.841   7.352 -1.9447  0.0605 -0.7125
  124CHL1    C215409   2.997   5.800   7.160  0.3080 -0.5800 -0.9540
  124CHL1   H2A15410   2.905   5.829   7.105  0.6830  0.5687 -1.0062
  124CHL1   H2B15411   3.057   5.715   7.121 -0.0857 -1.6344  0.6494
  124CHL1   C2015412   2.896   5.528   8.065 -0.2996 -0.1987  0.5599
  124CHL1   H2015413   2.988   5.467   8.074  1.1024  1.1437 -2.9071
  124CHL1   C2115414   2.788   5.437   8.007 -0.7682 -0.0281  0.1286
  124CHL1  H21A15415   2.696   5.492   7.980  0.2235  1.4210 -0.4054
  124CHL1  H21B15416   2.742   5.358   8.069 -4.3930  2.0230  0.3187
  124CHL1  H21C15417   2.827   5.389   7.914  0.7397 -0.3552  0.9019
  124CHL1   C2215418   2.862   5.568   8.213 -0.0859 -0.0459  0.4226
  124CHL1  H22A15419   2.951   5.617   8.258 -0.8393  2.5168 -0.7107
  124CHL1  H22B15420   2.788   5.650   8.198  0.9034  0.9011  0.6495
  124CHL1   C2315421   2.811   5.459   8.310 -0.6190 -0.2806 -0.4789
  124CHL1  H23A15422   2.805   5.508   8.410  1.1426 -0.0217 -0.4733
  124CHL1  H23B15423   2.709   5.427   8.279 -0.9923  0.4837 -0.0913
  124CHL1   C2415424   2.915   5.345   8.336  0.0294 -0.6332  0.7911
  124CHL1  H24A15425   2.964   5.303   8.245  2.0081 -3.3963  2.9381
  124CHL1  H24B15426   3.005   5.388   8.385 -0.8192  2.2583 -0.0194
  124CHL1   C2515427   2.857   5.230   8.415  0.5771 -0.6477 -0.5135
  124CHL1   H2515428   2.791   5.274   8.493  0.4927  1.6832 -1.8127
  124CHL1   C2615429   2.767   5.148   8.320 -0.2623 -0.0038 -0.5517
  124CHL1  H26A15430   2.837   5.103   8.247  0.1322 -0.5416  0.1501
  124CHL1  H26B15431   2.718   5.077   8.391  1.9135 -0.8268  0.2233
  124CHL1  H26C15432   2.689   5.210   8.271  0.1876 -0.0081 -1.2859
  124CHL1   C2715433   2.972   5.153   8.483 -0.1410  0.3804 -0.2740
  124CHL1  H27A15434   3.036   5.222   8.541  0.1812  1.1166 -1.4700
  124CHL1  H27B15435   2.927   5.068   8.538 -1.0096  0.4694 -0.8200
  124CHL1  H27C15436   3.039   5.109   8.405  1.5249  0.3313  1.1185
  125CHL1    C315437   4.826   6.275   6.806 -0.4238 -0.0772  0.2704
  125CHL1    H315438   4.929   6.255   6.842 -0.1036 -0.4457 -0.8171
  125CHL1    O315439   4.824   6.259   6.663 -0.0788  0.3611 -0.7171
  125CHL1   H3'15440   4.864   6.172   6.667  0.7652  0.7634  2.6453
  125CHL1    C415441   4.734   6.172   6.872 -0.0778 -0.3486 -0.7228
  125CHL1   H4A15442   4.632   6.158   6.829  0.3057  1.5904 -2.4382
  125CHL1   H4B15443   4.790   6.078   6.856 -1.6307 -1.9926  2.5951
  125CHL1    C515444   4.721   6.196   7.020  0.2284 -0.5725  0.0500
  125CHL1    C615445   4.757   6.101   7.107 -0.2871 -0.1324  0.0692
  125CHL1    H615446   4.789   6.004   7.067 -0.9363 -0.0481 -0.6682
  125CHL1    C715447   4.734   6.117   7.257  0.0152  0.1910 -0.2543
  125CHL1   H7A15448   4.702   6.018   7.297  2.6553 -1.4228 -1.8485
  125CHL1   H7B15449   4.832   6.134   7.306 -0.5910 -0.9881  1.4629
  125CHL1    C815450   4.647   6.239   7.296  0.7838  0.1745  0.3589
  125CHL1    H815451   4.543   6.210   7.270  2.0636 -1.8721 -3.1795
  125CHL1   C1415452   4.664   6.279   7.447  0.2867  0.2103 -0.6590
  125CHL1   H1415453   4.773   6.293   7.457  0.4637 -0.4668 -1.4975
  125CHL1   C1515454   4.625   6.185   7.552 -0.3817  0.0174 -0.7314
  125CHL1  H15A15455   4.525   6.144   7.526 -1.0146  0.8727  0.2706
  125CHL1  H15B15456   4.696   6.103   7.576 -0.6544  0.1273  0.5172
  125CHL1   C1615457   4.625   6.261   7.684  0.2083  0.2079 -0.1674
  125CHL1  H16A15458   4.529   6.242   7.737  0.2393 -1.1788 -0.5666
  125CHL1  H16B15459   4.714   6.235   7.745 -0.2454  0.8128  0.7744
  125CHL1   C1715460   4.628   6.411   7.646 -0.0889 -0.1954  0.2896
  125CHL1   H1715461   4.733   6.442   7.666 -0.2486  0.1302  0.6617
  125CHL1   C1315462   4.596   6.408   7.490  0.8764  0.2266 -0.5767
  125CHL1   C1815463   4.437   6.397   7.464 -0.2252 -1.0746 -0.3354
  125CHL1  H18A15464   4.418   6.392   7.355  3.2540  0.2397 -1.1349
  125CHL1  H18B15465   4.386   6.304   7.497 -0.9921 -0.5153  0.1037
  125CHL1  H18C15466   4.375   6.481   7.503  0.2068 -1.0885  0.3976
  125CHL1   C1215467   4.650   6.528   7.410  0.0871 -0.0974 -0.2923
  125CHL1  H12A15468   4.602   6.627   7.427  0.4269  0.2349 -1.2247
  125CHL1  H12B15469   4.759   6.533   7.429  0.0984  0.8801 -0.5748
  125CHL1   C1115470   4.635   6.503   7.258 -0.7473  0.3553 -0.7797
  125CHL1  H11A15471   4.527   6.491   7.232 -0.5239 -1.0944 -1.1090
  125CHL1  H11B15472   4.678   6.584   7.197 -0.3008  0.5720 -0.1868
  125CHL1    C915473   4.690   6.364   7.213 -0.4226 -0.5854  0.1454
  125CHL1    H915474   4.798   6.374   7.234 -0.5461 -1.0924  1.0897
  125CHL1   C1015475   4.685   6.341   7.062 -1.6236  0.2785  0.6459
  125CHL1   C1915476   4.543   6.368   7.007 -0.3827  0.2629  0.3408
  125CHL1  H19A15477   4.528   6.337   6.902 -2.5747  1.9951  0.0694
  125CHL1  H19B15478   4.457   6.315   7.053  0.7953 -1.8362  0.2221
  125CHL1  H19C15479   4.517   6.475   7.021 -2.2203 -0.1419  0.2829
  125CHL1    C115480   4.785   6.441   6.992  0.8025  0.0705  0.4430
  125CHL1   H1A15481   4.755   6.546   7.011 -0.4177 -0.1309 -0.2665
  125CHL1   H1B15482   4.886   6.432   7.038  0.3941  0.3729  1.4242
  125CHL1    C215483   4.796   6.425   6.837 -0.4416  0.1548 -0.8141
  125CHL1   H2A15484   4.871   6.489   6.787  1.0480  0.5787  1.8015
  125CHL1   H2B15485   4.698   6.446   6.788 -0.4362  1.2255 -0.3892
  125CHL1   C2015486   4.548   6.510   7.741 -0.2863  0.0072  0.3623
  125CHL1   H2015487   4.443   6.477   7.734 -0.0176 -0.6544 -0.6998
  125CHL1   C2115488   4.576   6.658   7.715  0.4726  0.2569 -0.0482
  125CHL1  H21A15489   4.570   6.689   7.608  2.9066 -2.0160 -0.9434
  125CHL1  H21B15490   4.676   6.701   7.736  0.1352  2.3080 -2.1919
  125CHL1  H21C15491   4.511   6.725   7.775 -0.2382  2.7519 -3.3147
  125CHL1   C2215492   4.586   6.476   7.887 -0.1552  0.3783 -0.1617
  125CHL1  H22A15493   4.563   6.369   7.909  2.5397  0.0060  1.3826
  125CHL1  H22B15494   4.696   6.489   7.897 -0.1414  0.7926 -0.8193
  125CHL1   C2315495   4.522   6.552   8.004  0.6552  0.5281  0.0653
  125CHL1  H23A15496   4.566   6.509   8.096 -2.1925 -1.6972  0.5365
  125CHL1  H23B15497   4.548   6.660   8.004  1.5297  0.3843  2.8135
  125CHL1   C2415498   4.368   6.525   8.042  0.1288  0.3275 -0.6732
  125CHL1  H24A15499   4.302   6.556   7.959 -1.4253  2.1924  1.1522
  125CHL1  H24B15500   4.352   6.418   8.065 -3.4824  0.3178 -2.5246
  125CHL1   C2515501   4.331   6.598   8.173 -0.6150  0.3058  0.2230
  125CHL1   H2515502   4.350   6.705   8.153 -1.4870  0.6409  1.1327
  125CHL1   C2615503   4.177   6.584   8.204  0.7311  0.0760  0.1238
  125CHL1  H26A15504   4.151   6.652   8.288 -0.5321 -0.6691  0.3532
  125CHL1  H26B15505   4.116   6.607   8.114  2.8500  0.3113 -1.3308
  125CHL1  H26C15506   4.146   6.482   8.233 -1.9700 -0.2278 -3.1962
  125CHL1   C2715507   4.411   6.549   8.293  0.1589 -0.0432 -0.5972
  125CHL1  H27A15508   4.517   6.584   8.300 -0.1399  1.2118 -1.9976
  125CHL1  H27B15509   4.353   6.581   8.382 -0.3579 -0.1724 -0.8879
  125CHL1  H27C15510   4.404   6.438   8.296 -0.6178 -0.0600 -2.1491
  126CHL1    C315511   2.506   5.887   6.858  0.5465 -0.2343 -0.5490
  126CHL1    H315512   2.596   5.948   6.877 -0.2635  0.9723 -0.5000
  126CHL1    O315513   2.502   5.848   6.722 -0.0077 -0.1049 -0.1549
  126CHL1   H3'15514   2.575   5.787   6.713  0.7127  0.2577  2.5561
  126CHL1    C415515   2.521   5.767   6.948  0.1912  0.6565 -0.3437
  126CHL1   H4A15516   2.451   5.685   6.922  2.2977 -1.3331 -0.0933
  126CHL1   H4B15517   2.616   5.718   6.918 -0.5940 -0.2328 -1.4554
  126CHL1    C515518   2.511   5.793   7.097 -0.2518 -0.2770  0.3193
  126CHL1    C615519   2.608   5.760   7.179 -0.8288  0.0728 -0.9283
  126CHL1    H615520   2.696   5.710   7.137 -0.5241 -0.1678 -0.0031
  126CHL1    C715521   2.606   5.779   7.328 -0.3335 -0.5784  0.0308
  126CHL1   H7A15522   2.649   5.691   7.380 -1.5720 -1.5856 -0.5816
  126CHL1   H7B15523   2.675   5.863   7.352 -0.6785 -0.6764  1.4482
  126CHL1    C815524   2.462   5.811   7.374  0.0371  1.1925 -0.9160
  126CHL1    H815525   2.402   5.718   7.379 -1.5143  2.2082 -0.0972
  126CHL1   C1415526   2.466   5.865   7.516  0.9588  0.6117 -0.1546
  126CHL1   H1415527   2.534   5.953   7.516  1.2086  0.4342 -1.1721
  126CHL1   C1515528   2.517   5.780   7.632 -0.3809 -0.4898 -0.2077
  126CHL1  H15A15529   2.464   5.682   7.640 -0.1293 -0.6943 -0.9756
  126CHL1  H15B15530   2.625   5.758   7.619 -0.5823 -0.8380 -1.3550
  126CHL1   C1615531   2.489   5.865   7.761  0.4242  0.0462  0.2779
  126CHL1  H16A15532   2.450   5.788   7.830  1.3750 -0.1302  0.6438
  126CHL1  H16B15533   2.580   5.906   7.810 -0.2991  0.6452  1.1569
  126CHL1   C1715534   2.395   5.980   7.710  0.3817 -0.2438  0.4920
  126CHL1   H1715535   2.461   6.066   7.686 -0.9170  0.6545 -0.0204
  126CHL1   C1315536   2.335   5.927   7.572  0.4929 -0.3545 -1.0775
  126CHL1   C1815537   2.221   5.821   7.611  0.6495  0.7500  0.3880
  126CHL1  H18A15538   2.128   5.869   7.649  0.4980  0.6278  0.1719
  126CHL1  H18B15539   2.200   5.761   7.520  1.1501  0.4066  0.4975
  126CHL1  H18C15540   2.256   5.750   7.688 -0.0401  1.1252  1.0658
  126CHL1   C1215541   2.277   6.036   7.482 -0.4844  0.2815  0.0091
  126CHL1  H12A15542   2.184   6.071   7.532  1.2862  1.2284  2.8501
  126CHL1  H12B15543   2.348   6.121   7.490 -0.0992 -0.1720  2.0087
  126CHL1   C1115544   2.262   5.977   7.344 -0.4307  0.0864 -0.5401
  126CHL1  H11A15545   2.191   5.891   7.345  0.9273 -1.0664 -0.3569
  126CHL1  H11B15546   2.234   6.059   7.275  1.3141  0.5230 -0.7635
  126CHL1    C915547   2.399   5.921   7.287 -0.0517  0.5940  0.1243
  126CHL1    H915548   2.466   6.009   7.288 -2.0325  2.1982 -0.3946
  126CHL1   C1015549   2.384   5.867   7.141 -0.5074 -0.4649 -0.5373
  126CHL1   C1915550   2.265   5.768   7.141 -0.1862  0.3727  0.7658
  126CHL1  H19A15551   2.168   5.821   7.156 -1.0532 -1.0308  0.3175
  126CHL1  H19B15552   2.243   5.713   7.048 -1.9691  1.6524  0.3765
  126CHL1  H19C15553   2.268   5.699   7.229 -1.0440  0.7220  1.0816
  126CHL1    C115554   2.360   5.988   7.047 -0.1930  0.1418 -1.1913
  126CHL1   H1A15555   2.259   6.033   7.059  0.1521  0.6107  0.1317
  126CHL1   H1B15556   2.431   6.071   7.065  1.6743 -1.3006 -1.6404
  126CHL1    C215557   2.375   5.953   6.895  0.2407  0.4537  0.0443
  126CHL1   H2A15558   2.361   6.048   6.838  0.6988  2.4458  3.0089
  126CHL1   H2B15559   2.292   5.882   6.875  2.0865 -2.1391  0.9781
  126CHL1   C2015560   2.303   6.034   7.818  0.0181 -0.2961  0.0852
  126CHL1   H2015561   2.210   5.973   7.830 -0.1602  0.2078  1.4497
  126CHL1   C2115562   2.272   6.180   7.787  0.2154  0.1830 -0.0599
  126CHL1  H21A15563   2.182   6.214   7.842  0.1078 -0.0098 -0.1117
  126CHL1  H21B15564   2.246   6.190   7.679 -0.8886 -0.7571  0.1036
  126CHL1  H21C15565   2.357   6.251   7.800 -0.0468  0.3016  1.0239
  126CHL1   C2215566   2.355   6.027   7.967 -0.5066  0.2026  1.0887
  126CHL1  H22A15567   2.378   5.919   7.974 -0.8991  0.0293 -0.1539
  126CHL1  H22B15568   2.449   6.083   7.984 -0.0198  0.4510 -1.9459
  126CHL1   C2315569   2.255   6.069   8.073 -0.6593  0.7310  0.0588
  126CHL1  H23A15570   2.246   6.179   8.066  2.1601  0.9955 -0.7139
  126CHL1  H23B15571   2.154   6.026   8.054  0.2418 -1.7083  0.3382
  126CHL1   C2415572   2.315   6.027   8.212 -0.1394 -0.7017 -0.6630
  126CHL1  H24A15573   2.348   5.921   8.223  1.7747 -0.0016  0.9238
  126CHL1  H24B15574   2.407   6.087   8.220 -0.5449 -0.1607  0.0210
  126CHL1   C2515575   2.227   6.046   8.335  0.4145 -0.4145  0.3141
  126CHL1   H2515576   2.197   6.153   8.332  0.9208 -0.2298  1.4489
  126CHL1   C2615577   2.102   5.965   8.322  0.0972  0.6394 -0.0143
  126CHL1  H26A15578   2.035   5.997   8.240 -1.0890 -2.9943 -0.6683
  126CHL1  H26B15579   2.143   5.863   8.300  1.6660  0.9939  1.0781
  126CHL1  H26C15580   2.049   5.967   8.419  1.8668  0.5172  0.9960
  126CHL1   C2715581   2.295   6.020   8.469 -0.4813  0.5312 -0.7439
  126CHL1  H27A15582   2.383   6.088   8.477  0.1357 -0.4325  1.2726
  126CHL1  H27B15583   2.237   6.049   8.559 -0.5733  0.0208 -0.6361
  126CHL1  H27C15584   2.329   5.916   8.485 -0.7137  0.3081 -1.6643
  127CHL1    C315585   5.681   7.027   7.396 -0.0977  0.9054  0.5724
  127CHL1    H315586   5.772   7.064   7.448  0.3595  0.3718  0.1707
  127CHL1    O315587   5.707   7.026   7.253  0.3397  0.0212 -0.3193
  127CHL1   H3'15588   5.753   7.109   7.240  2.9438 -1.4432 -1.2224
  127CHL1    C415589   5.673   6.879   7.445 -0.3677 -0.0545 -0.1045
  127CHL1   H4A15590   5.584   6.844   7.388 -1.0329 -0.6044  1.2269
  127CHL1   H4B15591   5.761   6.823   7.408 -0.2585 -1.2828  1.9190
  127CHL1    C515592   5.651   6.860   7.596 -0.0842 -0.3302 -0.2799
  127CHL1    C615593   5.732   6.793   7.681  0.7670  0.9724  0.6589
  127CHL1    H615594   5.799   6.730   7.622 -0.0884 -1.2072  1.8912
  127CHL1    C715595   5.718   6.774   7.826 -0.4236  0.5603  0.7010
  127CHL1   H7A15596   5.731   6.667   7.855  0.3516  0.5723  0.4316
  127CHL1   H7B15597   5.802   6.829   7.874  0.1814  0.4164 -0.1650
  127CHL1    C815598   5.577   6.825   7.870 -0.4095 -0.4449 -0.2127
  127CHL1    H815599   5.502   6.745   7.851 -0.4896 -0.9662  1.9696
  127CHL1   C1415600   5.571   6.846   8.020 -0.4383 -0.1222 -0.2746
  127CHL1   H1415601   5.641   6.929   8.041 -1.8567  0.5784  2.2378
  127CHL1   C1515602   5.621   6.729   8.106 -0.5768  0.7797  0.0005
  127CHL1  H15A15603   5.581   6.632   8.072 -0.4711  1.6343 -2.8104
  127CHL1  H15B15604   5.732   6.723   8.111 -0.6081  1.1230  1.7237
  127CHL1   C1615605   5.561   6.756   8.243 -0.0178  0.0007  0.8629
  127CHL1  H16A15606   5.487   6.676   8.262  0.3913 -0.2429  1.4520
  127CHL1  H16B15607   5.636   6.759   8.325 -1.8487 -1.0498  2.6589
  127CHL1   C1715608   5.473   6.883   8.238 -0.8547 -0.5730 -0.7396
  127CHL1   H1715609   5.543   6.968   8.252 -0.6787 -0.6301 -1.2297
  127CHL1   C1315610   5.436   6.887   8.084  0.2405 -0.0869  0.4301
  127CHL1   C1815611   5.318   6.782   8.043  0.2300  0.1744 -0.0604
  127CHL1  H18A15612   5.286   6.788   7.937  0.3549  0.4028 -0.0854
  127CHL1  H18B15613   5.359   6.685   8.079  0.0847  0.6213  1.3868
  127CHL1  H18C15614   5.228   6.804   8.105 -0.3259  0.4766 -0.9570
  127CHL1   C1215615   5.412   7.027   8.022  0.7276  0.5122 -0.0646
  127CHL1  H12A15616   5.313   7.066   8.053 -0.9986 -0.8279 -3.4125
  127CHL1  H12B15617   5.492   7.090   8.066 -0.5160  0.7099  2.1051
  127CHL1   C1115618   5.411   7.024   7.867 -0.0465  0.3565 -0.0210
  127CHL1  H11A15619   5.320   6.968   7.836 -0.7565  0.6774  1.4004
  127CHL1  H11B15620   5.402   7.127   7.826 -0.8207  0.7299  1.0544
  127CHL1    C915621   5.538   6.953   7.805 -0.0679 -0.6155  0.2050
  127CHL1    H915622   5.626   7.016   7.830  0.0419 -0.5131 -0.4192
  127CHL1   C1015623   5.532   6.940   7.647 -0.3281  0.0062  0.5871
  127CHL1   C1915624   5.402   6.858   7.604  0.0744 -0.2127 -0.3942
  127CHL1  H19A15625   5.391   6.762   7.659  0.6201 -0.5884 -0.9254
  127CHL1  H19B15626   5.309   6.914   7.627 -0.4905 -1.4908  0.4989
  127CHL1  H19C15627   5.403   6.829   7.497  2.3730 -1.2344 -0.1659
  127CHL1    C115628   5.536   7.088   7.590  0.2659 -0.0339 -0.8032
  127CHL1   H1A15629   5.429   7.116   7.602  0.0691 -1.3064  0.8098
  127CHL1   H1B15630   5.604   7.161   7.639  0.0896 -0.1969 -0.2999
  127CHL1    C215631   5.554   7.103   7.433 -0.4122 -0.6867 -0.2620
  127CHL1   H2A15632   5.568   7.207   7.398 -0.3524 -0.6145 -0.0235
  127CHL1   H2B15633   5.462   7.061   7.387  0.4125 -4.3831  1.1274
  127CHL1   C2015634   5.363   6.891   8.346  0.0384 -0.1220  1.1027
  127CHL1   H2015635   5.296   6.808   8.317  1.4666 -0.8078 -0.4778
  127CHL1   C2115636   5.295   7.027   8.341  0.0946  0.1846  0.3083
  127CHL1  H21A15637   5.214   7.035   8.417 -1.1599  0.1601 -0.9761
  127CHL1  H21B15638   5.242   7.039   8.244  0.8157 -0.8947 -0.2374
  127CHL1  H21C15639   5.365   7.113   8.342 -1.4125  1.5836 -2.4328
  127CHL1   C2215640   5.425   6.874   8.490  0.2321  0.4628 -0.0930
  127CHL1  H22A15641   5.481   6.778   8.494 -0.6786 -0.0405  1.0196
  127CHL1  H22B15642   5.496   6.955   8.517 -0.0763  1.2525 -1.5575
  127CHL1   C2315643   5.304   6.856   8.596 -0.0681 -0.2954  0.1445
  127CHL1  H23A15644   5.226   6.936   8.592 -0.8179 -0.9124  1.7294
  127CHL1  H23B15645   5.257   6.762   8.561  2.0488 -1.1503 -0.5767
  127CHL1   C2415646   5.344   6.828   8.746 -0.0582  0.6466  0.2668
  127CHL1  H24A15647   5.452   6.804   8.754  0.0760 -0.6083 -3.5044
  127CHL1  H24B15648   5.327   6.933   8.777 -1.0587 -0.6108  4.7444
  127CHL1   C2515649   5.257   6.724   8.816  0.6096  0.5411 -0.4566
  127CHL1   H2515650   5.161   6.723   8.760 -0.9113 -0.3116  2.0130
  127CHL1   C2615651   5.332   6.588   8.821  0.3447 -0.4035  0.4189
  127CHL1  H26A15652   5.274   6.504   8.865  0.0829 -1.6498 -2.0954
  127CHL1  H26B15653   5.347   6.559   8.714 -1.5596  1.2429 -0.3593
  127CHL1  H26C15654   5.428   6.579   8.875  1.1927 -1.5600 -1.1910
  127CHL1   C2715655   5.220   6.768   8.951  0.4644 -0.3860 -0.7464
  127CHL1  H27A15656   5.313   6.781   9.010 -1.0966  3.0186  1.2707
  127CHL1  H27B15657   5.157   6.860   8.945 -0.5874 -1.0210  0.1729
  127CHL1  H27C15658   5.161   6.687   8.998  1.5307 -0.2937  0.8213
  128CHL1    C315659   4.319   1.210   6.732  0.1428 -0.1021  0.1557
  128CHL1    H315660   4.302   1.286   6.812 -0.5331  1.1199 -1.1092
  128CHL1    O315661   4.350   1.275   6.607  0.4315 -0.0784 -0.0816
  128CHL1   H3'15662   4.427   1.232   6.570  0.6585  0.6183 -0.4462
  128CHL1    C415663   4.428   1.108   6.769  0.4484  0.1364 -0.0527
  128CHL1   H4A15664   4.442   1.043   6.680  1.2538  0.3795 -0.1107
  128CHL1   H4B15665   4.517   1.174   6.776  0.2012  0.3799  0.8567
  128CHL1    C515666   4.396   1.036   6.903 -0.5925 -0.7533  0.9563
  128CHL1    C615667   4.477   1.040   7.009  0.4272  0.2141 -0.5224
  128CHL1    H615668   4.577   1.084   6.996  0.3856  0.4736 -0.0094
  128CHL1    C715669   4.445   0.958   7.131  0.0878 -0.2821  0.1130
  128CHL1   H7A15670   4.534   0.899   7.162  0.7601  1.4635  1.7143
  128CHL1   H7B15671   4.424   1.023   7.219 -1.3656 -2.1270  1.2197
  128CHL1    C815672   4.324   0.859   7.130 -0.0426 -0.1579  0.0517
  128CHL1    H815673   4.356   0.769   7.073 -0.7645 -0.2567 -0.2064
  128CHL1   C1415674   4.274   0.812   7.270 -0.2198  0.0282  0.5554
  128CHL1   H1415675   4.235   0.906   7.315 -1.5810  0.2823 -1.0580
  128CHL1   C1515676   4.369   0.755   7.370 -0.3449  0.2392  0.4259
  128CHL1  H15A15677   4.414   0.662   7.331 -1.1472  0.4390 -1.0613
  128CHL1  H15B15678   4.450   0.827   7.394 -0.5182  0.7001 -0.3327
  128CHL1   C1615679   4.273   0.710   7.484  0.0123 -0.3588  0.0598
  128CHL1  H16A15680   4.328   0.632   7.540  2.6209  0.7577 -0.7452
  128CHL1  H16B15681   4.257   0.796   7.552  0.4511 -0.2083 -0.0217
  128CHL1   C1715682   4.136   0.690   7.417  0.0260 -0.1958  0.3029
  128CHL1   H1715683   4.073   0.776   7.449 -1.1324 -0.9339  0.0724
  128CHL1   C1315684   4.156   0.712   7.264  0.3549  0.1740 -0.1112
  128CHL1   C1815685   4.196   0.574   7.206  0.4739 -0.1166 -0.1261
  128CHL1  H18A15686   4.108   0.509   7.191 -0.1648  0.5264  0.7220
  128CHL1  H18B15687   4.249   0.582   7.108  1.0310 -1.5699  0.0292
  128CHL1  H18C15688   4.254   0.523   7.285  0.3943  1.0935  0.7505
  128CHL1   C1215689   4.043   0.778   7.186 -0.7016 -0.2421  0.4821
  128CHL1  H12A15690   3.954   0.712   7.179 -0.7214 -0.0556 -2.1265
  128CHL1  H12B15691   4.011   0.866   7.246 -0.2474 -0.1375  0.5714
  128CHL1   C1115692   4.090   0.817   7.041 -0.2041 -0.3901 -0.1523
  128CHL1  H11A15693   4.120   0.718   6.999  2.3646  1.0402 -1.9570
  128CHL1  H11B15694   4.008   0.868   6.986  0.2058 -0.9773 -1.3418
  128CHL1    C915695   4.211   0.917   7.045 -0.8660  0.1230  0.1613
  128CHL1    H915696   4.180   1.011   7.096 -1.6762  0.9283 -1.7191
  128CHL1   C1015697   4.255   0.971   6.902  0.0678  0.1617  0.2462
  128CHL1   C1915698   4.245   0.854   6.799  0.6660 -0.0817 -0.0878
  128CHL1  H19A15699   4.285   0.758   6.839 -1.6487 -1.5791 -1.1104
  128CHL1  H19B15700   4.141   0.830   6.767  0.7098 -1.9860  1.0432
  128CHL1  H19C15701   4.294   0.893   6.707  1.1576 -0.8510 -0.1642
  128CHL1    C115702   4.144   1.068   6.853 -0.3510 -0.0333  0.4705
  128CHL1   H1A15703   4.047   1.014   6.852  0.1964 -1.0385  0.4392
  128CHL1   H1B15704   4.136   1.153   6.924  2.9213  0.5763  0.2598
  128CHL1    C215705   4.180   1.143   6.721  0.5696  0.4244  0.9508
  128CHL1   H2A15706   4.103   1.221   6.707 -0.1821 -0.2850  1.0832
  128CHL1   H2B15707   4.178   1.075   6.633  3.2788  1.3570  0.0669
  128CHL1   C2015708   4.063   0.555   7.457 -0.0505  0.2694 -0.1939
  128CHL1   H2015709   4.126   0.468   7.431 -0.4528 -0.3246  0.7724
  128CHL1   C2115710   3.920   0.535   7.395  0.0431 -0.2074 -0.3498
  128CHL1  H21A15711   3.892   0.428   7.409 -1.1847  0.4856  4.0712
  128CHL1  H21B15712   3.925   0.540   7.284 -1.0915 -1.7017 -0.4994
  128CHL1  H21C15713   3.852   0.611   7.439 -0.5761  0.8643 -2.9752
  128CHL1   C2215714   4.053   0.547   7.613  0.0100  0.0280  0.7667
  128CHL1  H22A15715   4.149   0.565   7.665  0.9296 -0.0737 -0.8355
  128CHL1  H22B15716   3.980   0.624   7.645  1.1322  1.3407  0.2581
  128CHL1   C2315717   4.013   0.407   7.666  0.5987 -0.5816  0.5173
  128CHL1  H23A15718   3.929   0.368   7.604 -0.3425  1.8311  0.1569
  128CHL1  H23B15719   4.095   0.339   7.636  0.9899 -0.0559  0.3674
  128CHL1   C2415720   3.993   0.402   7.813  0.2866 -0.8440 -0.4437
  128CHL1  H24A15721   4.087   0.439   7.860 -0.4977  3.6254 -1.8752
  128CHL1  H24B15722   3.920   0.483   7.836 -1.8536 -2.8212  0.1119
  128CHL1   C2515723   3.950   0.262   7.870 -0.1148  0.3256 -0.2582
  128CHL1   H2515724   4.011   0.184   7.818 -2.7079 -1.0141 -1.4913
  128CHL1   C2615725   3.982   0.263   8.020  0.6972  0.1617  0.0020
  128CHL1  H26A15726   3.971   0.365   8.063 -0.2656  1.2784 -2.6610
  128CHL1  H26B15727   3.914   0.193   8.072  0.8903 -0.0952 -0.0898
  128CHL1  H26C15728   4.086   0.231   8.042  1.7982  1.0118 -3.3057
  128CHL1   C2715729   3.802   0.224   7.843  0.0401  0.2748 -0.1189
  128CHL1  H27A15730   3.801   0.203   7.734  2.6679  0.9371 -0.3471
  128CHL1  H27B15731   3.781   0.147   7.920  2.9180 -0.4721  0.0262
  128CHL1  H27C15732   3.743   0.316   7.863  0.5749  0.2901  1.5279
  129CHL1    C315733   6.217   6.139   7.096  0.3806  0.6422 -0.6248
  129CHL1    H315734   6.266   6.238   7.111  1.5725 -0.4281  4.0360
  129CHL1    O315735   6.254   6.073   6.969 -0.0526 -0.1041 -0.5092
  129CHL1   H3'15736   6.196   6.109   6.901  0.2214 -0.8169 -1.1491
  129CHL1    C415737   6.268   6.042   7.207  0.0365 -0.6244  0.4529
  129CHL1   H4A15738   6.235   5.939   7.180 -1.6917  0.0158 -0.0060
  129CHL1   H4B15739   6.378   6.029   7.196 -0.1634 -3.6117  1.0234
  129CHL1    C515740   6.235   6.058   7.354 -0.0767 -0.2410  0.0398
  129CHL1    C615741   6.327   6.066   7.450 -0.2980  0.4102 -0.1939
  129CHL1    H615742   6.433   6.048   7.428 -0.8106 -0.9492 -1.8181
  129CHL1    C715743   6.296   6.085   7.593  0.4078 -0.5395  0.9592
  129CHL1   H7A15744   6.359   6.017   7.655 -0.7164 -1.5224  1.0711
  129CHL1   H7B15745   6.334   6.185   7.621 -1.3438 -0.2200  2.4213
  129CHL1    C815746   6.146   6.078   7.632 -0.2917 -0.4047 -0.1000
  129CHL1    H815747   6.110   5.975   7.648 -3.2879  0.4636 -0.6241
  129CHL1   C1415748   6.128   6.154   7.763 -0.9217 -0.0120 -0.1424
  129CHL1   H1415749   6.159   6.259   7.742 -1.7819 -0.1675 -2.4479
  129CHL1   C1515750   6.214   6.105   7.877 -0.1529 -0.4003  0.1904
  129CHL1  H15A15751   6.226   5.995   7.866  1.1735 -0.1596 -1.1448
  129CHL1  H15B15752   6.312   6.156   7.863 -0.7584  0.3551 -1.7695
  129CHL1   C1615753   6.141   6.155   8.001 -0.2948 -0.3145  0.3376
  129CHL1  H16A15754   6.101   6.072   8.062 -1.2682 -1.6529 -1.9952
  129CHL1  H16B15755   6.195   6.229   8.064 -0.3709 -0.0493  0.0961
  129CHL1   C1715756   6.012   6.227   7.956  0.2476  0.0951  0.2419
  129CHL1   H1715757   6.036   6.335   7.945 -0.8919  0.5247  1.7081
  129CHL1   C1315758   5.981   6.161   7.815  0.6947 -0.3477  0.4362
  129CHL1   C1815759   5.918   6.015   7.835  0.0343  0.2826 -0.3472
  129CHL1  H18A15760   5.932   5.968   7.735 -0.2413 -1.0987  0.2381
  129CHL1  H18B15761   5.982   5.952   7.900 -0.7432  0.3169  0.4821
  129CHL1  H18C15762   5.812   6.021   7.870  0.0229  4.1950 -0.6291
  129CHL1   C1215763   5.902   6.236   7.706 -0.5292 -0.1014  0.6211
  129CHL1  H12A15764   5.796   6.246   7.735 -0.4930  0.6282  0.5172
  129CHL1  H12B15765   5.946   6.338   7.705 -0.4705 -0.1227 -0.6412
  129CHL1   C1115766   5.917   6.171   7.567 -0.2224 -0.2420  0.7893
  129CHL1  H11A15767   5.860   6.077   7.552 -0.3553 -0.1295  0.5812
  129CHL1  H11B15768   5.871   6.247   7.500 -0.1422 -0.9774 -0.1070
  129CHL1    C915769   6.064   6.150   7.522  0.3213 -0.0167  0.1299
  129CHL1    H915770   6.109   6.252   7.520  0.7092 -0.1911 -0.1596
  129CHL1   C1015771   6.087   6.088   7.386 -0.4143  0.2492  0.1713
  129CHL1   C1915772   6.006   5.945   7.380 -0.5529 -0.4129 -0.4598
  129CHL1  H19A15773   5.896   5.942   7.389 -0.4376  0.8984  3.2885
  129CHL1  H19B15774   6.035   5.882   7.293  1.8209  0.2872 -0.2571
  129CHL1  H19C15775   6.036   5.896   7.475 -0.7265  1.3924  0.5725
  129CHL1    C115776   6.028   6.183   7.276 -0.3214 -0.3973 -0.0928
  129CHL1   H1A15777   5.920   6.200   7.296  0.3354  1.7336  2.0724
  129CHL1   H1B15778   6.073   6.281   7.301  1.3661 -1.3503  0.7357
  129CHL1    C215779   6.062   6.139   7.133  0.2202 -0.0971 -0.8211
  129CHL1   H2A15780   6.009   6.214   7.070 -0.2585  1.0143  0.8345
  129CHL1   H2B15781   6.027   6.035   7.118 -0.7223 -0.0105  0.6101
  129CHL1   C2015782   5.897   6.218   8.063  0.8633 -0.6047 -0.7607
  129CHL1   H2015783   5.860   6.114   8.071 -1.0561 -0.2044 -3.0978
  129CHL1   C2115784   5.778   6.296   8.002 -0.1814 -0.4074 -0.1909
  129CHL1  H21A15785   5.810   6.384   7.944 -1.3022  0.4471  0.4451
  129CHL1  H21B15786   5.716   6.332   8.087  0.8200 -0.5610  0.6318
  129CHL1  H21C15787   5.721   6.227   7.937  1.0733 -1.1905 -0.4924
  129CHL1   C2215788   5.942   6.262   8.206  0.3004  0.1343  0.1059
  129CHL1  H22A15789   5.865   6.239   8.282 -1.2641 -0.4182 -1.5719
  129CHL1  H22B15790   6.033   6.209   8.239  1.5774  1.7789 -0.6010
  129CHL1   C2315791   5.982   6.407   8.224 -0.5572  0.0703  1.2339
  129CHL1  H23A15792   6.082   6.415   8.176 -1.0603 -1.2314 -0.0768
  129CHL1  H23B15793   5.905   6.477   8.186  0.8678  0.7868 -0.4938
  129CHL1   C2415794   5.984   6.447   8.370 -0.4373  0.2273  0.1307
  129CHL1  H24A15795   6.020   6.552   8.379  0.1907  0.0259  0.0140
  129CHL1  H24B15796   5.881   6.447   8.411 -1.0493  0.6172 -1.3198
  129CHL1   C2515797   6.077   6.372   8.459  0.9865 -0.4778  0.5214
  129CHL1   H2515798   6.015   6.282   8.478 -0.0986  0.2933  0.7602
  129CHL1   C2615799   6.224   6.361   8.408  0.3787  0.3764  0.1396
  129CHL1  H26A15800   6.226   6.304   8.313  3.2853  3.4781 -1.8722
  129CHL1  H26B15801   6.257   6.467   8.404  1.6980  0.1382  2.5710
  129CHL1  H26C15802   6.285   6.305   8.483 -1.1205 -0.6280  0.6680
  129CHL1   C2715803   6.068   6.437   8.600 -0.3937  0.3941 -0.7698
  129CHL1  H27A15804   6.116   6.537   8.606  0.2079  0.1464 -1.3468
  129CHL1  H27B15805   5.962   6.456   8.625 -0.9396 -2.2343 -0.7656
  129CHL1  H27C15806   6.102   6.369   8.682 -0.3857  1.1433 -0.1378
  130CHL1    C315807   5.078   0.007   6.980 -0.3129  0.1781  1.3928
  130CHL1    H315808   5.057  -0.102   6.983 -0.2853  0.0403 -1.1960
  130CHL1    O315809   5.116   0.040   6.846 -0.3487 -0.3806 -0.3907
  130CHL1   H3'15810   5.154   0.129   6.848  1.3311 -0.9849  3.3803
  130CHL1    C415811   4.955   0.092   7.017  0.3371  0.4551 -0.3659
  130CHL1   H4A15812   4.983   0.197   6.995  2.2214  0.0583 -0.0603
  130CHL1   H4B15813   4.867   0.065   6.955 -0.7327  0.2560  1.1704
  130CHL1    C515814   4.918   0.063   7.164  0.1227  0.4762  0.0703
  130CHL1    C615815   4.796   0.011   7.197 -0.8049  0.1027 -0.4352
  130CHL1    H615816   4.730  -0.014   7.113  0.6084 -0.5695 -1.3663
  130CHL1    C715817   4.752  -0.032   7.336 -0.3984  0.1523  0.4252
  130CHL1   H7A15818   4.661   0.023   7.370  0.6199  1.1370  1.6619
  130CHL1   H7B15819   4.738  -0.141   7.349  0.8259 -0.0944 -0.1715
  130CHL1    C815820   4.847   0.023   7.447 -0.1110  0.5754  0.1480
  130CHL1    H815821   4.832   0.133   7.453 -0.1222  0.5260  1.5073
  130CHL1   C1415822   4.814  -0.047   7.579 -0.5143  0.1113 -0.7373
  130CHL1   H1415823   4.839  -0.153   7.559 -0.0989  0.5367 -2.6693
  130CHL1   C1515824   4.667  -0.057   7.622  0.5135  0.6111 -0.2619
  130CHL1  H15A15825   4.623   0.043   7.604 -0.2501  0.2180 -0.6549
  130CHL1  H15B15826   4.610  -0.135   7.567  0.5594 -0.8241  1.6144
  130CHL1   C1615827   4.683  -0.093   7.771 -0.0616 -0.3277 -0.3512
  130CHL1  H16A15828   4.618  -0.039   7.844 -2.6093 -0.6426 -2.2646
  130CHL1  H16B15829   4.659  -0.201   7.783  0.3894 -0.5642 -1.4941
  130CHL1   C1715830   4.835  -0.076   7.809  0.3756  0.0947 -0.3799
  130CHL1   H1715831   4.874  -0.178   7.791 -0.4644 -0.2428 -0.3354
  130CHL1   C1315832   4.897   0.003   7.695 -0.0639 -0.5918  0.0846
  130CHL1   C1815833   4.873   0.152   7.725  0.4934  0.4413  0.8980
  130CHL1  H18A15834   4.769   0.186   7.745  0.2992  0.5672 -0.2709
  130CHL1  H18B15835   4.921   0.171   7.823 -0.0754  1.5185  0.9835
  130CHL1  H18C15836   4.912   0.218   7.645 -1.2686  0.1050 -0.3035
  130CHL1   C1215837   5.046  -0.027   7.658  0.4349  0.3707 -0.6756
  130CHL1  H12A15838   5.122   0.005   7.733 -0.8545  1.5689  0.1609
  130CHL1  H12B15839   5.061  -0.137   7.650  0.3835  0.0790  2.1203
  130CHL1   C1115840   5.094   0.040   7.532  0.7919 -0.0683  0.1652
  130CHL1  H11A15841   5.102   0.149   7.546  1.5317  0.1070 -1.3624
  130CHL1  H11B15842   5.196   0.011   7.497  0.8493  0.0482  0.2393
  130CHL1    C915843   4.995   0.000   7.406  0.7214 -0.2402  0.2730
  130CHL1    H915844   4.986  -0.110   7.398 -0.2816 -0.1847  0.6083
  130CHL1   C1015845   5.030   0.069   7.267  0.1392  0.5593  0.0983
  130CHL1   C1915846   5.072   0.207   7.291  0.4659  1.0459  0.1017
  130CHL1  H19A15847   5.166   0.211   7.350  0.1857 -0.0734  0.6552
  130CHL1  H19B15848   5.079   0.263   7.195 -0.7394 -1.0636 -1.3128
  130CHL1  H19C15849   4.996   0.260   7.353  1.5132  1.1699  1.3272
  130CHL1    C115850   5.165  -0.008   7.210  0.0219  0.0223 -0.1258
  130CHL1   H1A15851   5.240   0.023   7.286 -0.7029 -0.9542  1.0301
  130CHL1   H1B15852   5.146  -0.116   7.225  0.3646 -0.0957 -0.5571
  130CHL1    C215853   5.198   0.032   7.068 -0.5266  0.4570 -0.0638
  130CHL1   H2A15854   5.284  -0.035   7.047 -1.3025 -1.8745  3.3230
  130CHL1   H2B15855   5.231   0.138   7.057  2.5547 -0.2358  1.3161
  130CHL1   C2015856   4.858  -0.043   7.955 -0.1383 -0.3643 -1.0141
  130CHL1   H2015857   4.825   0.062   7.963 -2.7850 -1.1778 -0.4178
  130CHL1   C2115858   5.011  -0.069   7.992 -0.3354  0.3672  1.2947
  130CHL1  H21A15859   5.042  -0.173   7.969  1.1455  0.2439  3.5557
  130CHL1  H21B15860   5.037  -0.052   8.098  0.5103  1.7082  0.8954
  130CHL1  H21C15861   5.084  -0.005   7.939 -0.1970 -0.3450  0.6104
  130CHL1   C2215862   4.764  -0.124   8.057  0.4750  0.4448 -0.5061
  130CHL1  H22A15863   4.661  -0.083   8.062 -0.7768 -2.5770  0.5687
  130CHL1  H22B15864   4.763  -0.232   8.029 -1.4330 -0.4215  2.4660
  130CHL1   C2315865   4.802  -0.112   8.211  0.0864 -0.1251  0.0922
  130CHL1  H23A15866   4.911  -0.127   8.227  0.1352 -0.5895 -0.6190
  130CHL1  H23B15867   4.781  -0.007   8.240  1.4117 -0.6132  3.2489
  130CHL1   C2415868   4.723  -0.205   8.301 -0.3567 -0.2888  0.3894
  130CHL1  H24A15869   4.748  -0.191   8.409  2.9609 -0.5881 -0.2307
  130CHL1  H24B15870   4.615  -0.178   8.294 -0.1420  0.7058  0.7091
  130CHL1   C2515871   4.721  -0.353   8.260  0.1361 -0.0870  0.0446
  130CHL1   H2515872   4.677  -0.365   8.159 -0.5755  0.1252  0.3238
  130CHL1   C2615873   4.864  -0.410   8.249 -0.9987 -0.6133 -0.1590
  130CHL1  H26A15874   4.928  -0.355   8.176  1.2326 -0.2179  1.9484
  130CHL1  H26B15875   4.917  -0.410   8.347  0.4121 -1.3914 -0.8832
  130CHL1  H26C15876   4.864  -0.515   8.214  1.2707 -1.1077  1.0799
  130CHL1   C2715877   4.642  -0.437   8.361  0.6119  0.2919 -0.5881
  130CHL1  H27A15878   4.541  -0.392   8.364  0.7856  0.8420  3.7195
  130CHL1  H27B15879   4.641  -0.536   8.309 -3.3975 -0.3511  0.3952
  130CHL1  H27C15880   4.681  -0.434   8.465 -1.6904 -1.5090  0.4233
  131CHL1    C315881   1.880   5.689   7.156 -0.3040 -0.0122 -0.1080
  131CHL1    H315882   1.987   5.678   7.184 -0.1108  1.2303 -0.3072
  131CHL1    O315883   1.863   5.626   7.037 -0.3493  0.3917  0.1621
  131CHL1   H3'15884   1.808   5.684   6.984 -1.5787  1.0021  1.9755
  131CHL1    C415885   1.791   5.638   7.265 -0.0166  0.4163  0.1046
  131CHL1   H4A15886   1.683   5.650   7.241 -0.2071  0.7058  1.0448
  131CHL1   H4B15887   1.815   5.530   7.276 -1.8567 -0.0325  0.1306
  131CHL1    C515888   1.808   5.713   7.396  0.4097  0.2489  1.1522
  131CHL1    C615889   1.842   5.652   7.508  0.0070 -0.5173  0.1552
  131CHL1    H615890   1.849   5.542   7.511 -1.8081 -0.6573 -0.0502
  131CHL1    C715891   1.868   5.721   7.643 -0.2785  0.1752  0.5884
  131CHL1   H7A15892   1.815   5.678   7.731 -1.7948  2.8622  1.1108
  131CHL1   H7B15893   1.979   5.717   7.652  0.0423 -0.6837 -2.5161
  131CHL1    C815894   1.807   5.864   7.642  0.7773 -0.2544  0.2270
  131CHL1    H815895   1.696   5.855   7.641  0.6907  0.6274  0.8994
  131CHL1   C1415896   1.849   5.940   7.769  0.3914  0.2399  0.1514
  131CHL1   H1415897   1.958   5.945   7.753  1.1900 -2.9926  3.2690
  131CHL1   C1515898   1.830   5.875   7.900  0.3909 -0.3108  0.1159
  131CHL1  H15A15899   1.732   5.822   7.902  0.3079 -0.1593  0.0686
  131CHL1  H15B15900   1.897   5.788   7.917  3.0728  1.5286 -0.4394
  131CHL1   C1615901   1.837   5.995   7.997  0.8284  0.4562 -0.4884
  131CHL1  H16A15902   1.741   5.996   8.053  1.1750 -0.2516  0.1260
  131CHL1  H16B15903   1.916   5.982   8.074  1.8364  0.5335 -1.4874
  131CHL1   C1715904   1.857   6.123   7.915 -0.3078  0.5607  0.0848
  131CHL1   H1715905   1.967   6.132   7.899 -0.0423  0.9046  1.8636
  131CHL1   C1315906   1.790   6.077   7.778 -0.0483 -0.7000 -0.1872
  131CHL1   C1815907   1.638   6.082   7.792  0.1092  0.0031 -0.2861
  131CHL1  H18A15908   1.600   6.029   7.882  1.2975 -1.1075 -0.4116
  131CHL1  H18B15909   1.601   6.185   7.811 -0.8701 -0.5323  0.8796
  131CHL1  H18C15910   1.582   6.056   7.700 -1.4546  1.0294  0.3330
  131CHL1   C1215911   1.829   6.160   7.654 -0.0439 -0.1552  0.4915
  131CHL1  H12A15912   1.773   6.255   7.666 -0.9025 -0.8923  2.7000
  131CHL1  H12B15913   1.939   6.175   7.654 -0.2249  1.4231  2.0422
  131CHL1   C1115914   1.784   6.088   7.529  0.0990  0.7277 -0.0334
  131CHL1  H11A15915   1.674   6.087   7.545  0.5838 -0.9649  4.6149
  131CHL1  H11B15916   1.819   6.146   7.441  2.2555  0.3902  0.5456
  131CHL1    C915917   1.832   5.943   7.514 -0.4021 -0.4667  0.0964
  131CHL1    H915918   1.943   5.947   7.511 -0.4257  2.1104  0.7041
  131CHL1   C1015919   1.792   5.865   7.380 -0.3914  0.2154  0.4419
  131CHL1   C1915920   1.635   5.903   7.352  0.3725  0.6149  0.0651
  131CHL1  H19A15921   1.625   6.000   7.298  0.3151  1.4691  1.5228
  131CHL1  H19B15922   1.585   5.819   7.301  1.3196  0.1435 -0.1049
  131CHL1  H19C15923   1.589   5.897   7.453 -0.7144 -0.5142 -0.4775
  131CHL1    C115924   1.879   5.920   7.265 -0.6477  0.5434  0.7756
  131CHL1   H1A15925   1.857   6.028   7.249 -0.1213  0.2293 -3.2679
  131CHL1   H1B15926   1.986   5.907   7.290 -0.3225 -0.6557 -1.0295
  131CHL1    C215927   1.861   5.837   7.136  0.1978 -0.7545 -0.7583
  131CHL1   H2A15928   1.920   5.879   7.052  0.7104 -0.6320 -0.3440
  131CHL1   H2B15929   1.755   5.861   7.111 -0.3893  0.9511  2.7678
  131CHL1   C2015930   1.811   6.251   7.995  0.0133 -0.2913 -0.5528
  131CHL1   H2015931   1.703   6.241   8.020 -0.0558 -2.2915 -1.4811
  131CHL1   C2115932   1.830   6.376   7.905 -0.3357 -0.1971  0.6344
  131CHL1  H21A15933   1.827   6.466   7.969  0.6458 -0.2112  0.7179
  131CHL1  H21B15934   1.761   6.377   7.818  1.5643 -0.5907 -0.9523
  131CHL1  H21C15935   1.935   6.361   7.872 -0.3199 -0.1917  0.6831
  131CHL1   C2215936   1.893   6.269   8.131 -0.6112  0.1062 -1.3131
  131CHL1  H22A15937   1.881   6.176   8.191  1.4608  0.3546 -0.4284
  131CHL1  H22B15938   2.000   6.283   8.108 -0.0889  0.2152  0.9688
  131CHL1   C2315939   1.857   6.384   8.229 -0.0903  0.4591 -0.2689
  131CHL1  H23A15940   1.856   6.481   8.176  0.7600  0.1051 -0.9543
  131CHL1  H23B15941   1.753   6.376   8.267  0.5147 -0.6756  1.2814
  131CHL1   C2415942   1.961   6.391   8.347 -0.4451 -0.3909  0.0083
  131CHL1  H24A15943   1.971   6.294   8.400  0.9028  1.2084  2.8883
  131CHL1  H24B15944   2.062   6.420   8.313 -0.7754  1.1159  0.2330
  131CHL1   C2515945   1.923   6.503   8.447  0.0993 -0.0247  0.0053
  131CHL1   H2515946   1.869   6.590   8.404 -1.5685  0.6655  3.2203
  131CHL1   C2615947   1.831   6.442   8.550  0.2374 -0.3227 -0.1839
  131CHL1  H26A15948   1.728   6.433   8.509 -0.4153  1.2258  0.9834
  131CHL1  H26B15949   1.867   6.345   8.589  3.4840  0.4064 -1.0619
  131CHL1  H26C15950   1.814   6.512   8.635 -2.1869  1.0999 -1.7162
  131CHL1   C2715951   2.044   6.554   8.522  0.3105 -0.1385  0.1358
  131CHL1  H27A15952   2.020   6.607   8.616  1.3796 -1.2514  1.0775
  131CHL1  H27B15953   2.107   6.466   8.548  1.9399  1.1915  0.8653
  131CHL1  H27C15954   2.108   6.618   8.457  0.7998  0.4370  1.1639
  132CHL1    C315955   5.039   7.185   7.308  0.1752  0.2874 -0.1068
  132CHL1    H315956   4.938   7.139   7.304  0.2180  0.2324 -0.5938
  132CHL1    O315957   5.083   7.182   7.175  0.1451 -0.0879 -0.1856
  132CHL1   H3'15958   4.997   7.169   7.133 -0.3741 -1.6048  1.2125
  132CHL1    C415959   5.032   7.334   7.350  0.0783 -0.2626 -0.2772
  132CHL1   H4A15960   5.121   7.387   7.311  0.3835 -1.3860 -1.1630
  132CHL1   H4B15961   4.956   7.389   7.289 -0.2002  0.2901  0.5440
  132CHL1    C515962   5.003   7.355   7.496  0.1904 -0.4864  0.2880
  132CHL1    C615963   4.905   7.441   7.531  0.4391 -0.5537 -0.4846
  132CHL1    H615964   4.838   7.487   7.457  0.2837  0.5252  0.3171
  132CHL1    C715965   4.867   7.474   7.673  0.8204 -0.3177 -0.4575
  132CHL1   H7A15966   4.854   7.583   7.683 -0.1006 -0.1198 -3.0042
  132CHL1   H7B15967   4.770   7.426   7.699  1.3268 -2.7262 -2.5057
  132CHL1    C815968   4.977   7.427   7.778 -0.0659 -0.5151  0.2497
  132CHL1    H815969   5.059   7.500   7.764 -0.8549  0.0487 -1.8256
  132CHL1   C1415970   4.928   7.442   7.922  0.1496 -0.0062  0.1611
  132CHL1   H1415971   4.833   7.385   7.928 -0.6484  1.3642  1.3239
  132CHL1   C1515972   4.885   7.583   7.970 -0.3948 -1.0153 -0.6638
  132CHL1  H15A15973   4.966   7.657   7.952 -1.6047  0.5643  0.0887
  132CHL1  H15B15974   4.789   7.607   7.920 -0.1417  0.1363 -0.6324
  132CHL1   C1615975   4.868   7.559   8.117  0.7319  0.5773 -0.0085
  132CHL1  H16A15976   4.908   7.652   8.164  0.4634  0.6176  0.1435
  132CHL1  H16B15977   4.758   7.558   8.133  0.3499  2.0538 -2.0878
  132CHL1   C1715978   4.938   7.426   8.161 -0.0759  0.4211  0.1564
  132CHL1   H1715979   4.854   7.353   8.166 -1.3570  1.8904  0.9934
  132CHL1   C1315980   5.021   7.383   8.036  0.4008 -0.4945 -0.2241
  132CHL1   C1815981   5.161   7.448   8.038 -0.5419  0.1914  0.2558
  132CHL1  H18A15982   5.147   7.549   8.081 -0.4734 -0.5208  2.0537
  132CHL1  H18B15983   5.234   7.391   8.100 -1.5415 -1.2086  0.2126
  132CHL1  H18C15984   5.196   7.462   7.934 -1.8332 -0.1720 -0.2501
  132CHL1   C1215985   5.035   7.233   7.998  0.6975  0.0358  0.0704
  132CHL1  H12A15986   5.097   7.178   8.073  2.2137  1.3380 -0.1759
  132CHL1  H12B15987   4.936   7.183   7.993  1.2340 -1.0360 -0.2862
  132CHL1   C1115988   5.098   7.216   7.863 -0.2069  0.1514  0.8069
  132CHL1  H11A15989   5.197   7.265   7.867 -0.5723  1.0452 -0.4492
  132CHL1  H11B15990   5.113   7.109   7.838  0.9336  0.4559  0.1481
  132CHL1    C915991   5.017   7.290   7.745  0.0878 -0.0882  0.4509
  132CHL1    H915992   4.926   7.225   7.744  1.4988 -2.2006  1.6607
  132CHL1   C1015993   5.080   7.272   7.597 -0.0245 -0.0153  0.3501
  132CHL1   C1915994   5.223   7.332   7.586  0.3647  0.6104 -0.2424
  132CHL1  H19A15995   5.289   7.265   7.645 -0.1452  0.8177  0.5711
  132CHL1  H19B15996   5.249   7.338   7.478  0.2523 -2.6924 -0.5463
  132CHL1  H19C15997   5.223   7.433   7.632 -0.3321  0.2020  0.6682
  132CHL1    C115998   5.067   7.124   7.546  0.3046 -0.8741 -0.1715
  132CHL1   H1A15999   5.113   7.057   7.621  0.4642 -0.7714 -0.1751
  132CHL1   H1B16000   4.961   7.095   7.531  0.6549 -1.5384 -1.5829
  132CHL1    C216001   5.120   7.097   7.404  0.0303  0.1607 -0.4497
  132CHL1   H2A16002   5.093   6.991   7.382  1.4553 -0.4855  0.7235
  132CHL1   H2B16003   5.224   7.129   7.382 -0.5352  2.0569 -0.5570
  132CHL1   C2016004   4.997   7.428   8.302  0.3850  0.0511 -0.3834
  132CHL1   H2016005   5.070   7.513   8.300  2.6730 -1.8265 -1.3583
  132CHL1   C2116006   5.072   7.300   8.335  0.2904 -0.4420  0.1621
  132CHL1  H21A16007   5.100   7.301   8.443  2.5980 -0.4636 -0.3867
  132CHL1  H21B16008   5.168   7.291   8.279 -0.5634 -0.1321 -1.3901
  132CHL1  H21C16009   5.010   7.209   8.320 -1.7251  0.8622  0.2423
  132CHL1   C2216010   4.884   7.460   8.406  0.1798  0.4646  0.1170
  132CHL1  H22A16011   4.841   7.556   8.371 -2.3342 -0.3852  0.6750
  132CHL1  H22B16012   4.816   7.372   8.397  0.5706 -0.0340  1.6532
  132CHL1   C2316013   4.907   7.475   8.556 -1.1545  0.7181  0.2180
  132CHL1  H23A16014   4.953   7.384   8.600 -0.0341  0.6638 -1.0128
  132CHL1  H23B16015   4.980   7.556   8.571 -0.0909 -0.4751  1.7943
  132CHL1   C2416016   4.781   7.496   8.635  0.1203 -0.0361 -0.0972
  132CHL1  H24A16017   4.733   7.591   8.602  1.1945  0.8225  0.7304
  132CHL1  H24B16018   4.705   7.416   8.616  1.0461 -1.6150  2.3814
  132CHL1   C2516019   4.803   7.511   8.788 -0.1035 -0.3223 -0.0412
  132CHL1   H2516020   4.831   7.416   8.838 -1.1311  0.7616  2.7900
  132CHL1   C2616021   4.910   7.614   8.812 -0.4670  0.1563 -0.1126
  132CHL1  H26A16022   4.925   7.636   8.920  2.9669  1.8891 -0.8161
  132CHL1  H26B16023   5.008   7.578   8.773  0.1886  1.8494 -0.0986
  132CHL1  H26C16024   4.891   7.716   8.773 -0.3556  2.0584  4.2392
  132CHL1   C2716025   4.672   7.565   8.851 -0.3923 -0.3773  1.1061
  132CHL1  H27A16026   4.652   7.673   8.833 -0.7888 -0.7104 -0.6197
  132CHL1  H27B16027   4.591   7.501   8.809 -1.1215 -1.2201  3.6011
  132CHL1  H27C16028   4.666   7.538   8.959  0.6703 -0.2691  1.1961
  133CHL1    C316029   1.241   2.438   7.200 -0.5721  0.0456 -0.1033
  133CHL1    H316030   1.342   2.463   7.239  0.0148 -1.2999 -0.6690
  133CHL1    O316031   1.221   2.470   7.068  0.1051 -0.4340  0.4809
  133CHL1   H3'16032   1.285   2.414   7.022  0.0913 -0.9788  1.1133
  133CHL1    C416033   1.228   2.284   7.224  0.4391 -0.2632  0.1665
  133CHL1   H4A16034   1.126   2.252   7.193  0.5529 -1.0532  0.5826
  133CHL1   H4B16035   1.299   2.230   7.157  1.8903  1.1663  0.4863
  133CHL1    C516036   1.242   2.254   7.374  0.0822  0.2539 -0.0888
  133CHL1    C616037   1.318   2.158   7.424 -0.3878 -0.2670  0.1245
  133CHL1    H616038   1.381   2.099   7.355 -0.7941 -0.6241  0.0534
  133CHL1    C716039   1.328   2.113   7.563 -0.1251 -0.4385 -0.8979
  133CHL1   H7A16040   1.319   2.002   7.564  0.4332 -0.5533 -3.2203
  133CHL1   H7B16041   1.427   2.144   7.602 -1.9263  1.8341  2.3911
  133CHL1    C816042   1.223   2.172   7.657 -0.1109 -0.1993 -0.0895
  133CHL1    H816043   1.129   2.115   7.640 -0.8363  0.7803  0.5031
  133CHL1   C1416044   1.264   2.162   7.810  0.0075  0.4174 -0.0716
  133CHL1   H1416045   1.354   2.228   7.817  1.1266 -0.7779 -2.1698
  133CHL1   C1516046   1.305   2.023   7.863 -0.2145  0.0486  0.3458
  133CHL1  H15A16047   1.221   1.953   7.843 -1.1683  1.4355 -0.8245
  133CHL1  H15B16048   1.398   1.989   7.812 -0.8404 -1.9462  0.4745
  133CHL1   C1616049   1.318   2.047   8.011 -0.7123  0.0960 -0.0659
  133CHL1  H16A16050   1.280   1.958   8.065 -0.5433 -0.2965 -0.5814
  133CHL1  H16B16051   1.424   2.070   8.037  0.1997 -2.2648 -1.3210
  133CHL1   C1716052   1.232   2.176   8.041 -0.0632 -0.3611  0.1957
  133CHL1   H1716053   1.305   2.258   8.061 -2.4383  1.2657  2.8285
  133CHL1   C1316054   1.161   2.212   7.908 -0.3931  0.2866 -0.7054
  133CHL1   C1816055   1.044   2.124   7.904  0.0528  0.1904  0.8276
  133CHL1  H18A16056   1.060   2.031   7.963 -0.3092 -1.9631 -2.1673
  133CHL1  H18B16057   0.952   2.176   7.937  0.8117  1.0622  1.6071
  133CHL1  H18C16058   1.030   2.082   7.802 -1.0508  1.9005  0.2320
  133CHL1   C1216059   1.120   2.353   7.870  0.0284  0.2050 -0.2105
  133CHL1  H12A16060   1.035   2.390   7.932  0.5236 -0.3659  0.8227
  133CHL1  H12B16061   1.213   2.410   7.890  0.1796 -0.7941  2.2497
  133CHL1   C1116062   1.082   2.368   7.723  0.4688  0.0158 -0.0480
  133CHL1  H11A16063   0.986   2.315   7.710  0.7036  0.0797 -2.5254
  133CHL1  H11B16064   1.075   2.478   7.711 -0.5871 -0.1117 -0.7088
  133CHL1    C916065   1.183   2.312   7.621  0.4991 -0.5163 -0.1282
  133CHL1    H916066   1.273   2.374   7.640  0.2493  0.1000 -0.8489
  133CHL1   C1016067   1.156   2.342   7.468 -0.9296  0.3924 -0.2221
  133CHL1   C1916068   1.011   2.292   7.448 -0.7033 -0.2878  0.8490
  133CHL1  H19A16069   1.004   2.184   7.473  1.2545 -0.4621  0.8135
  133CHL1  H19B16070   0.938   2.348   7.511 -0.7429  0.1145  0.4462
  133CHL1  H19C16071   0.976   2.298   7.343 -2.7214 -2.8768  1.2655
  133CHL1    C116072   1.178   2.491   7.429  0.5854  0.6901  0.4879
  133CHL1   H1A16073   1.112   2.556   7.492 -1.3676 -0.0114 -0.7565
  133CHL1   H1B16074   1.281   2.523   7.457  1.7732 -1.9201 -0.6669
  133CHL1    C216075   1.148   2.519   7.281 -0.3730 -0.2217  0.1293
  133CHL1   H2A16076   1.172   2.623   7.252 -3.3870  0.1533 -1.4790
  133CHL1   H2B16077   1.043   2.489   7.258 -0.4227 -1.2830  1.5785
  133CHL1   C2016078   1.152   2.172   8.169 -0.7162 -0.5778  0.1963
  133CHL1   H2016079   1.077   2.090   8.167  0.0995 -1.3138 -1.2759
  133CHL1   C2116080   1.063   2.304   8.189  0.0378  0.5817  0.2092
  133CHL1  H21A16081   0.979   2.300   8.116 -0.9593  1.4077  1.2726
  133CHL1  H21B16082   1.121   2.398   8.175 -1.2940  1.3044 -0.6119
  133CHL1  H21C16083   1.017   2.313   8.289 -2.4971  1.2843 -0.9400
  133CHL1   C2216084   1.238   2.160   8.305 -0.9511  0.9087  0.0332
  133CHL1  H22A16085   1.339   2.122   8.277 -0.7233  2.2351 -1.0361
  133CHL1  H22B16086   1.256   2.261   8.346 -1.2670  0.5398  1.1002
  133CHL1   C2316087   1.176   2.079   8.415  0.0962  0.4055 -0.6446
  133CHL1  H23A16088   1.068   2.098   8.434  0.1983 -0.1800  0.6689
  133CHL1  H23B16089   1.178   1.972   8.383  0.4494  0.0151  0.6110
  133CHL1   C2416090   1.266   2.078   8.539  0.0285 -0.6828 -0.6697
  133CHL1  H24A16091   1.366   2.035   8.516  0.8055  0.9836 -0.6253
  133CHL1  H24B16092   1.268   2.184   8.573 -0.3869 -1.4734  2.0270
  133CHL1   C2516093   1.207   1.987   8.650  0.3804 -0.5230  0.0191
  133CHL1   H2516094   1.189   1.887   8.603 -0.7834  0.4308 -1.6989
  133CHL1   C2616095   1.297   1.994   8.780 -0.1598  0.2770  0.1843
  133CHL1  H26A16096   1.245   2.003   8.877  0.9161 -0.1034  0.8104
  133CHL1  H26B16097   1.369   1.909   8.771 -1.1885 -0.4693 -1.7199
  133CHL1  H26C16098   1.354   2.089   8.786  1.2957 -0.1116 -3.9505
  133CHL1   C2716099   1.064   2.037   8.683 -0.5133  0.0833 -0.2010
  133CHL1  H27A16100   0.998   2.020   8.595  1.2963  0.0759 -1.6071
  133CHL1  H27B16101   1.027   1.984   8.774 -1.7270  0.5504 -0.4121
  133CHL1  H27C16102   1.070   2.147   8.695  0.2220 -0.0690  0.9853
  134CHL1    C316103   8.091   3.853   7.239  0.8604  0.0147  0.4550
  134CHL1    H316104   7.984   3.827   7.247  0.7976  0.2445  0.3530
  134CHL1    O316105   8.129   3.851   7.100 -0.4588  0.2197 -0.0266
  134CHL1   H3'16106   8.068   3.908   7.053  0.0829 -1.1608 -2.6154
  134CHL1    C416107   8.106   4.003   7.284  0.2950  0.4558  0.2551
  134CHL1   H4A16108   8.211   4.030   7.260  0.4863 -0.4216  0.0520
  134CHL1   H4B16109   8.025   4.053   7.227 -1.4152 -1.6103  0.7377
  134CHL1    C516110   8.085   4.023   7.435 -0.2247 -0.2002  0.3758
  134CHL1    C616111   7.985   4.105   7.476 -0.0569 -0.0335 -0.0009
  134CHL1    H616112   7.923   4.149   7.396  0.3675 -3.2744 -2.3509
  134CHL1    C716113   7.953   4.133   7.622 -0.3878  0.4888  0.0898
  134CHL1   H7A16114   7.935   4.240   7.649 -0.0011  1.1643 -2.1531
  134CHL1   H7B16115   7.855   4.083   7.637 -0.1824 -0.0279 -0.2713
  134CHL1    C816116   8.063   4.076   7.721 -0.1924 -0.0074 -0.0872
  134CHL1    H816117   8.149   4.145   7.708  0.4801 -0.9016 -0.4597
  134CHL1   C1416118   8.015   4.076   7.865  0.4426 -0.6362  0.0746
  134CHL1   H1416119   7.933   4.001   7.867 -1.1006  0.9920  0.2877
  134CHL1   C1516120   7.939   4.202   7.916 -0.3320  0.1401 -0.2739
  134CHL1  H15A16121   7.987   4.292   7.874  0.5749 -2.0241 -4.4618
  134CHL1  H15B16122   7.835   4.196   7.875  0.0558 -0.8694 -1.1549
  134CHL1   C1616123   7.951   4.186   8.070  0.3570  0.8247 -0.2712
  134CHL1  H16A16124   8.012   4.268   8.113  1.2297  1.6744 -2.9379
  134CHL1  H16B16125   7.852   4.178   8.121  0.7048 -0.4632  0.2589
  134CHL1   C1716126   8.035   4.063   8.092 -0.2374 -0.3443 -0.3037
  134CHL1   H1716127   7.960   3.982   8.099 -0.5411  0.0620  1.5889
  134CHL1   C1316128   8.116   4.035   7.966  0.3852 -0.6506  0.5418
  134CHL1   C1816129   8.243   4.123   7.972  0.1852  0.2855 -0.3807
  134CHL1  H18A16130   8.320   4.083   8.041 -0.2868 -0.4903 -0.2872
  134CHL1  H18B16131   8.292   4.116   7.873 -1.9232  1.5433 -1.5962
  134CHL1  H18C16132   8.206   4.226   7.989 -1.2432 -0.3971  0.9296
  134CHL1   C1216133   8.151   3.892   7.932  0.1040  0.1986 -0.8987
  134CHL1  H12A16134   8.243   3.859   7.987 -1.2727 -0.4104  1.1724
  134CHL1  H12B16135   8.060   3.831   7.952  2.0670 -3.3220 -1.7816
  134CHL1   C1116136   8.192   3.877   7.781  0.7624  0.0896 -0.0848
  134CHL1  H11A16137   8.292   3.925   7.780  0.1966  1.3056 -0.2868
  134CHL1  H11B16138   8.201   3.770   7.756  0.3758  0.1538 -0.5043
  134CHL1    C916139   8.099   3.941   7.673  0.2079  0.9021  0.5751
  134CHL1    H916140   8.007   3.879   7.678  1.5936 -1.5141 -1.6383
  134CHL1   C1016141   8.162   3.929   7.530 -0.1648 -0.7076  1.3825
  134CHL1   C1916142   8.315   3.974   7.519  0.1903  0.1325 -0.2807
  134CHL1  H19A16143   8.376   3.904   7.581  0.6697 -0.0818 -0.9776
  134CHL1  H19B16144   8.363   3.975   7.419  2.8019  1.8857  0.8913
  134CHL1  H19C16145   8.323   4.073   7.568 -0.4553  0.5971 -1.0915
  134CHL1    C116146   8.146   3.785   7.478 -0.0826  0.7105  0.0549
  134CHL1   H1A16147   8.214   3.717   7.533  1.8162  2.0250 -0.5680
  134CHL1   H1B16148   8.044   3.746   7.499 -0.9425  1.8524 -1.7294
  134CHL1    C216149   8.171   3.759   7.324  0.0216  0.5783 -0.1636
  134CHL1   H2A16150   8.161   3.650   7.304  2.1421  0.0996  1.0543
  134CHL1   H2B16151   8.280   3.776   7.314  0.0462  0.6128  0.1492
  134CHL1   C2016152   8.113   4.066   8.229  0.3713  0.2703  0.5835
  134CHL1   H2016153   8.204   4.128   8.216  0.5196 -0.1473 -0.5591
  134CHL1   C2116154   8.154   3.915   8.258 -0.5379  0.3820  0.4592
  134CHL1  H21A16155   8.245   3.885   8.202 -0.5403 -1.2438  1.2608
  134CHL1  H21B16156   8.077   3.841   8.226  0.5708 -0.3910 -0.4677
  134CHL1  H21C16157   8.193   3.901   8.361  3.0004 -0.4213 -0.8717
  134CHL1   C2216158   8.021   4.109   8.345  0.3915 -0.3809  0.2159
  134CHL1  H22A16159   7.997   4.218   8.339  0.2216 -0.4169  0.2281
  134CHL1  H22B16160   7.926   4.052   8.336  0.2809  0.0237 -1.5276
  134CHL1   C2316161   8.084   4.103   8.489  0.2436  0.0848  0.4555
  134CHL1  H23A16162   8.073   3.997   8.520  2.5697 -0.6224 -0.9705
  134CHL1  H23B16163   8.192   4.124   8.474  0.9644 -0.5329  3.9296
  134CHL1   C2416164   8.025   4.196   8.597  0.0117 -0.4958 -0.6487
  134CHL1  H24A16165   8.047   4.302   8.574  1.8263 -0.4196  1.1208
  134CHL1  H24B16166   7.915   4.183   8.584 -0.0279 -0.2577 -0.5462
  134CHL1   C2516167   8.075   4.189   8.743 -0.6597 -0.3221 -0.0566
  134CHL1   H2516168   8.186   4.201   8.737 -0.8113  2.5870  1.3858
  134CHL1   C2616169   8.027   4.305   8.825  0.1868 -0.6114  0.0243
  134CHL1  H26A16170   8.089   4.298   8.917  0.5173 -2.4795 -0.3059
  134CHL1  H26B16171   8.045   4.403   8.774  2.4573  0.8460  3.2800
  134CHL1  H26C16172   7.923   4.303   8.863  0.3073  1.5031  0.5997
  134CHL1   C2716173   8.026   4.063   8.816 -0.0883 -0.8430 -0.4094
  134CHL1  H27A16174   7.916   4.071   8.826 -0.0939 -0.1141 -0.9829
  134CHL1  H27B16175   8.053   3.980   8.746  1.2102  0.2022 -1.2136
  134CHL1  H27C16176   8.079   4.044   8.912 -2.2623 -1.1465  0.7729
  135CHL1    C316177   8.650   3.446   7.194  0.4277 -0.9015  0.0092
  135CHL1    H316178   8.626   3.338   7.195  0.7452 -0.9824 -0.5927
  135CHL1    O316179   8.684   3.474   7.055 -0.0067  0.3225 -0.5781
  135CHL1   H3'16180   8.629   3.412   7.007 -0.0632 -0.6359  0.6811
  135CHL1    C416181   8.544   3.545   7.250 -0.0920  0.3654 -1.0861
  135CHL1   H4A16182   8.578   3.647   7.222 -0.7518  0.5115 -1.3655
  135CHL1   H4B16183   8.448   3.533   7.195 -0.2229  0.9033 -0.9744
  135CHL1    C516184   8.526   3.526   7.403 -0.2652  0.4670  0.8383
  135CHL1    C616185   8.408   3.504   7.463 -0.7868  0.3260  0.2911
  135CHL1    H616186   8.317   3.508   7.401 -0.4700  0.8598 -0.1507
  135CHL1    C716187   8.395   3.496   7.615  0.0252  0.4570 -0.2940
  135CHL1   H7A16188   8.295   3.524   7.657 -0.4375 -1.4521 -0.0219
  135CHL1   H7B16189   8.410   3.389   7.640 -1.1569 -0.3579 -2.7822
  135CHL1    C816190   8.503   3.562   7.699  0.0807  0.2346  0.3086
  135CHL1    H816191   8.478   3.669   7.682 -2.4534  0.2974  3.4900
  135CHL1   C1416192   8.484   3.520   7.846 -0.6766 -0.2025  0.5037
  135CHL1   H1416193   8.518   3.414   7.844 -0.1197 -0.0653  1.8611
  135CHL1   C1516194   8.349   3.540   7.919 -0.9585 -0.3329  0.4220
  135CHL1  H15A16195   8.311   3.640   7.890 -1.0200 -0.7897 -1.1862
  135CHL1  H15B16196   8.273   3.464   7.891 -0.4011 -1.1333  1.0132
  135CHL1   C1616197   8.395   3.547   8.065  0.4826 -0.0084  0.1269
  135CHL1  H16A16198   8.359   3.640   8.115  1.5890 -0.3583  1.6628
  135CHL1  H16B16199   8.350   3.463   8.121 -2.0425  1.2486  0.1079
  135CHL1   C1716200   8.549   3.533   8.080 -0.6651 -0.5219  0.0574
  135CHL1   H1716201   8.571   3.425   8.068  2.1596  0.1183 -1.5756
  135CHL1   C1316202   8.585   3.591   7.940 -0.5202 -0.0175 -0.4222
  135CHL1   C1816203   8.560   3.747   7.940  0.0183  0.1270  0.3828
  135CHL1  H18A16204   8.537   3.801   7.846  2.1706  1.0689  0.3252
  135CHL1  H18B16205   8.468   3.760   8.001  0.3015 -1.8148  1.3122
  135CHL1  H18C16206   8.645   3.797   7.993  0.3554 -0.0921  0.0538
  135CHL1   C1216207   8.730   3.554   7.892 -0.1967 -0.2137  0.5098
  135CHL1  H12A16208   8.802   3.612   7.954 -2.0566  2.3086  0.4409
  135CHL1  H12B16209   8.735   3.444   7.907  0.5891 -0.7029 -2.6029
  135CHL1   C1116210   8.758   3.576   7.737 -0.4836  0.2934  0.4433
  135CHL1  H11A16211   8.786   3.682   7.719  0.5424 -0.2950 -1.9478
  135CHL1  H11B16212   8.846   3.510   7.719  1.0341  1.7608  2.1145
  135CHL1    C916213   8.643   3.522   7.645 -0.6628 -0.2665  0.4520
  135CHL1    H916214   8.652   3.414   7.666  1.1295 -0.7524 -2.3614
  135CHL1   C1016215   8.659   3.540   7.489  0.5368  0.3277  0.4053
  135CHL1   C1916216   8.703   3.685   7.471 -0.0653  0.3810  0.9473
  135CHL1  H19A16217   8.637   3.757   7.523  0.1514  0.8435  0.5901
  135CHL1  H19B16218   8.807   3.703   7.508  0.4084  1.1393 -0.6757
  135CHL1  H19C16219   8.715   3.708   7.363 -1.8357 -0.3466  0.5711
  135CHL1    C116220   8.758   3.431   7.427 -0.1392 -0.8212 -0.0061
  135CHL1   H1A16221   8.848   3.439   7.492  0.9957 -2.0234 -1.3717
  135CHL1   H1B16222   8.717   3.328   7.429  2.4500 -1.9810 -1.2392
  135CHL1    C216223   8.782   3.459   7.275 -0.0811  0.6456  0.2565
  135CHL1   H2A16224   8.849   3.376   7.244 -0.6295 -0.4293  1.8122
  135CHL1   H2B16225   8.828   3.557   7.250 -0.5832  0.6592 -0.6936
  135CHL1   C2016226   8.605   3.597   8.203  0.0779 -0.3043 -0.3639
  135CHL1   H2016227   8.621   3.705   8.181 -1.3434 -0.4189 -2.1054
  135CHL1   C2116228   8.743   3.533   8.224  0.1374  0.2743  0.6663
  135CHL1  H21A16229   8.804   3.601   8.287  2.8562 -0.1625 -1.2815
  135CHL1  H21B16230   8.802   3.511   8.133  0.8212 -0.1172  1.1910
  135CHL1  H21C16231   8.741   3.432   8.270 -2.1283  0.1570  0.4138
  135CHL1   C2216232   8.519   3.588   8.335 -0.7158  0.2337  0.9414
  135CHL1  H22A16233   8.421   3.636   8.309 -0.3930 -0.5177 -2.1233
  135CHL1  H22B16234   8.496   3.482   8.357 -1.7990  0.6985  2.2228
  135CHL1   C2316235   8.573   3.671   8.448 -0.0712 -0.1611 -0.1276
  135CHL1  H23A16236   8.655   3.612   8.493  0.8686 -0.7516 -2.4871
  135CHL1  H23B16237   8.611   3.772   8.421  1.9143 -0.6850  0.5370
  135CHL1   C2416238   8.479   3.692   8.565 -0.1425  0.2699  0.4413
  135CHL1  H24A16239   8.382   3.735   8.533  0.2694  0.6081 -0.3784
  135CHL1  H24B16240   8.447   3.601   8.621  2.0426  0.4154  2.0334
  135CHL1   C2516241   8.533   3.783   8.679  0.7516 -0.7205 -0.0081
  135CHL1   H2516242   8.637   3.751   8.699  0.4815 -0.8997  1.1654
  135CHL1   C2616243   8.534   3.935   8.634  1.0204  0.3430 -0.1916
  135CHL1  H26A16244   8.563   3.942   8.527 -0.2647  2.2404 -0.4561
  135CHL1  H26B16245   8.434   3.975   8.660  0.6534 -0.4077 -0.4271
  135CHL1  H26C16246   8.609   3.986   8.698 -2.7104  1.3029  3.8391
  135CHL1   C2716247   8.452   3.744   8.802 -0.1325 -0.1282  0.6342
  135CHL1  H27A16248   8.459   3.815   8.888 -0.6726 -0.8419  1.2893
  135CHL1  H27B16249   8.345   3.721   8.784  0.4655 -4.1182  1.2296
  135CHL1  H27C16250   8.499   3.653   8.845  1.9939 -2.3635 -5.4707
  136CHL1    C316251   5.716   0.691   6.699 -0.4635 -0.3223  0.9051
  136CHL1    H316252   5.639   0.769   6.718  0.2673 -0.3575  4.6508
  136CHL1    O316253   5.792   0.757   6.587  0.1322 -0.2123 -0.2055
  136CHL1   H3'16254   5.752   0.730   6.504  0.0909  0.4474 -0.4065
  136CHL1    C416255   5.804   0.680   6.828 -0.1317 -0.2684 -1.4813
  136CHL1   H4A16256   5.902   0.647   6.789  0.3560 -0.1445 -0.3723
  136CHL1   H4B16257   5.829   0.784   6.858  0.6202 -0.7648 -0.3355
  136CHL1    C516258   5.760   0.587   6.933  0.2931  0.5309 -0.3465
  136CHL1    C616259   5.761   0.620   7.065  0.8455  0.0804 -0.5671
  136CHL1    H616260   5.775   0.725   7.095 -0.3667  0.6361 -1.7998
  136CHL1    C716261   5.728   0.523   7.176 -0.0910  0.5514 -0.1119
  136CHL1   H7A16262   5.801   0.536   7.259  0.2513  3.0474 -0.7412
  136CHL1   H7B16263   5.625   0.540   7.215  0.9489  1.7007  2.4187
  136CHL1    C816264   5.737   0.373   7.123 -0.1065 -0.1776 -0.1533
  136CHL1    H816265   5.844   0.342   7.118  0.8713  3.0239 -1.4223
  136CHL1   C1416266   5.670   0.285   7.229 -0.5447  0.5014 -0.2917
  136CHL1   H1416267   5.561   0.307   7.226 -0.5190  0.5321 -1.6331
  136CHL1   C1516268   5.719   0.291   7.369 -0.3157  0.4109 -0.7160
  136CHL1  H15A16269   5.830   0.298   7.375 -0.2444 -1.5220  0.8416
  136CHL1  H15B16270   5.674   0.381   7.417 -1.9353 -0.1542 -1.1072
  136CHL1   C1616271   5.669   0.162   7.437  1.3928  0.2141  0.7850
  136CHL1  H16A16272   5.747   0.101   7.488  0.7390 -2.4796 -1.2319
  136CHL1  H16B16273   5.597   0.188   7.519  1.7646  0.7149  0.9600
  136CHL1   C1716274   5.593   0.082   7.321 -0.1055  0.0460  0.0526
  136CHL1   H1716275   5.487   0.117   7.326  0.6414  2.5081 -0.0611
  136CHL1   C1316276   5.655   0.137   7.195  0.1405  0.1595 -0.5304
  136CHL1   C1816277   5.804   0.082   7.177 -0.0642  0.7105 -0.3734
  136CHL1  H18A16278   5.870   0.103   7.264 -0.9083  2.6753 -0.1547
  136CHL1  H18B16279   5.800  -0.024   7.146 -2.8893  1.0858 -1.6061
  136CHL1  H18C16280   5.867   0.128   7.098  1.9712  2.3019  1.9935
  136CHL1   C1216281   5.569   0.133   7.064  0.9955 -0.4018 -0.2002
  136CHL1  H12A16282   5.528   0.034   7.035 -0.5339 -0.8579  3.0900
  136CHL1  H12B16283   5.471   0.180   7.089  0.5022 -1.1806 -0.6360
  136CHL1   C1116284   5.620   0.215   6.948 -0.6429  0.5667  0.1608
  136CHL1  H11A16285   5.714   0.163   6.921 -0.5568 -0.5225  2.3419
  136CHL1  H11B16286   5.550   0.195   6.864  0.9409  0.6345 -1.2014
  136CHL1    C916287   5.661   0.359   6.983 -0.0841 -0.3173 -0.6727
  136CHL1    H916288   5.560   0.403   6.997 -0.4402 -0.6151 -2.1802
  136CHL1   C1016289   5.723   0.455   6.882 -0.3874  0.0453  0.0899
  136CHL1   C1916290   5.851   0.379   6.836 -0.0940  0.3667  0.3758
  136CHL1  H19A16291   5.911   0.443   6.768 -0.1937 -0.4261 -0.4810
  136CHL1  H19B16292   5.924   0.359   6.917  2.2534  0.3000 -1.6271
  136CHL1  H19C16293   5.820   0.289   6.779  0.4726 -0.9728  2.1029
  136CHL1    C116294   5.621   0.464   6.765  0.1803  0.5495 -0.4729
  136CHL1   H1A16295   5.613   0.364   6.718  3.7681  0.2937 -0.8092
  136CHL1   H1B16296   5.523   0.505   6.800 -0.0652 -1.3412  1.2598
  136CHL1    C216297   5.657   0.561   6.647  0.1549  0.0904 -0.2388
  136CHL1   H2A16298   5.568   0.578   6.584 -0.1453 -0.5548  0.0083
  136CHL1   H2B16299   5.738   0.513   6.587 -0.5072  0.2657 -1.2885
  136CHL1   C2016300   5.598  -0.070   7.355 -0.2867 -0.4143  0.0141
  136CHL1   H2016301   5.704  -0.100   7.345 -0.4914 -1.6879  1.3147
  136CHL1   C2116302   5.523  -0.145   7.240 -0.1208  0.3797 -0.6339
  136CHL1  H21A16303   5.492  -0.246   7.273 -0.4070  0.7483  0.2582
  136CHL1  H21B16304   5.589  -0.166   7.152 -1.7822 -0.1422 -1.7995
  136CHL1  H21C16305   5.423  -0.103   7.218 -0.8573 -0.7920  0.4001
  136CHL1   C2216306   5.540  -0.104   7.495  0.0184 -0.5008 -0.1061
  136CHL1  H22A16307   5.564  -0.025   7.569  1.0785  0.8638 -1.8266
  136CHL1  H22B16308   5.429  -0.097   7.484 -0.1503  2.9977  2.1457
  136CHL1   C2316309   5.561  -0.245   7.546  0.6420  0.9089 -0.2334
  136CHL1  H23A16310   5.577  -0.321   7.467  2.5002 -0.8419  1.7206
  136CHL1  H23B16311   5.659  -0.256   7.596  1.3727 -2.0719 -2.0778
  136CHL1   C2416312   5.460  -0.307   7.644  0.1716  0.0519 -0.3753
  136CHL1  H24A16313   5.368  -0.346   7.595 -0.7215 -0.3695  1.5541
  136CHL1  H24B16314   5.511  -0.394   7.690  2.2389  1.8411  0.9188
  136CHL1   C2516315   5.409  -0.225   7.763 -0.2381 -0.4537  0.0732
  136CHL1   H2516316   5.364  -0.127   7.736 -0.8929 -0.0258  2.4460
  136CHL1   C2616317   5.304  -0.300   7.845 -0.4525  0.4631  0.3218
  136CHL1  H26A16318   5.211  -0.313   7.785 -0.2756  0.5038  0.0379
  136CHL1  H26B16319   5.342  -0.399   7.879  0.7737  0.7351 -0.1833
  136CHL1  H26C16320   5.272  -0.247   7.937  1.5582  1.1411  0.6752
  136CHL1   C2716321   5.528  -0.193   7.855 -0.0402 -0.3751 -0.7797
  136CHL1  H27A16322   5.515  -0.113   7.931  1.7380  0.0953 -0.9171
  136CHL1  H27B16323   5.576  -0.289   7.884 -1.8906 -0.7510  1.1849
  136CHL1  H27C16324   5.603  -0.138   7.793 -1.7087  3.1201  0.0337
  137CHL1    C316325   7.453   1.028   7.724  0.8527 -0.3333  0.1992
  137CHL1    H316326   7.410   1.098   7.649 -0.4560 -1.1950  0.1028
  137CHL1    O316327   7.560   0.968   7.649  0.1838  0.2368 -0.1897
  137CHL1   H3'16328   7.515   0.930   7.573  0.9292 -0.1343 -0.4569
  137CHL1    C416329   7.508   1.117   7.835 -0.4368  0.2215  0.7662
  137CHL1   H4A16330   7.561   1.049   7.906 -1.8457 -0.8617  0.8063
  137CHL1   H4B16331   7.590   1.175   7.787  2.3116 -3.0834  1.0152
  137CHL1    C516332   7.407   1.191   7.905 -0.1188  0.8843  0.0264
  137CHL1    C616333   7.410   1.324   7.915 -0.1543  0.6129  0.4758
  137CHL1    H616334   7.490   1.378   7.862  1.0151 -1.3839  0.1285
  137CHL1    C716335   7.311   1.408   7.989  0.1144  0.0084  0.5485
  137CHL1   H7A16336   7.369   1.478   8.052  1.6420 -1.2240  0.5608
  137CHL1   H7B16337   7.254   1.469   7.914  1.7743 -2.2159 -2.7429
  137CHL1    C816338   7.215   1.329   8.078 -0.1632 -0.7589 -0.1636
  137CHL1    H816339   7.265   1.295   8.172 -0.6165 -0.1370  0.3127
  137CHL1   C1416340   7.092   1.413   8.104  0.7336 -0.1055 -0.1374
  137CHL1   H1416341   7.044   1.436   8.007 -0.0680 -0.6850  0.1126
  137CHL1   C1516342   7.118   1.559   8.146  0.2767 -0.0742  0.5317
  137CHL1  H15A16343   7.189   1.546   8.231  0.0985 -0.1540  0.6691
  137CHL1  H15B16344   7.163   1.615   8.061 -1.0910  0.1546 -0.0548
  137CHL1   C1616345   6.980   1.608   8.203  0.3684  0.2898  0.4884
  137CHL1  H16A16346   6.995   1.657   8.301  0.2453 -0.5111  0.9150
  137CHL1  H16B16347   6.933   1.687   8.140 -0.9066 -2.0093 -1.6444
  137CHL1   C1716348   6.889   1.481   8.217  0.9500 -0.0020 -0.6807
  137CHL1   H1716349   6.824   1.496   8.128 -1.1905  0.5011  0.8796
  137CHL1   C1316350   6.986   1.358   8.197  0.4300 -0.8674  0.7903
  137CHL1   C1816351   7.047   1.329   8.334 -0.0871 -0.0875 -0.2523
  137CHL1  H18A16352   7.083   1.421   8.386  1.5138 -1.1644  0.6298
  137CHL1  H18B16353   6.969   1.277   8.394 -1.8612  1.3607 -1.1994
  137CHL1  H18C16354   7.134   1.261   8.326  0.7631  0.8757  0.5528
  137CHL1   C1216355   6.936   1.230   8.123  0.2524 -0.3636  0.0457
  137CHL1  H12A16356   6.868   1.171   8.188  2.1631 -1.0224  1.5571
  137CHL1  H12B16357   6.882   1.269   8.034  3.0534 -1.5024 -2.3290
  137CHL1   C1116358   7.055   1.128   8.081  0.4609  0.1104  0.5410
  137CHL1  H11A16359   7.103   1.084   8.171 -1.0422 -0.8117  0.9338
  137CHL1  H11B16360   7.002   1.054   8.017 -0.3882 -0.5933  1.9953
  137CHL1    C916361   7.171   1.202   7.999  0.0466  0.1799 -0.0373
  137CHL1    H916362   7.122   1.243   7.908 -1.6200 -1.3310  0.1278
  137CHL1   C1016363   7.288   1.110   7.956  0.8753  0.3270  0.5236
  137CHL1   C1916364   7.338   1.028   8.074  0.0626 -0.7443 -0.0454
  137CHL1  H19A16365   7.251   0.978   8.122 -0.5617  0.9475  0.6580
  137CHL1  H19B16366   7.426   0.966   8.049  1.5185  1.0737  0.3303
  137CHL1  H19C16367   7.372   1.101   8.150 -0.1816  1.9188 -2.3213
  137CHL1    C116368   7.239   1.019   7.850  1.0142  0.0768 -1.7319
  137CHL1   H1A16369   7.155   0.958   7.890 -0.8697  2.6753 -1.4836
  137CHL1   H1B16370   7.190   1.087   7.777 -0.1812 -1.1357 -2.1094
  137CHL1    C216371   7.341   0.939   7.768 -0.1043 -0.0620  0.1951
  137CHL1   H2A16372   7.294   0.895   7.678  1.6034  0.4848 -1.0130
  137CHL1   H2B16373   7.379   0.857   7.834  0.4497  1.2322  1.5479
  137CHL1   C2016374   6.791   1.478   8.333 -0.5254 -0.0243 -0.3567
  137CHL1   H2016375   6.848   1.495   8.426 -1.2947  1.9451 -0.1933
  137CHL1   C2116376   6.706   1.342   8.338 -0.7306 -0.0649  0.4031
  137CHL1  H21A16377   6.625   1.354   8.412 -3.1342  2.5586 -2.3502
  137CHL1  H21B16378   6.764   1.252   8.366 -0.5996 -0.4885 -1.1132
  137CHL1  H21C16379   6.663   1.315   8.239  0.0930 -0.5970  0.1767
  137CHL1   C2216380   6.695   1.597   8.319 -0.1782 -0.2270  0.5476
  137CHL1  H22A16381   6.746   1.695   8.305 -1.7365  0.3246 -2.0163
  137CHL1  H22B16382   6.641   1.593   8.222  3.5005  1.7501 -1.8762
  137CHL1   C2316383   6.590   1.628   8.423 -0.1548 -0.1405 -0.5447
  137CHL1  H23A16384   6.510   1.551   8.423  0.0235 -0.4191 -2.8247
  137CHL1  H23B16385   6.645   1.626   8.519 -2.1848 -0.3317  0.6756
  137CHL1   C2416386   6.513   1.763   8.399 -0.0023  0.2717 -0.0914
  137CHL1  H24A16387   6.586   1.843   8.375  0.2399 -0.7494 -3.0299
  137CHL1  H24B16388   6.449   1.754   8.309  1.1309  0.0958 -0.9002
  137CHL1   C2516389   6.428   1.804   8.524 -0.1631  0.0142  0.4340
  137CHL1   H2516390   6.500   1.806   8.608  0.1333 -0.3230  0.1939
  137CHL1   C2616391   6.360   1.941   8.515  0.3390  0.0312 -0.3739
  137CHL1  H26A16392   6.287   1.938   8.431 -0.9786 -0.5870  0.7520
  137CHL1  H26B16393   6.298   1.952   8.607  0.5442 -0.1422 -0.2130
  137CHL1  H26C16394   6.432   2.023   8.496 -1.8695  2.6515  1.7767
  137CHL1   C2716395   6.324   1.698   8.564  0.6972  0.2617 -0.2938
  137CHL1  H27A16396   6.251   1.685   8.481  0.0074 -1.4105  0.5401
  137CHL1  H27B16397   6.368   1.598   8.583 -0.9307 -0.6813 -1.2413
  137CHL1  H27C16398   6.268   1.735   8.652  1.2885  1.6019 -0.4431
  138CHL1    C316399   7.213   0.434   7.450 -0.1848 -0.0059 -0.2331
  138CHL1    H316400   7.119   0.379   7.469  0.0735 -0.6662 -0.7893
  138CHL1    O316401   7.221   0.435   7.311  0.0697  0.3100  0.4705
  138CHL1   H3'16402   7.236   0.349   7.273  0.0515  0.8307 -0.7799
  138CHL1    C416403   7.195   0.576   7.508 -0.5796  0.4278 -0.0585
  138CHL1   H4A16404   7.274   0.648   7.477 -0.5519  0.9359  1.1648
  138CHL1   H4B16405   7.099   0.625   7.480 -0.5592 -0.1694 -1.2304
  138CHL1    C516406   7.197   0.568   7.658  0.3708 -0.1269 -1.3621
  138CHL1    C616407   7.097   0.628   7.731  0.0537 -0.5226  0.2950
  138CHL1    H616408   7.026   0.694   7.679  2.0916  0.9666 -0.7321
  138CHL1    C716409   7.080   0.624   7.888 -0.1167 -0.4001  0.5358
  138CHL1   H7A16410   7.062   0.726   7.926  0.8000 -0.8161  2.2360
  138CHL1   H7B16411   6.997   0.560   7.924 -0.6592  0.9491  1.7767
  138CHL1    C816412   7.210   0.583   7.957 -0.8888  0.7656  0.4989
  138CHL1    H816413   7.283   0.667   7.952 -2.3299  1.9820 -0.9440
  138CHL1   C1416414   7.168   0.535   8.094 -0.6889  0.2204  0.1773
  138CHL1   H1416415   7.103   0.446   8.082  1.5871 -1.2480 -2.4368
  138CHL1   C1516416   7.100   0.636   8.182  0.4445 -0.6298  0.7366
  138CHL1  H15A16417   7.157   0.731   8.174 -0.2610 -0.3659 -1.9351
  138CHL1  H15B16418   6.996   0.664   8.154 -0.6201 -4.3432  0.5121
  138CHL1   C1616419   7.111   0.580   8.324 -0.2107 -0.1012  0.5701
  138CHL1  H16A16420   7.152   0.659   8.391  0.4938  0.8436 -0.9236
  138CHL1  H16B16421   7.014   0.536   8.357 -0.2527 -3.0931 -2.9385
  138CHL1   C1716422   7.214   0.467   8.322 -0.5417 -0.2258 -0.9570
  138CHL1   H1716423   7.169   0.366   8.319 -1.8287  0.3236 -0.8249
  138CHL1   C1316424   7.284   0.484   8.180  0.1879 -0.3019  0.7107
  138CHL1   C1816425   7.389   0.597   8.189  0.1064 -0.0846  0.1630
  138CHL1  H18A16426   7.350   0.694   8.226 -2.0842 -0.4458 -1.0412
  138CHL1  H18B16427   7.477   0.570   8.252  0.6348 -0.7365 -0.8181
  138CHL1  H18C16428   7.436   0.616   8.090 -1.1910  1.2129 -0.2301
  138CHL1   C1216429   7.343   0.360   8.110  0.0761 -0.1620  0.0607
  138CHL1  H12A16430   7.430   0.322   8.167  0.2060  0.8784  0.5736
  138CHL1  H12B16431   7.258   0.293   8.134  0.8188 -0.2282  2.7911
  138CHL1   C1116432   7.381   0.386   7.961  0.5712 -0.2094  0.4293
  138CHL1  H11A16433   7.473   0.448   7.967 -0.6381  1.5766  1.5898
  138CHL1  H11B16434   7.411   0.293   7.909 -0.7895 -0.1488 -0.5098
  138CHL1    C916435   7.272   0.458   7.883  0.0777 -0.4593  0.0734
  138CHL1    H916436   7.187   0.387   7.873 -0.7893  0.7459 -1.6158
  138CHL1   C1016437   7.308   0.489   7.737 -0.0821 -0.4672  0.2944
  138CHL1   C1916438   7.436   0.575   7.736  0.2193 -0.2530 -0.9863
  138CHL1  H19A16439   7.427   0.671   7.791  1.2097 -1.6256  1.7361
  138CHL1  H19B16440   7.512   0.517   7.793 -1.3195 -0.4077  1.0131
  138CHL1  H19C16441   7.471   0.573   7.630  1.2205 -2.9021 -0.6822
  138CHL1    C116442   7.329   0.352   7.658  0.7327  0.6383 -0.6996
  138CHL1   H1A16443   7.417   0.290   7.689 -1.2439 -1.9179  0.2171
  138CHL1   H1B16444   7.239   0.291   7.680  0.9672 -0.1771 -1.9172
  138CHL1    C216445   7.333   0.360   7.502  0.1586  0.4797 -0.3855
  138CHL1   H2A16446   7.331   0.254   7.470  1.9122 -0.0640  1.1116
  138CHL1   H2B16447   7.423   0.423   7.486 -0.3113  1.1099 -0.5777
  138CHL1   C2016448   7.303   0.463   8.444 -0.0154 -0.1487 -0.4576
  138CHL1   H2016449   7.355   0.561   8.443  1.1134 -0.6956  1.0948
  138CHL1   C2116450   7.403   0.351   8.443 -0.1524  0.3624 -0.2652
  138CHL1  H21A16451   7.497   0.361   8.385  1.4006 -2.5548  1.4916
  138CHL1  H21B16452   7.353   0.259   8.408  1.5764 -0.3700 -0.9480
  138CHL1  H21C16453   7.431   0.322   8.546  0.6957  1.0708 -0.2825
  138CHL1   C2216454   7.225   0.457   8.582  0.3034 -1.0674  0.3132
  138CHL1  H22A16455   7.303   0.437   8.659 -1.8403 -1.2482  2.5633
  138CHL1  H22B16456   7.172   0.554   8.597  2.9478  0.0966  3.0694
  138CHL1   C2316457   7.118   0.344   8.594 -0.3334 -0.4344 -0.8692
  138CHL1  H23A16458   7.045   0.352   8.511  0.6701  2.4249 -1.6083
  138CHL1  H23B16459   7.168   0.245   8.599  0.8348  0.1516 -0.5102
  138CHL1   C2416460   7.015   0.364   8.708 -0.8140  0.1816  0.7112
  138CHL1  H24A16461   7.063   0.387   8.806 -1.2137 -0.2174  1.0021
  138CHL1  H24B16462   6.951   0.447   8.673  0.8792 -0.2222 -4.0971
  138CHL1   C2516463   6.916   0.248   8.718 -0.1984 -0.2362  0.6370
  138CHL1   H2516464   6.974   0.155   8.737 -1.0810 -0.9128  0.1092
  138CHL1   C2616465   6.833   0.255   8.842  0.0260 -0.3247 -0.2362
  138CHL1  H26A16466   6.769   0.345   8.851  0.8352  0.1670  1.0122
  138CHL1  H26B16467   6.772   0.164   8.859  1.2267 -0.9977  0.6164
  138CHL1  H26C16468   6.898   0.266   8.932  0.7228  0.8167 -0.8481
  138CHL1   C2716469   6.821   0.228   8.600 -0.0073 -0.1701  0.1247
  138CHL1  H27A16470   6.866   0.187   8.507  0.2957 -0.4180  0.3733
  138CHL1  H27B16471   6.757   0.141   8.626  0.8757 -1.5301 -2.0030
  138CHL1  H27C16472   6.762   0.320   8.583  0.0376 -0.3693 -1.1817
  139CHL1    C316473   0.074   6.912   6.961  0.8601  0.2930  0.4761
  139CHL1    H316474   0.166   6.872   6.913  1.2136 -0.2976  1.6371
  139CHL1    O316475  -0.032   6.907   6.867  0.1492  0.4822 -0.1064
  139CHL1   H3'16476  -0.071   6.994   6.859  2.1877  1.4097 -0.5944
  139CHL1    C416477   0.052   6.813   7.077 -1.1067  0.9877 -0.7752
  139CHL1   H4A16478  -0.043   6.849   7.122 -0.1778  0.6882  1.5728
  139CHL1   H4B16479   0.049   6.710   7.037  3.9134 -0.4715  1.6874
  139CHL1    C516480   0.162   6.816   7.187 -0.4201 -0.1007  0.4069
  139CHL1    C616481   0.231   6.708   7.227  0.3988 -0.0960 -0.1495
  139CHL1    H616482   0.205   6.610   7.184  0.5270 -0.6479  0.9806
  139CHL1    C716483   0.340   6.706   7.328 -0.0173  0.3156  0.3410
  139CHL1   H7A16484   0.316   6.630   7.407  1.1607 -1.0490 -0.5650
  139CHL1   H7B16485   0.441   6.684   7.288 -0.3247  0.1533 -0.3609
  139CHL1    C816486   0.345   6.840   7.408 -1.0124  0.4193 -0.1893
  139CHL1    H816487   0.259   6.858   7.475 -1.7959 -0.1322 -1.0290
  139CHL1   C1416488   0.478   6.847   7.482 -0.2851 -0.5012 -0.1505
  139CHL1   H1416489   0.554   6.841   7.402  0.7765 -0.0427  0.8076
  139CHL1   C1516490   0.519   6.739   7.577  0.1111  1.1701 -0.1959
  139CHL1  H15A16491   0.435   6.725   7.648  2.0282  0.2681  2.0622
  139CHL1  H15B16492   0.540   6.645   7.522 -1.4255  0.7401 -0.0970
  139CHL1   C1616493   0.634   6.798   7.650 -0.1997 -0.5532 -0.1580
  139CHL1  H16A16494   0.622   6.781   7.759  4.1289 -0.3009  0.5369
  139CHL1  H16B16495   0.727   6.746   7.619  0.5845  0.3660  0.5669
  139CHL1   C1716496   0.638   6.953   7.630 -0.3572 -0.1609  0.7160
  139CHL1   H1716497   0.712   6.974   7.549 -2.5049  0.1420 -1.2923
  139CHL1   C1316498   0.506   6.977   7.557  0.5413  0.3608  0.1838
  139CHL1   C1816499   0.402   6.999   7.667 -0.2065 -0.3250  0.0972
  139CHL1  H18A16500   0.426   7.098   7.712 -1.2559 -1.0100  2.2777
  139CHL1  H18B16501   0.301   7.013   7.622 -0.1270  0.4247  0.1415
  139CHL1  H18C16502   0.389   6.925   7.748  0.6835 -0.5505  0.0409
  139CHL1   C1216503   0.505   7.089   7.452 -0.1747 -0.2512  0.5050
  139CHL1  H12A16504   0.508   7.183   7.512  0.9386 -0.1324  0.2749
  139CHL1  H12B16505   0.590   7.084   7.381 -0.1277  0.3380  0.5093
  139CHL1   C1116506   0.372   7.090   7.372 -0.1879 -0.1212  0.7470
  139CHL1  H11A16507   0.292   7.115   7.444  0.3175  0.5440  1.0921
  139CHL1  H11B16508   0.373   7.167   7.292 -0.1096 -0.0732  0.7929
  139CHL1    C916509   0.331   6.960   7.306 -0.4514 -0.1744  0.0023
  139CHL1    H916510   0.409   6.947   7.228 -0.0932  0.1026  0.3107
  139CHL1   C1016511   0.195   6.956   7.233 -0.0396 -0.1005  0.0427
  139CHL1   C1916512   0.075   7.003   7.329  0.0999 -0.0648 -0.2310
  139CHL1  H19A16513  -0.022   7.021   7.279  1.0065  0.5443 -1.8468
  139CHL1  H19B16514   0.053   6.935   7.414  0.6809 -0.9931 -0.8075
  139CHL1  H19C16515   0.101   7.098   7.381  1.1560  0.4738 -1.6694
  139CHL1    C116516   0.205   7.053   7.119 -0.5241  0.5348 -0.5829
  139CHL1   H1A16517   0.226   7.151   7.165  0.2384 -1.1096  2.9131
  139CHL1   H1B16518   0.292   7.023   7.057 -0.9092 -3.4293  0.5194
  139CHL1    C216519   0.092   7.049   7.018  0.1063  0.2325 -0.5091
  139CHL1   H2A16520   0.110   7.122   6.937  1.7798 -0.2799 -0.6541
  139CHL1   H2B16521  -0.002   7.081   7.068  0.2514 -1.5450  1.0639
  139CHL1   C2016522   0.681   7.035   7.754 -0.4250 -1.1865  0.3345
  139CHL1   H2016523   0.608   7.016   7.836  0.1660 -0.4652  1.0421
  139CHL1   C2116524   0.683   7.188   7.731  0.8296 -0.1085 -0.4069
  139CHL1  H21A16525   0.734   7.249   7.809 -0.2576 -1.7376  1.6856
  139CHL1  H21B16526   0.581   7.230   7.735  1.1758  0.7548 -0.3534
  139CHL1  H21C16527   0.727   7.215   7.633  1.2635 -0.6039 -0.3539
  139CHL1   C2216528   0.826   6.988   7.799 -0.0750  0.6898 -0.1329
  139CHL1  H22A16529   0.833   6.877   7.797  0.8569  0.7243  0.4089
  139CHL1  H22B16530   0.897   7.020   7.720  0.3696 -3.5942 -1.7290
  139CHL1   C2316531   0.884   7.027   7.936  0.1373  0.4876 -0.9220
  139CHL1  H23A16532   0.824   7.110   7.979  1.1251 -0.0357  1.6399
  139CHL1  H23B16533   0.865   6.950   8.014  3.7189 -0.6587 -0.9639
  139CHL1   C2416534   1.030   7.071   7.937 -0.6095 -0.0837  0.1896
  139CHL1  H24A16535   1.086   6.977   7.918 -1.7671 -1.0800  1.5220
  139CHL1  H24B16536   1.043   7.152   7.862  0.1844  1.1581  1.5927
  139CHL1   C2516537   1.085   7.123   8.074 -0.3699 -0.3686  0.4178
  139CHL1   H2516538   1.008   7.186   8.124 -1.1711  0.5851 -1.8474
  139CHL1   C2616539   1.120   7.008   8.167  0.4813  0.2750 -0.4665
  139CHL1  H26A16540   1.197   6.942   8.121 -1.6552 -0.9817 -2.4166
  139CHL1  H26B16541   1.153   7.032   8.270  1.2841 -0.3988 -0.5508
  139CHL1  H26C16542   1.028   6.946   8.169 -0.3407  1.4305  1.8603
  139CHL1   C2716543   1.212   7.206   8.045 -0.2740  0.7027  0.4285
  139CHL1  H27A16544   1.245   7.250   8.142  1.4679  1.5708 -0.5096
  139CHL1  H27B16545   1.289   7.142   7.997 -2.7527 -0.3133 -2.4792
  139CHL1  H27C16546   1.195   7.293   7.979 -0.1082  0.7447  0.4418
  140CHL1    C316547   9.138   8.761   7.064 -0.6921 -0.1886  0.0785
  140CHL1    H316548   9.057   8.798   6.998 -0.8652 -1.6333 -0.5520
  140CHL1    O316549   9.212   8.666   6.995 -0.1610 -0.0369 -0.2564
  140CHL1   H3'16550   9.157   8.658   6.916 -0.2500  1.2773 -0.3481
  140CHL1    C416551   9.231   8.875   7.108 -0.0893  0.0809  0.5327
  140CHL1   H4A16552   9.313   8.838   7.173  0.8041 -0.5876 -0.9193
  140CHL1   H4B16553   9.277   8.913   7.014 -1.5551 -0.8641 -0.6047
  140CHL1    C516554   9.154   8.972   7.188 -0.8093 -0.5990 -0.6312
  140CHL1    C616555   9.135   9.098   7.138  0.1503  0.2044  0.2212
  140CHL1    H616556   9.175   9.129   7.040  1.0329  3.9995  1.5955
  140CHL1    C716557   9.054   9.205   7.211  0.3860 -0.0792  0.3629
  140CHL1   H7A16558   9.115   9.297   7.206  1.0751 -0.6051 -2.8812
  140CHL1   H7B16559   8.969   9.229   7.144  0.6106 -1.4103 -0.4265
  140CHL1    C816560   9.010   9.170   7.351  0.1640  0.3886  0.4612
  140CHL1    H816561   9.095   9.194   7.419  1.9282  1.5993 -2.0217
  140CHL1   C1416562   8.897   9.257   7.403 -0.6348 -0.1011  0.2446
  140CHL1   H1416563   8.814   9.231   7.334  0.2723  0.8827 -1.2996
  140CHL1   C1516564   8.907   9.411   7.389  0.0851 -0.2389 -0.2359
  140CHL1  H15A16565   9.002   9.447   7.433 -0.6399 -0.6692  1.7797
  140CHL1  H15B16566   8.920   9.441   7.283 -0.6934  0.2262 -0.2032
  140CHL1   C1616567   8.792   9.459   7.473  0.0399  0.1531 -0.4400
  140CHL1  H16A16568   8.837   9.531   7.546  1.7306 -0.5002 -0.7821
  140CHL1  H16B16569   8.709   9.507   7.418 -1.0662 -2.4671 -1.1951
  140CHL1   C1716570   8.729   9.336   7.553  0.6323  1.1350  0.8496
  140CHL1   H1716571   8.643   9.314   7.486  3.3271  0.2865 -2.6306
  140CHL1   C1316572   8.835   9.226   7.537 -0.8543 -0.0587 -0.4361
  140CHL1   C1816573   8.944   9.248   7.649  0.0366  0.5849  0.5812
  140CHL1  H18A16574   8.908   9.201   7.743  0.7958  2.5791  1.9368
  140CHL1  H18B16575   9.039   9.196   7.624 -0.2348  0.7666 -0.9281
  140CHL1  H18C16576   8.959   9.357   7.665  1.0576  0.4321  0.7438
  140CHL1   C1216577   8.788   9.076   7.543 -0.2843  0.0673  0.0284
  140CHL1  H12A16578   8.752   9.053   7.646 -0.9886 -2.1596 -0.6617
  140CHL1  H12B16579   8.713   9.057   7.463  2.3829 -3.5454 -1.9244
  140CHL1   C1116580   8.910   8.984   7.498  0.1103  1.0606 -0.5098
  140CHL1  H11A16581   8.980   8.996   7.583  0.8266 -0.1689 -0.9041
  140CHL1  H11B16582   8.878   8.878   7.497 -0.5328  1.2517 -1.0116
  140CHL1    C916583   8.971   9.022   7.359  1.2416  0.9466 -0.1125
  140CHL1    H916584   8.887   9.023   7.288 -0.5302 -0.6462  1.8186
  140CHL1   C1016585   9.079   8.923   7.309 -0.1206  0.3713 -0.0470
  140CHL1   C1916586   9.183   8.895   7.426  0.2065 -0.1271  0.3312
  140CHL1  H19A16587   9.250   8.983   7.429 -0.4816  0.4702 -0.7782
  140CHL1  H19B16588   9.125   8.871   7.518  1.8673 -0.8626  1.2169
  140CHL1  H19C16589   9.243   8.806   7.399 -2.3538 -2.2665  1.1667
  140CHL1    C116590   9.000   8.791   7.274 -0.3573 -0.5241  0.4907
  140CHL1   H1A16591   8.974   8.751   7.375  0.1467  0.8663  1.2007
  140CHL1   H1B16592   8.903   8.809   7.224  0.2149 -0.3368 -0.5885
  140CHL1    C216593   9.078   8.696   7.191  0.0091  0.2199 -0.2611
  140CHL1   H2A16594   9.011   8.615   7.155  0.5436  0.3431 -1.5806
  140CHL1   H2B16595   9.159   8.649   7.252 -1.3510 -2.6451 -0.5090
  140CHL1   C2016596   8.667   9.374   7.689 -0.8678 -0.2225 -0.2666
  140CHL1   H2016597   8.752   9.396   7.757 -1.2739 -2.2850  0.9815
  140CHL1   C2116598   8.588   9.258   7.728 -0.0380  1.0335 -0.0105
  140CHL1  H21A16599   8.652   9.173   7.761  1.0103  1.0704 -1.8060
  140CHL1  H21B16600   8.517   9.226   7.649  0.3104  1.6931 -0.6016
  140CHL1  H21C16601   8.526   9.292   7.814 -1.0774 -0.5532 -0.0989
  140CHL1   C2216602   8.574   9.499   7.676 -0.5650 -0.2915 -0.3544
  140CHL1  H22A16603   8.628   9.568   7.608  2.2872 -1.5451  0.4851
  140CHL1  H22B16604   8.479   9.459   7.633 -0.1853 -0.8443 -0.6944
  140CHL1   C2316605   8.551   9.569   7.812  0.0591  0.2475 -0.1634
  140CHL1  H23A16606   8.509   9.497   7.885  0.3174  0.9698  0.7151
  140CHL1  H23B16607   8.648   9.609   7.849  0.4468 -1.1829  0.4531
  140CHL1   C2416608   8.450   9.690   7.808 -0.2446  0.5849 -0.5866
  140CHL1  H24A16609   8.444   9.730   7.912 -0.0443 -1.6432  0.3411
  140CHL1  H24B16610   8.495   9.772   7.748 -0.2255  2.5564  1.9562
  140CHL1   C2516611   8.312   9.649   7.751 -0.4445 -0.1979  0.1739
  140CHL1   H2516612   8.327   9.601   7.652  1.1442  1.5126 -0.4881
  140CHL1   C2616613   8.221   9.770   7.735  0.5014  0.2868  0.4094
  140CHL1  H26A16614   8.169   9.811   7.823 -0.7078  1.1282 -0.6604
  140CHL1  H26B16615   8.278   9.856   7.693  0.8848 -0.0208  0.2899
  140CHL1  H26C16616   8.140   9.739   7.665  1.7232  2.8193 -2.3797
  140CHL1   C2716617   8.244   9.539   7.837 -0.2547 -0.9381 -0.9522
  140CHL1  H27A16618   8.223   9.573   7.941  3.4524 -1.0858 -0.0430
  140CHL1  H27B16619   8.141   9.515   7.803 -1.6917  2.5561  0.4457
  140CHL1  H27C16620   8.311   9.451   7.845  0.0564 -0.5826  0.7695
  141DOPC     N16621   5.394   3.958  10.334  0.0063 -0.2210  0.1824
  141DOPC   C1216622   5.447   3.911  10.197  0.1620  0.3316 -0.5727
  141DOPC  H12A16623   5.433   3.805  10.184  0.1284  0.2168  0.2965
  141DOPC  H12B16624   5.553   3.935  10.195  0.8964 -2.1842  1.8104
  141DOPC   C1316625   5.430   4.103  10.356  0.1656 -0.2625 -0.1434
  141DOPC  H13A16626   5.378   4.177  10.297  1.0334  0.8538  0.4515
  141DOPC  H13B16627   5.415   4.130  10.460  1.0470  1.2069 -0.3683
  141DOPC  H13C16628   5.536   4.106  10.335  0.6052 -2.3780  1.4791
  141DOPC   C1416629   5.461   3.888  10.451 -0.3653 -0.1125 -0.3233
  141DOPC  H14A16630   5.441   3.924  10.551  0.6059 -0.3888 -0.0232
  141DOPC  H14B16631   5.423   3.787  10.456  0.7091 -0.5246 -0.2781
  141DOPC  H14C16632   5.568   3.878  10.437 -0.4726  0.1516 -1.4426
  141DOPC   C1516633   5.248   3.950  10.354  0.1360  0.1497 -0.8491
  141DOPC  H15A16634   5.193   3.977  10.265 -1.0583  0.0674 -0.1649
  141DOPC  H15B16635   5.212   4.020  10.429 -0.6785  0.5576 -1.5974
  141DOPC  H15C16636   5.221   3.848  10.375  0.8355  0.2290  0.5191
  141DOPC   C1116637   5.382   3.966  10.075  0.3256 -0.3683 -0.2946
  141DOPC  H11A16638   5.405   4.073  10.090 -2.4123  0.2163  0.1816
  141DOPC  H11B16639   5.436   3.938   9.982 -1.5670 -2.5996 -0.8226
  141DOPC     P16640   5.186   3.806  10.032 -0.4900  0.2173  0.2185
  141DOPC   O1316641   5.040   3.806  10.041  0.8785  1.1596  0.7274
  141DOPC   O1416642   5.267   3.701  10.106  0.5665  0.1278 -0.2877
  141DOPC   O1216643   5.242   3.948  10.071  0.0121  0.4477 -0.2681
  141DOPC   O1116644   5.215   3.805   9.874 -0.6693 -0.4777  0.4172
  141DOPC    C116645   5.179   3.912   9.794  0.4224  0.4862 -0.1281
  141DOPC    HA16646   5.209   4.004   9.849  0.2550  1.4375 -1.5593
  141DOPC    HB16647   5.068   3.919   9.793  0.3332 -0.6798  0.2556
  141DOPC    C216648   5.261   3.903   9.665 -0.1594 -0.4397 -0.1053
  141DOPC    HS16649   5.265   4.009   9.633  0.6296  0.2034  1.9858
  141DOPC   O2116650   5.195   3.819   9.554  0.0161  0.1628 -0.3946
  141DOPC   C2116651   5.081   3.855   9.520  0.5202  0.1793 -0.8636
  141DOPC   O2216652   5.019   3.957   9.556 -0.0166 -0.1167 -0.4167
  141DOPC   C2216653   5.008   3.740   9.447  0.3541 -0.0966  0.4006
  141DOPC   H2R16654   4.905   3.738   9.491  0.6405  2.4253  1.3488
  141DOPC   H2S16655   5.065   3.645   9.450  0.7583  0.1626  2.4650
  141DOPC    C316656   5.413   3.863   9.689 -0.2126 -0.1993  0.0694
  141DOPC    HX16657   5.432   3.783   9.764  0.0632  0.5696  0.8329
  141DOPC    HY16658   5.450   3.953   9.742  0.7767 -1.4025  1.5295
  141DOPC   O3116659   5.498   3.848   9.574 -0.0035 -0.5349 -0.2434
  141DOPC   C3116660   5.500   3.725   9.525 -0.8740 -0.2563  0.3098
  141DOPC   O3216661   5.448   3.630   9.579 -0.2901  0.6203  0.0897
  141DOPC   C3216662   5.566   3.720   9.388 -0.4579 -1.1180 -0.4081
  141DOPC   H2X16663   5.497   3.764   9.313  1.0274 -0.2021 -1.2786
  141DOPC   H2Y16664   5.658   3.783   9.392 -1.4911  0.4367  3.5766
  141DOPC   C2316665   4.984   3.772   9.291  0.4585  0.1100 -0.0968
  141DOPC   H3R16666   4.941   3.874   9.296 -1.1088 -0.5845  1.6737
  141DOPC   H3S16667   4.897   3.705   9.274 -1.4255  2.4395 -0.0449
  141DOPC   C2416668   5.097   3.741   9.197 -1.3446  0.4954 -1.1558
  141DOPC   H4R16669   5.162   3.657   9.227 -0.4229  1.3919 -0.5935
  141DOPC   H4S16670   5.175   3.820   9.202  0.8113 -1.5900  0.0377
  141DOPC   C2516671   5.052   3.733   9.052 -0.2677 -0.5312 -0.6784
  141DOPC   H5R16672   4.946   3.702   9.054 -0.0175 -1.3796 -0.5024
  141DOPC   H5S16673   5.116   3.660   8.998  0.5952 -1.0357  0.9626
  141DOPC   C2616674   5.057   3.872   8.985  0.2549 -0.3875 -0.3651
  141DOPC   H6R16675   5.022   3.945   9.060 -0.9057  0.3630 -1.5850
  141DOPC   H6S16676   4.995   3.866   8.893  1.1471 -1.0135 -0.9457
  141DOPC   C2716677   5.201   3.905   8.935 -0.1770  0.1831  0.5054
  141DOPC   H7R16678   5.243   3.833   8.861  1.3093  2.0919 -0.6017
  141DOPC   H7S16679   5.268   3.893   9.022 -2.3117  0.6320  2.2847
  141DOPC   C2816680   5.217   4.058   8.904  0.3378  0.1912 -0.0924
  141DOPC   H8R16681   5.325   4.084   8.904  0.3791  0.2114 -2.3389
  141DOPC   H8S16682   5.178   4.110   8.995  1.5281  1.1533 -0.1109
  141DOPC   C2916683   5.140   4.109   8.789 -0.1305 -0.4137  0.3178
  141DOPC   H9R16684   5.092   4.028   8.733  2.3477 -2.1492  0.5842
  141DOPC  C21016685   5.132   4.244   8.760 -0.2111 -0.6687  0.0156
  141DOPC  H10R16686   5.072   4.278   8.674 -2.6902  0.5841  2.1169
  141DOPC  C21116687   5.212   4.359   8.828  0.1812  0.3991 -0.8443
  141DOPC  H11R16688   5.312   4.369   8.779  0.9750  1.2370  0.8772
  141DOPC  H11S16689   5.226   4.318   8.930 -2.3098  1.0532 -0.1755
  141DOPC  C21216690   5.151   4.498   8.828 -0.4826 -0.4091  0.5874
  141DOPC  H12R16691   5.135   4.529   8.723 -1.8883 -1.1233  0.5553
  141DOPC  H12S16692   5.214   4.569   8.885 -2.4132  0.3416  1.9174
  141DOPC  C21316693   5.019   4.504   8.894  0.4746  0.1603  0.0550
  141DOPC  H13R16694   5.030   4.457   8.994 -0.9273 -0.0990  0.1222
  141DOPC  H13S16695   4.948   4.435   8.843  1.5809 -1.7075  0.9371
  141DOPC  C21416696   4.970   4.643   8.917 -0.3521 -0.5099  0.0071
  141DOPC  H14R16697   4.959   4.697   8.820  1.8536  2.8305  1.4425
  141DOPC  H14S16698   5.045   4.704   8.971  0.0842  1.0519 -2.2095
  141DOPC  C21516699   4.850   4.642   9.015  0.5291 -0.2938 -0.1323
  141DOPC  H15R16700   4.864   4.582   9.108 -1.3363  0.2712  0.5748
  141DOPC  H15S16701   4.757   4.595   8.978  0.9281 -0.7682 -0.5424
  141DOPC  C21616702   4.807   4.783   9.056 -0.4497  0.4689  0.3455
  141DOPC  H16R16703   4.786   4.852   8.972  1.1837  0.5563 -0.0212
  141DOPC  H16S16704   4.898   4.828   9.102 -0.9262 -0.0055  1.8099
  141DOPC  C21716705   4.682   4.794   9.146  0.0031 -0.0747 -0.0929
  141DOPC  H17R16706   4.682   4.899   9.184 -0.0709 -0.3712  0.7400
  141DOPC  H17S16707   4.694   4.722   9.230  0.4467  0.2278  0.1085
  141DOPC  C21816708   4.553   4.762   9.073  0.1922  0.2490  0.4286
  141DOPC  H18R16709   4.532   4.655   9.055  1.7118  0.0499 -0.3406
  141DOPC  H18S16710   4.539   4.818   8.978 -0.9396 -1.3738 -0.3965
  141DOPC  H18T16711   4.471   4.797   9.139  2.4596  2.2942  2.3776
  141DOPC   C3316712   5.603   3.579   9.335  0.7008  0.2957 -0.2822
  141DOPC   H3X16713   5.530   3.501   9.368  2.8007 -1.5838  0.1650
  141DOPC   H3Y16714   5.705   3.562   9.376  0.3746 -1.8092 -0.2113
  141DOPC   C3416715   5.616   3.588   9.183  0.2458  0.2514  0.0600
  141DOPC   H4X16716   5.678   3.506   9.141 -2.5909 -0.6133 -2.7938
  141DOPC   H4Y16717   5.680   3.673   9.154 -0.8872  1.1433  0.0799
  141DOPC   C3516718   5.479   3.583   9.113 -0.1493 -0.0364  0.0257
  141DOPC   H5X16719   5.407   3.663   9.140 -1.3094 -0.7188 -0.9832
  141DOPC   H5Y16720   5.446   3.487   9.158  0.7307  0.0777  0.9584
  141DOPC   C3616721   5.486   3.575   8.959  0.0172 -0.5636  0.5806
  141DOPC   H6X16722   5.559   3.496   8.931  1.0943  0.1543  1.2611
  141DOPC   H6Y16723   5.399   3.536   8.903  0.8782  0.5285 -1.6538
  141DOPC   C3716724   5.532   3.713   8.903  0.2276 -0.1775 -0.2067
  141DOPC   H7X16725   5.485   3.799   8.956 -0.6889  0.2211 -1.6081
  141DOPC   H7Y16726   5.639   3.719   8.934  0.5139  0.9373 -1.2997
  141DOPC   C3816727   5.519   3.727   8.749 -1.4055  0.1754  0.5161
  141DOPC   H8X16728   5.413   3.738   8.717 -1.4403  0.0345  0.5832
  141DOPC   H8Y16729   5.554   3.630   8.707  1.6044  0.5228  1.9719
  141DOPC   C3916730   5.599   3.843   8.702 -0.5297 -0.3372 -0.2082
  141DOPC   H9X16731   5.580   3.944   8.741 -0.3507  0.4864 -2.1359
  141DOPC  C31016732   5.722   3.834   8.637 -0.6708  0.0834  0.6893
  141DOPC  H10X16733   5.777   3.926   8.609 -0.0645 -0.5427 -0.2113
  141DOPC  C31116734   5.798   3.708   8.605 -0.2683 -0.1708  0.2000
  141DOPC  H11X16735   5.862   3.722   8.515 -1.0619  0.4400 -0.2839
  141DOPC  H11Y16736   5.723   3.628   8.592  0.4440 -1.0776  1.4712
  141DOPC  C31216737   5.889   3.661   8.720  0.6650 -0.5703  0.2475
  141DOPC  H12X16738   5.829   3.638   8.811 -1.2304  1.6662 -0.3413
  141DOPC  H12Y16739   5.968   3.732   8.753  1.0911 -1.9390  2.3346
  141DOPC  C31316740   5.970   3.533   8.677  0.3507 -0.0568  0.0298
  141DOPC  H13X16741   5.976   3.459   8.759 -0.7171 -0.0015  0.1706
  141DOPC  H13Y16742   5.915   3.483   8.594  0.1183 -2.8921  1.7284
  141DOPC  C31416743   6.115   3.568   8.649 -0.4698  0.4380 -1.1579
  141DOPC  H14X16744   6.164   3.603   8.742  0.9444  1.9648 -2.4258
  141DOPC  H14Y16745   6.147   3.465   8.622 -0.7072 -0.5971  2.0619
  141DOPC  C31516746   6.165   3.679   8.559 -0.0437 -0.6084  0.0545
  141DOPC  H15X16747   6.275   3.694   8.566 -0.1779  1.0280 -0.8969
  141DOPC  H15Y16748   6.120   3.778   8.583 -1.0629 -1.3526  1.3749
  141DOPC  C31616749   6.127   3.655   8.413 -0.6844  0.0376 -1.1455
  141DOPC  H16X16750   6.022   3.630   8.388 -1.1447 -0.0783  0.7799
  141DOPC  H16Y16751   6.141   3.748   8.353  1.4880 -0.5372 -1.6430
  141DOPC  C31716752   6.224   3.550   8.356 -0.0884  0.1588  0.3131
  141DOPC  H17X16753   6.321   3.549   8.411  0.6401 -0.6349 -0.9413
  141DOPC  H17Y16754   6.181   3.447   8.357 -0.9375  0.4568 -1.8106
  141DOPC  C31816755   6.257   3.575   8.208  0.6939 -0.0856 -0.8951
  141DOPC  H18X16756   6.284   3.682   8.195  1.3833 -0.1102  0.1303
  141DOPC  H18Y16757   6.335   3.503   8.175 -1.3798 -3.2172  0.5510
  141DOPC  H18Z16758   6.171   3.554   8.142 -1.4608 -0.2501  1.7532
  142DOPC     N16759   6.990   3.840   9.885 -0.0074 -0.1480  0.0042
  142DOPC   C1216760   7.080   3.808   9.761  0.2962  0.1401  0.0882
  142DOPC  H12A16761   7.184   3.829   9.782  0.3731  0.4144 -0.5469
  142DOPC  H12B16762   7.067   3.880   9.682 -0.4874  0.3307  0.3821
  142DOPC   C1316763   6.843   3.829   9.850  0.2032 -0.1650 -0.1949
  142DOPC  H13A16764   6.784   3.894   9.913 -0.3100  0.9672 -1.8055
  142DOPC  H13B16765   6.829   3.854   9.746  0.3705 -0.4144 -0.2794
  142DOPC  H13C16766   6.820   3.724   9.857  2.0719 -0.8031 -2.4505
  142DOPC   C1416767   7.026   3.977   9.928  0.5287 -0.2690 -0.2923
  142DOPC  H14A16768   6.968   4.004  10.015 -2.5814 -3.2439 -1.2368
  142DOPC  H14B16769   7.129   3.972   9.960  0.1778  0.2530  0.9948
  142DOPC  H14C16770   7.006   4.048   9.850 -0.3771 -1.5267 -1.2364
  142DOPC   C1516771   7.015   3.751  10.002  0.1756  0.2859  0.4512
  142DOPC  H15A16772   6.988   3.651   9.975  3.7463 -0.8800  0.6929
  142DOPC  H15B16773   6.954   3.786  10.084 -0.2746 -0.2955  0.3669
  142DOPC  H15C16774   7.120   3.744  10.027  0.1253 -1.1195  0.3488
  142DOPC   C1116775   7.069   3.663   9.702  0.4836 -0.2642  0.4652
  142DOPC  H11A16776   6.967   3.654   9.659  1.5651 -0.3154 -2.3759
  142DOPC  H11B16777   7.138   3.656   9.615  0.3718 -2.5875  0.5186
  142DOPC     P16778   7.051   3.426   9.816  0.4238 -0.2806  0.2489
  142DOPC   O1316779   6.923   3.428   9.884  0.2629  0.0979  0.4006
  142DOPC   O1416780   7.164   3.358   9.881 -0.1225 -0.4497 -0.3412
  142DOPC   O1216781   7.106   3.573   9.798 -0.0810  0.3045  0.1221
  142DOPC   O1116782   7.037   3.371   9.666  0.1211 -0.0326 -0.1877
  142DOPC    C116783   7.156   3.357   9.581 -0.4648  0.1360  0.1528
  142DOPC    HA16784   7.252   3.369   9.636 -1.2879  3.6619  1.1161
  142DOPC    HB16785   7.161   3.443   9.510 -2.6698  0.9002  0.8404
  142DOPC    C216786   7.147   3.227   9.494 -0.1572 -0.1605  0.2823
  142DOPC    HS16787   7.202   3.249   9.400  0.9359  1.7669  1.3202
  142DOPC   O2116788   7.014   3.177   9.458  0.6714 -0.1679  0.0454
  142DOPC   C2116789   6.944   3.259   9.391  0.4804 -0.2535 -0.4892
  142DOPC   O2216790   6.984   3.366   9.346  0.1669 -0.8968  0.1343
  142DOPC   C2216791   6.800   3.219   9.383  0.6438  0.4446 -0.3176
  142DOPC   H2R16792   6.745   3.286   9.453 -1.2909 -1.5025  0.1150
  142DOPC   H2S16793   6.780   3.117   9.421 -1.2840  1.1533  0.6772
  142DOPC    C316794   7.226   3.115   9.568  0.2504 -0.3537 -0.4030
  142DOPC    HX16795   7.150   3.073   9.637  0.5173 -0.0291  0.0939
  142DOPC    HY16796   7.311   3.149   9.631 -0.4776  0.1798  0.3152
  142DOPC   O3116797   7.275   3.005   9.488  0.4155 -0.2040 -0.0047
  142DOPC   C3116798   7.395   3.028   9.430  0.5196 -0.2999 -0.0542
  142DOPC   O3216799   7.458   3.131   9.432 -0.4659  0.4423  0.1940
  142DOPC   C3216800   7.440   2.903   9.359 -0.5259 -0.4422 -0.4585
  142DOPC   H2X16801   7.550   2.903   9.347 -0.4780  0.8595 -0.1641
  142DOPC   H2Y16802   7.426   2.823   9.436 -0.0050 -1.5000 -1.4339
  142DOPC   C2316803   6.751   3.238   9.238  0.4740 -0.2100 -0.6210
  142DOPC   H3R16804   6.771   3.338   9.194  2.1470  0.5999  1.7537
  142DOPC   H3S16805   6.640   3.243   9.248  0.5880  2.0003 -0.0009
  142DOPC   C2416806   6.782   3.133   9.140  0.0045 -0.2174  0.1007
  142DOPC   H4R16807   6.762   3.034   9.186  0.2448 -0.9761 -1.3500
  142DOPC   H4S16808   6.892   3.135   9.120 -0.3039 -0.8609 -1.9295
  142DOPC   C2516809   6.699   3.142   9.011  0.0367 -0.3023  0.3486
  142DOPC   H5R16810   6.590   3.156   9.028  0.1812  0.4352  0.6869
  142DOPC   H5S16811   6.700   3.043   8.959  0.8693 -0.7378  1.1867
  142DOPC   C2616812   6.750   3.255   8.916  0.0058 -0.1381  0.6774
  142DOPC   H6R16813   6.847   3.224   8.873 -1.0195 -1.0215 -1.1226
  142DOPC   H6S16814   6.758   3.352   8.970  0.2574 -0.5273  1.3449
  142DOPC   C2716815   6.662   3.288   8.788  0.3682  0.3864 -0.5178
  142DOPC   H7R16816   6.567   3.340   8.816 -0.2228 -2.0592  2.5215
  142DOPC   H7S16817   6.637   3.187   8.750 -0.9534  1.1654 -1.8460
  142DOPC   C2816818   6.742   3.356   8.683  0.6650  0.1555 -0.2320
  142DOPC   H8R16819   6.698   3.338   8.582 -1.6406  2.6319  0.2117
  142DOPC   H8S16820   6.847   3.320   8.684  0.0528 -1.7790 -0.2716
  142DOPC   C2916821   6.746   3.506   8.708  0.5640 -0.9597 -0.6770
  142DOPC   H9R16822   6.801   3.534   8.799  1.1640  2.8157 -2.0209
  142DOPC  C21016823   6.688   3.608   8.644  0.4309  0.0511 -0.3760
  142DOPC  H10R16824   6.707   3.713   8.672 -0.8949  0.3549 -0.5573
  142DOPC  C21116825   6.608   3.604   8.521  0.6619 -0.0197 -0.4929
  142DOPC  H11R16826   6.500   3.610   8.546  0.6670 -2.1169  0.2631
  142DOPC  H11S16827   6.622   3.515   8.456 -0.4347 -0.3239 -0.3367
  142DOPC  C21216828   6.644   3.723   8.431  0.7896  0.5401 -0.1782
  142DOPC  H12R16829   6.739   3.703   8.376  1.7635  1.6114  1.0371
  142DOPC  H12S16830   6.661   3.817   8.489 -0.9017  1.9630 -1.8611
  142DOPC  C21316831   6.533   3.751   8.330  0.6315 -0.5327 -0.4717
  142DOPC  H13R16832   6.444   3.775   8.393 -0.7817  0.4514 -2.7045
  142DOPC  H13S16833   6.517   3.656   8.274  1.7523 -0.3119 -1.2013
  142DOPC  C21416834   6.560   3.865   8.234  0.3370 -0.4396 -0.3934
  142DOPC  H14R16835   6.563   3.959   8.293  1.4975 -1.3072  1.0186
  142DOPC  H14S16836   6.467   3.879   8.175 -0.0967 -1.0262  0.1459
  142DOPC  C21516837   6.678   3.850   8.135  0.5302 -0.1374 -0.4518
  142DOPC  H15R16838   6.656   3.762   8.071  0.6682  0.0855 -0.8091
  142DOPC  H15S16839   6.773   3.827   8.187  0.2033  0.5496  0.4703
  142DOPC  C21616840   6.699   3.978   8.049  0.6412  0.5935  0.5966
  142DOPC  H16R16841   6.710   4.068   8.114 -2.2592 -1.8499  4.9608
  142DOPC  H16S16842   6.605   3.984   7.991 -0.4405 -2.4182  1.8360
  142DOPC  C21716843   6.829   3.964   7.965 -0.4486  0.2394 -0.5798
  142DOPC  H17R16844   6.819   3.891   7.883  1.1588  1.6799 -2.1355
  142DOPC  H17S16845   6.910   3.934   8.035 -2.0736  2.0822  2.2968
  142DOPC  C21816846   6.851   4.096   7.895 -0.3044 -0.5273 -0.4172
  142DOPC  H18R16847   6.943   4.112   7.834  0.5613 -1.0294  0.7085
  142DOPC  H18S16848   6.850   4.179   7.969 -0.4352 -1.3193  0.4818
  142DOPC  H18T16849   6.771   4.122   7.823  1.5178  2.3339 -1.6257
  142DOPC   C3316850   7.375   2.864   9.231  0.3822  0.5659 -0.4910
  142DOPC   H3X16851   7.269   2.840   9.255  0.6168 -3.9209 -2.8568
  142DOPC   H3Y16852   7.413   2.768   9.191 -1.4072 -0.7040  0.7065
  142DOPC   C3416853   7.386   2.965   9.121  0.6315 -0.2606  0.9137
  142DOPC   H4X16854   7.390   2.915   9.021  1.0401  2.1569 -0.3670
  142DOPC   H4Y16855   7.479   3.024   9.137  0.8679 -0.0375 -0.9925
  142DOPC   C3516856   7.267   3.054   9.115  0.2172 -0.1456  0.1757
  142DOPC   H5X16857   7.251   3.104   9.214 -0.7448  0.7223 -0.3894
  142DOPC   H5Y16858   7.173   2.998   9.093  0.8016 -0.5251 -1.4834
  142DOPC   C3616859   7.294   3.174   9.015 -0.2607 -0.0505  1.1668
  142DOPC   H6X16860   7.398   3.213   9.026 -0.3057 -0.1601  2.0250
  142DOPC   H6Y16861   7.284   3.130   8.913 -1.0776  1.3438  0.6222
  142DOPC   C3716862   7.194   3.289   9.022 -0.0084 -0.3867 -0.0796
  142DOPC   H7X16863   7.090   3.250   9.013  0.5730 -1.6336 -2.2141
  142DOPC   H7Y16864   7.178   3.323   9.126  2.2564 -2.5196  1.0510
  142DOPC   C3816865   7.192   3.392   8.912  0.1229  0.5124  0.1436
  142DOPC   H8X16866   7.090   3.438   8.917 -0.9210 -1.7243  0.7465
  142DOPC   H8Y16867   7.192   3.359   8.806 -0.0540  3.2675 -0.8011
  142DOPC   C3916868   7.303   3.487   8.940 -0.3015 -0.0341 -0.5592
  142DOPC   H9X16869   7.293   3.560   9.022  0.9794 -2.3453  1.8255
  142DOPC  C31016870   7.427   3.487   8.882  0.4360 -0.1172  0.0567
  142DOPC  H10X16871   7.495   3.573   8.895  1.0322 -0.7422  1.2450
  142DOPC  C31116872   7.487   3.394   8.777 -0.0303  0.2188 -0.2381
  142DOPC  H11X16873   7.440   3.294   8.777 -0.4543  0.4110 -0.9915
  142DOPC  H11Y16874   7.592   3.361   8.792  0.0168  0.9038  1.0308
  142DOPC  C31216875   7.484   3.428   8.624 -0.7900  0.4797  0.0019
  142DOPC  H12X16876   7.513   3.340   8.562 -2.6429  0.8263 -1.4408
  142DOPC  H12Y16877   7.545   3.516   8.596 -1.9604  0.7211 -1.9765
  142DOPC  C31316878   7.348   3.460   8.583  0.4672 -0.0030 -0.2099
  142DOPC  H13X16879   7.273   3.384   8.617  0.7924  0.1482  0.8944
  142DOPC  H13Y16880   7.318   3.554   8.634  0.3765 -0.7484  1.1516
  142DOPC  C31416881   7.336   3.473   8.426 -0.5589 -0.5565 -0.9647
  142DOPC  H14X16882   7.429   3.524   8.392 -1.5634  0.4848 -2.2078
  142DOPC  H14Y16883   7.341   3.368   8.391  1.5989 -0.8996  0.1577
  142DOPC  C31516884   7.210   3.564   8.401 -0.4412  0.6471 -0.6068
  142DOPC  H15X16885   7.218   3.653   8.466  1.3504 -0.5965  0.9781
  142DOPC  H15Y16886   7.119   3.519   8.445  0.5870 -0.1273  0.8306
  142DOPC  C31616887   7.195   3.588   8.251 -0.3658  0.1600 -0.1695
  142DOPC  H16X16888   7.276   3.651   8.208  0.0699  0.0671  0.5042
  142DOPC  H16Y16889   7.190   3.496   8.189 -1.7529  1.0893 -1.5078
  142DOPC  C31716890   7.071   3.661   8.211 -0.9012  0.1986  0.1014
  142DOPC  H17X16891   7.058   3.667   8.101  0.6921  3.6715  0.0082
  142DOPC  H17Y16892   6.985   3.613   8.264  0.2321 -1.0881  0.8361
  142DOPC  C31816893   7.080   3.803   8.262  0.1309 -0.0191  0.1101
  142DOPC  H18X16894   7.171   3.846   8.214 -0.7578  0.3691 -1.2659
  142DOPC  H18Y16895   6.998   3.871   8.232  0.0834 -1.2583 -2.9732
  142DOPC  H18Z16896   7.089   3.795   8.372  0.9164 -1.1578 -0.0212
  143DOPC     N16897   2.640   4.137   9.799 -0.5532 -0.4604 -0.3828
  143DOPC   C1216898   2.604   4.093   9.658 -0.5420  0.3990  0.4808
  143DOPC  H12A16899   2.622   4.182   9.599 -1.4729 -0.4154 -1.1049
  143DOPC  H12B16900   2.499   4.067   9.654 -0.0264 -1.6844 -1.2808
  143DOPC   C1316901   2.631   4.023   9.904 -1.5048  0.1006  0.2638
  143DOPC  H13A16902   2.531   3.982   9.905 -0.0388 -3.9952  1.1025
  143DOPC  H13B16903   2.697   3.948   9.864 -3.1831 -1.1049 -0.3656
  143DOPC  H13C16904   2.668   4.061   9.998  1.7546  1.6268 -1.4628
  143DOPC   C1416905   2.555   4.251   9.833 -0.0552 -0.2584  0.4558
  143DOPC  H14A16906   2.556   4.335   9.765  0.6952  1.7031  2.7386
  143DOPC  H14B16907   2.453   4.219   9.847 -0.2045  0.9800  2.5064
  143DOPC  H14C16908   2.583   4.297   9.927  1.2986 -0.0101 -0.0321
  143DOPC   C1516909   2.786   4.184   9.805 -0.2583 -0.0491 -0.4395
  143DOPC  H15A16910   2.857   4.112   9.768 -1.0932 -0.3225 -1.5457
  143DOPC  H15B16911   2.815   4.215   9.905 -2.5478  1.2338 -0.1088
  143DOPC  H15C16912   2.804   4.278   9.754  1.4731 -0.9327 -1.5714
  143DOPC   C1116913   2.678   3.987   9.585  0.4213 -0.2787 -0.0130
  143DOPC  H11A16914   2.655   3.985   9.476 -1.3935  1.8397  0.2538
  143DOPC  H11B16915   2.785   4.013   9.602 -0.1912  1.7078  1.1339
  143DOPC     P16916   2.517   3.783   9.618  0.0183  0.1389  0.2544
  143DOPC   O1316917   2.410   3.887   9.629  0.6151 -0.4995 -0.5593
  143DOPC   O1416918   2.512   3.662   9.705 -0.3086 -0.0875 -0.1007
  143DOPC   O1216919   2.656   3.859   9.632 -0.2962  0.2013  0.0645
  143DOPC   O1116920   2.513   3.740   9.468 -0.3109  0.1734  0.5569
  143DOPC    C116921   2.636   3.698   9.412  0.4207  0.7048  0.4362
  143DOPC    HA16922   2.684   3.621   9.477  0.1058 -0.7428 -0.9823
  143DOPC    HB16923   2.710   3.780   9.406  0.7205  0.4540  0.6471
  143DOPC    C216924   2.606   3.638   9.266  1.2072 -0.0607  0.0297
  143DOPC    HS16925   2.530   3.559   9.279  0.0674  0.8191 -0.9841
  143DOPC   O2116926   2.727   3.591   9.214  0.0955  0.1040  0.1451
  143DOPC   C2116927   2.761   3.470   9.254 -0.4233  0.9096  0.3258
  143DOPC   O2216928   2.699   3.403   9.337  0.2139  0.0292  0.3724
  143DOPC   C2216929   2.885   3.426   9.172  0.2641  0.1227 -0.8138
  143DOPC   H2R16930   2.912   3.319   9.187  0.1570  0.3019  0.7991
  143DOPC   H2S16931   2.977   3.480   9.202  0.1783 -0.5108  0.6500
  143DOPC    C316932   2.537   3.749   9.167  0.3066  0.6707 -0.1477
  143DOPC    HX16933   2.613   3.829   9.172 -0.4429  1.4464 -0.8600
  143DOPC    HY16934   2.440   3.770   9.218  0.0698 -2.6894  1.0595
  143DOPC   O3116935   2.532   3.695   9.037  0.0903 -0.9507  0.1434
  143DOPC   C3116936   2.438   3.607   9.007 -0.0869 -0.0116  0.9493
  143DOPC   O3216937   2.382   3.538   9.089  0.1258  0.2510 -0.5339
  143DOPC   C3216938   2.407   3.603   8.856  0.7596 -0.2869  1.0752
  143DOPC   H2X16939   2.333   3.681   8.832  0.3695 -1.1348 -0.6604
  143DOPC   H2Y16940   2.501   3.621   8.800  0.4811  0.3749  0.8189
  143DOPC   C2316941   2.864   3.455   9.023  0.0319  0.3839  0.1465
  143DOPC   H3R16942   2.960   3.439   8.969  1.0152  4.0324  0.5446
  143DOPC   H3S16943   2.851   3.565   9.013  0.4993  0.4373  0.1213
  143DOPC   C2416944   2.743   3.379   8.971  0.4527  0.4863  0.0872
  143DOPC   H4R16945   2.648   3.435   8.958 -0.7840 -1.4363  0.4285
  143DOPC   H4S16946   2.717   3.295   9.039  1.2990 -0.1049 -0.3003
  143DOPC   C2516947   2.749   3.306   8.835  0.3502 -0.2033 -0.3986
  143DOPC   H5R16948   2.747   3.380   8.752 -0.3297  0.9103  0.5829
  143DOPC   H5S16949   2.657   3.244   8.825 -0.3500  0.9028 -1.1549
  143DOPC   C2616950   2.868   3.212   8.807  0.1566  0.4400 -0.0457
  143DOPC   H6R16951   2.827   3.113   8.836  2.2486 -0.2724  0.6551
  143DOPC   H6S16952   2.951   3.251   8.870 -1.2703  1.7475  1.1303
  143DOPC   C2716953   2.908   3.214   8.659  0.0486 -0.3771 -0.3210
  143DOPC   H7R16954   2.957   3.313   8.645  0.6756 -0.7863 -1.1263
  143DOPC   H7S16955   2.826   3.198   8.586 -0.4133  1.4405 -0.2638
  143DOPC   C2816956   3.009   3.103   8.621  0.2335 -0.2217 -0.1495
  143DOPC   H8R16957   3.095   3.118   8.690  0.9389  4.0867 -1.6624
  143DOPC   H8S16958   3.060   3.122   8.525  0.0078  0.7715 -0.0836
  143DOPC   C2916959   2.959   2.956   8.627  0.2079 -0.6639 -0.3577
  143DOPC   H9R16960   2.957   2.909   8.726  2.6716 -0.0340  0.0674
  143DOPC  C21016961   2.910   2.889   8.520 -0.7631 -0.6381 -0.4233
  143DOPC  H10R16962   2.861   2.792   8.538  0.8604 -1.2509  0.9306
  143DOPC  C21116963   2.922   2.933   8.368  0.3963  0.1528  0.2094
  143DOPC  H11R16964   2.986   3.023   8.355 -0.3275  0.5389 -0.8411
  143DOPC  H11S16965   2.818   2.948   8.332  0.4570 -2.0778 -1.0441
  143DOPC  C21216966   2.990   2.824   8.283  0.1282  0.1766  0.7360
  143DOPC  H12R16967   2.962   2.844   8.177 -1.2120 -1.1910  0.7987
  143DOPC  H12S16968   2.952   2.721   8.301 -2.0441  0.2345 -2.6034
  143DOPC  C21316969   3.137   2.815   8.310 -0.9791  0.4900  0.0773
  143DOPC  H13R16970   3.138   2.807   8.421 -1.6678  0.7541  0.1112
  143DOPC  H13S16971   3.185   2.908   8.273  1.6815 -0.5937  0.6197
  143DOPC  C21416972   3.196   2.690   8.241  0.1856 -0.4257 -0.1984
  143DOPC  H14R16973   3.124   2.606   8.254  0.4875 -0.2647  3.4761
  143DOPC  H14S16974   3.295   2.669   8.287  0.1462  0.8575  0.5080
  143DOPC  C21516975   3.228   2.719   8.084 -0.6565 -0.3436 -0.1068
  143DOPC  H15R16976   3.298   2.804   8.074  1.8106 -2.1462  0.9082
  143DOPC  H15S16977   3.133   2.736   8.029 -0.0166 -1.5073 -1.6562
  143DOPC  C21616978   3.288   2.597   8.010 -0.3421 -0.0454 -0.4694
  143DOPC  H16R16979   3.210   2.520   7.998 -1.0626  0.5574  0.1909
  143DOPC  H16S16980   3.372   2.553   8.068 -0.9905 -2.6719 -1.4167
  143DOPC  C21716981   3.338   2.631   7.871 -0.3433 -0.5961 -0.7146
  143DOPC  H17R16982   3.362   2.739   7.877  0.3084 -0.8126  1.3223
  143DOPC  H17S16983   3.251   2.619   7.803 -2.0394 -0.4374  1.3095
  143DOPC  C21816984   3.465   2.558   7.832  0.3165 -0.5768  0.1434
  143DOPC  H18R16985   3.455   2.451   7.860  1.8106 -0.3544  1.7567
  143DOPC  H18S16986   3.550   2.597   7.892 -0.9458  1.8961  0.4299
  143DOPC  H18T16987   3.493   2.558   7.725 -0.8505  1.6845 -0.2106
  143DOPC   C3316988   2.339   3.469   8.816  0.5689 -0.2357  0.5427
  143DOPC   H3X16989   2.245   3.461   8.874 -0.4259  0.8201 -0.8547
  143DOPC   H3Y16990   2.415   3.391   8.837  1.7585  0.1664 -1.8999
  143DOPC   C3416991   2.312   3.441   8.660  0.3561 -0.8657  0.0179
  143DOPC   H4X16992   2.244   3.522   8.624  1.0166  0.3027  1.3076
  143DOPC   H4Y16993   2.259   3.346   8.637  0.9668 -1.3252  0.4794
  143DOPC   C3516994   2.432   3.442   8.566 -0.1939 -0.1979 -0.0102
  143DOPC   H5X16995   2.504   3.370   8.611 -1.2537 -0.4467  1.3463
  143DOPC   H5Y16996   2.488   3.538   8.559  1.5926 -1.1795  0.2780
  143DOPC   C3616997   2.391   3.407   8.420 -0.0531 -0.1635 -0.2939
  143DOPC   H6X16998   2.323   3.319   8.417 -1.2532  0.6615  0.9667
  143DOPC   H6Y16999   2.330   3.492   8.381  0.4711 -0.7676 -2.5307
  143DOPC   C3717000   2.508   3.388   8.327 -0.0505  0.1034  0.0311
  143DOPC   H7X17001   2.462   3.370   8.228  0.8128  0.2296 -0.4018
  143DOPC   H7Y17002   2.568   3.482   8.325 -0.4061  0.3247 -1.1484
  143DOPC   C3817003   2.591   3.264   8.347  0.2915 -0.0078  0.0448
  143DOPC   H8X17004   2.527   3.174   8.341 -1.3698  0.9632  1.9249
  143DOPC   H8Y17005   2.628   3.265   8.451  0.3000  0.3050  0.0418
  143DOPC   C3917006   2.709   3.251   8.254  0.9777  0.2652 -0.4130
  143DOPC   H9X17007   2.686   3.184   8.169 -1.2424  0.1657  0.2165
  143DOPC  C31017008   2.825   3.322   8.266  0.6771  0.4873  0.2415
  143DOPC  H10X17009   2.902   3.318   8.187  0.9577 -0.6177  0.5451
  143DOPC  C31117010   2.858   3.423   8.368 -0.3454  0.7831  0.3561
  143DOPC  H11X17011   2.950   3.386   8.417 -0.6182 -1.0166 -0.3847
  143DOPC  H11Y17012   2.775   3.438   8.441 -1.3469  0.6472 -0.7100
  143DOPC  C31217013   2.900   3.564   8.310  1.0348 -0.5080  0.2393
  143DOPC  H12X17014   2.948   3.621   8.393 -1.5268  4.5399 -1.3186
  143DOPC  H12Y17015   2.809   3.623   8.282  1.6870  0.7121  0.6112
  143DOPC  C31317016   2.994   3.556   8.192 -0.1296  0.6013 -0.3084
  143DOPC  H13X17017   3.067   3.483   8.235 -1.3934 -0.5716 -0.0897
  143DOPC  H13Y17018   2.940   3.526   8.099 -1.8943 -0.0055  0.8694
  143DOPC  C31417019   3.081   3.689   8.173  0.5544 -0.0859  0.7290
  143DOPC  H14X17020   3.015   3.779   8.170 -0.1233 -0.5945 -1.2487
  143DOPC  H14Y17021   3.130   3.690   8.272 -0.6266 -1.4497  1.3649
  143DOPC  C31517022   3.179   3.683   8.056 -0.0879 -1.2550  0.2484
  143DOPC  H15X17023   3.122   3.684   7.961 -0.0171  2.2938  0.0944
  143DOPC  H15Y17024   3.246   3.595   8.066 -0.1460 -1.4357 -0.9067
  143DOPC  C31617025   3.275   3.803   8.061 -0.0647 -0.5871  0.3950
  143DOPC  H16X17026   3.228   3.904   8.063  2.4974  0.7824 -1.8728
  143DOPC  H16Y17027   3.334   3.788   8.154  0.5863  2.2779  0.5285
  143DOPC  C31717028   3.375   3.807   7.947  0.1137  0.1428 -0.1279
  143DOPC  H17X17029   3.454   3.881   7.973  0.5644 -0.0202 -1.0006
  143DOPC  H17Y17030   3.428   3.710   7.935 -1.6117 -0.8750  0.1949
  143DOPC  C31817031   3.314   3.844   7.806  0.4535  0.0639 -0.3951
  143DOPC  H18X17032   3.376   3.800   7.725  0.0119  1.6432 -1.6390
  143DOPC  H18Y17033   3.211   3.803   7.800  1.1032 -1.6122 -0.7484
  143DOPC  H18Z17034   3.314   3.954   7.791 -0.9559  0.2253  0.5926
  144DOPC     N17035   3.172   3.387  10.015 -0.5687  0.5318 -0.4662
  144DOPC   C1217036   3.164   3.349   9.866  0.1757 -0.0085 -0.3071
  144DOPC  H12A17037   3.114   3.435   9.826  0.5110  0.4632  0.2641
  144DOPC  H12B17038   3.095   3.266   9.863  1.8178 -1.5833  1.8364
  144DOPC   C1317039   3.226   3.288  10.103 -0.3480  0.1516  0.3516
  144DOPC  H13A17040   3.331   3.282  10.078 -0.1787 -1.1970  1.2393
  144DOPC  H13B17041   3.209   3.310  10.207 -0.5295 -2.9380  1.0743
  144DOPC  H13C17042   3.174   3.196  10.080 -1.7905  0.0403  3.5073
  144DOPC   C1417043   3.028   3.391  10.063  0.0520  0.1507  0.2969
  144DOPC  H14A17044   2.975   3.298  10.047 -0.1770  0.6172 -1.9664
  144DOPC  H14B17045   3.028   3.412  10.169  1.0273 -0.1169  0.3596
  144DOPC  H14C17046   2.967   3.463  10.011 -2.9577 -1.6098  1.1455
  144DOPC   C1517047   3.248   3.514  10.044  0.8282  0.4128 -0.3081
  144DOPC  H15A17048   3.346   3.509   9.998  1.9246 -0.8167  2.0059
  144DOPC  H15B17049   3.258   3.527  10.150 -1.1107  0.1472 -0.0578
  144DOPC  H15C17050   3.198   3.605  10.012 -0.1742  2.2367  5.3948
  144DOPC   C1117051   3.302   3.308   9.808  0.0943  0.0510  0.3678
  144DOPC  H11A17052   3.344   3.238   9.884  2.7059  0.8484 -0.2494
  144DOPC  H11B17053   3.288   3.253   9.713  1.1756 -1.3740  0.9966
  144DOPC     P17054   3.370   3.531   9.695  0.0040  0.0804  0.0967
  144DOPC   O1317055   3.409   3.659   9.753  0.0080  0.4805 -0.1502
  144DOPC   O1417056   3.239   3.532   9.638 -0.3320  0.5341 -0.5847
  144DOPC   O1217057   3.387   3.418   9.809 -0.2439 -0.1194 -0.2855
  144DOPC   O1117058   3.486   3.487   9.595 -0.3417 -0.0696  0.3246
  144DOPC    C117059   3.622   3.460   9.633  0.2802 -0.5362 -0.5431
  144DOPC    HA17060   3.631   3.356   9.670 -2.0344 -0.5757  0.0812
  144DOPC    HB17061   3.655   3.518   9.721  1.3784  0.7688 -1.7556
  144DOPC    C217062   3.720   3.484   9.521  0.4742  0.1376  0.4999
  144DOPC    HS17063   3.693   3.580   9.472  0.3355  0.3398  0.9730
  144DOPC   O2117064   3.726   3.372   9.433  0.6806  0.3948 -0.4209
  144DOPC   C2117065   3.723   3.407   9.308  0.7381  0.1619 -0.0313
  144DOPC   O2217066   3.727   3.521   9.260  0.1757 -0.2136 -0.8364
  144DOPC   C2217067   3.741   3.268   9.232  0.4476 -0.6267 -0.1156
  144DOPC   H2R17068   3.661   3.205   9.276  0.6229 -0.3117  0.6707
  144DOPC   H2S17069   3.839   3.230   9.269  0.2664 -0.4053  0.5981
  144DOPC    C317070   3.854   3.491   9.583 -0.0802 -0.5907  0.5288
  144DOPC    HX17071   3.888   3.398   9.632  1.3852  1.3292  3.4664
  144DOPC    HY17072   3.860   3.563   9.668 -1.1789  0.6313 -0.3964
  144DOPC   O3117073   3.965   3.520   9.490  0.2488  0.1122 -0.0817
  144DOPC   C3117074   3.985   3.648   9.456 -0.3262 -0.3827 -0.6266
  144DOPC   O3217075   3.929   3.749   9.496 -0.9246 -0.0177  0.3947
  144DOPC   C3217076   4.106   3.651   9.360  0.5486 -0.2050 -0.2202
  144DOPC   H2X17077   4.194   3.641   9.428 -0.9139  0.7770  1.9254
  144DOPC   H2Y17078   4.091   3.572   9.283  2.0153  0.3028 -1.0692
  144DOPC   C2317079   3.724   3.280   9.080 -0.5380 -1.1843 -0.1378
  144DOPC   H3R17080   3.813   3.331   9.038 -0.9074 -1.9949 -2.0011
  144DOPC   H3S17081   3.637   3.346   9.060  0.5816  0.9677  1.7044
  144DOPC   C2417082   3.703   3.147   9.019  0.2327  0.2334  0.0975
  144DOPC   H4R17083   3.648   3.154   8.923 -0.3703  0.7838  0.4770
  144DOPC   H4S17084   3.638   3.079   9.078 -0.2712  0.2323 -0.4499
  144DOPC   C2517085   3.838   3.069   9.006 -0.5989 -0.6319  0.0472
  144DOPC   H5R17086   3.822   2.967   8.965 -1.3181 -0.3750 -0.3226
  144DOPC   H5S17087   3.881   3.066   9.109 -1.4137  1.1065  0.4838
  144DOPC   C2617088   3.949   3.134   8.919  0.1550 -0.2821 -0.0016
  144DOPC   H6R17089   3.988   3.228   8.965 -0.5036 -0.0999  0.1861
  144DOPC   H6S17090   3.899   3.159   8.823 -0.6637 -4.0876 -0.7357
  144DOPC   C2717091   4.072   3.046   8.905 -0.2014  0.7134  0.0274
  144DOPC   H7R17092   4.026   2.962   8.849  3.4740 -0.3805 -1.6484
  144DOPC   H7S17093   4.118   3.017   9.002 -0.2066 -1.6152 -0.6065
  144DOPC   C2817094   4.184   3.097   8.814  0.4855  0.4814 -0.0907
  144DOPC   H8R17095   4.143   3.103   8.711  1.6463  1.2504 -0.5276
  144DOPC   H8S17096   4.271   3.028   8.817  0.5942  0.6283  3.3191
  144DOPC   C2917097   4.226   3.230   8.866  0.2150  0.0561 -0.5065
  144DOPC   H9R17098   4.283   3.226   8.960 -0.4796  3.0524  0.1369
  144DOPC  C21017099   4.200   3.350   8.810 -0.4985  0.3820 -0.9101
  144DOPC  H10R17100   4.236   3.438   8.865  4.2986 -1.0821 -1.1654
  144DOPC  C21117101   4.119   3.369   8.684  0.5946  0.9722  0.2670
  144DOPC  H11R17102   4.016   3.408   8.697 -0.9504 -1.7578 -2.6207
  144DOPC  H11S17103   4.090   3.274   8.636 -0.6943  0.9048  1.1358
  144DOPC  C21217104   4.182   3.463   8.592 -0.0599  0.0294  0.0981
  144DOPC  H12R17105   4.209   3.559   8.642 -0.2165  0.4673 -0.6409
  144DOPC  H12S17106   4.105   3.487   8.516 -2.2934  0.8472  2.4575
  144DOPC  C21317107   4.317   3.412   8.527  0.4997 -0.3057 -0.0107
  144DOPC  H13R17108   4.382   3.386   8.614 -0.1547  0.4052  0.7056
  144DOPC  H13S17109   4.371   3.486   8.465  1.5624 -2.0116 -1.2188
  144DOPC  C21417110   4.312   3.287   8.435  0.2311 -0.3105 -0.6152
  144DOPC  H14R17111   4.238   3.294   8.352 -2.1801 -1.6020  1.3064
  144DOPC  H14S17112   4.259   3.209   8.494  0.7677  1.1188  1.8834
  144DOPC  C21517113   4.450   3.231   8.394  0.1404 -0.4686  0.2512
  144DOPC  H15R17114   4.433   3.142   8.330 -0.8419  0.4241 -0.7844
  144DOPC  H15S17115   4.496   3.191   8.486 -3.2134  0.3059  2.4526
  144DOPC  C21617116   4.553   3.328   8.330  0.2257  0.5149 -0.4135
  144DOPC  H16R17117   4.572   3.410   8.402  0.7379  0.3772 -0.3836
  144DOPC  H16S17118   4.503   3.360   8.236 -0.3794  1.4219  0.2078
  144DOPC  C21717119   4.693   3.267   8.299 -0.2682 -0.3560  0.3959
  144DOPC  H17R17120   4.686   3.176   8.236  2.8272 -1.6479  1.6903
  144DOPC  H17S17121   4.743   3.245   8.396  0.6064  0.7160  0.2117
  144DOPC  C21817122   4.800   3.364   8.240  0.2762  0.6411  0.1320
  144DOPC  H18R17123   4.814   3.451   8.308 -2.2584  2.3605 -1.3908
  144DOPC  H18S17124   4.764   3.402   8.143 -1.0006  2.4333  1.2545
  144DOPC  H18T17125   4.895   3.306   8.233 -0.8469 -1.2014 -0.3816
  144DOPC   C3317126   4.121   3.777   9.281  0.2519 -0.1115  0.6954
  144DOPC   H3X17127   4.222   3.765   9.235  0.5805 -3.3142  1.9846
  144DOPC   H3Y17128   4.128   3.858   9.357 -0.4320 -1.3323  2.0889
  144DOPC   C3417129   4.021   3.799   9.166  0.0252 -0.0087  0.2738
  144DOPC   H4X17130   4.049   3.895   9.117 -0.0210  0.6354  1.4874
  144DOPC   H4Y17131   3.922   3.814   9.213 -0.6016  0.3693 -1.1215
  144DOPC   C3517132   4.014   3.692   9.055  0.2380  0.2815  0.2055
  144DOPC   H5X17133   4.020   3.587   9.091  1.6477  0.3214  0.1425
  144DOPC   H5Y17134   4.112   3.702   9.004  1.2380 -1.0493  1.7783
  144DOPC   C3617135   3.899   3.719   8.963 -0.8463  0.2501 -0.4122
  144DOPC   H6X17136   3.803   3.711   9.018 -0.9939  2.1936 -0.3349
  144DOPC   H6Y17137   3.923   3.825   8.941  0.2955  0.2972  0.9358
  144DOPC   C3717138   3.906   3.624   8.845  0.4359  0.3957  0.2542
  144DOPC   H7X17139   4.007   3.619   8.799  0.7387 -1.8247  1.0444
  144DOPC   H7Y17140   3.886   3.521   8.882  0.1714  0.4820  0.3581
  144DOPC   C3817141   3.813   3.653   8.729  0.7181 -0.4793 -0.1155
  144DOPC   H8X17142   3.712   3.610   8.747  1.4217 -1.4071  1.8352
  144DOPC   H8Y17143   3.849   3.591   8.644  1.9958  0.0197  0.0494
  144DOPC   C3917144   3.784   3.802   8.709  0.2151 -0.3227 -0.6423
  144DOPC   H9X17145   3.717   3.848   8.783  1.3000 -0.9088  0.7493
  144DOPC  C31017146   3.832   3.878   8.611  0.4002 -0.0600  0.9061
  144DOPC  H10X17147   3.802   3.984   8.612  0.7075  0.0363  2.2924
  144DOPC  C31117148   3.925   3.839   8.503 -0.4252  0.5203 -0.6374
  144DOPC  H11X17149   3.988   3.752   8.530 -0.8078  0.4997  0.2272
  144DOPC  H11Y17150   3.999   3.921   8.497  1.0405 -0.7866 -1.1293
  144DOPC  C31217151   3.866   3.827   8.358 -0.9385  0.1838 -0.1982
  144DOPC  H12X17152   3.816   3.924   8.338 -0.0624  0.6461 -0.2183
  144DOPC  H12Y17153   3.791   3.746   8.354 -0.7219  0.0137 -2.6963
  144DOPC  C31317154   3.965   3.793   8.242  0.3436  1.3121  0.3431
  144DOPC  H13X17155   3.906   3.779   8.149 -0.3332 -1.0006  1.0439
  144DOPC  H13Y17156   4.048   3.866   8.232 -0.5940  2.7879  2.5780
  144DOPC  C31417157   4.039   3.657   8.267  0.8693 -0.1859  0.9579
  144DOPC  H14X17158   4.115   3.671   8.348 -0.0445 -0.4434  1.8900
  144DOPC  H14Y17159   3.961   3.589   8.307  0.8661  0.2707  1.7741
  144DOPC  C31517160   4.103   3.602   8.139  0.6857 -0.9072 -0.0505
  144DOPC  H15X17161   4.157   3.686   8.090 -3.4998  2.2828  0.2719
  144DOPC  H15Y17162   4.024   3.573   8.066 -0.0514  0.1038  0.3278
  144DOPC  C31617163   4.194   3.485   8.178  0.9657  0.4477  0.1254
  144DOPC  H16X17164   4.266   3.519   8.255  1.0864 -1.7048  1.0563
  144DOPC  H16Y17165   4.126   3.417   8.234  1.0832  1.5085  1.6022
  144DOPC  C31717166   4.275   3.412   8.073  0.0962  0.2903 -0.4737
  144DOPC  H17X17167   4.366   3.477   8.071  1.0850 -0.9630  1.2558
  144DOPC  H17Y17168   4.302   3.310   8.107 -1.1637  0.0813 -0.0766
  144DOPC  C31817169   4.211   3.398   7.935 -0.1136 -0.1048 -0.5309
  144DOPC  H18X17170   4.292   3.355   7.873  0.2426  0.1619 -0.2489
  144DOPC  H18Y17171   4.113   3.346   7.934 -0.7624  1.0855 -0.8955
  144DOPC  H18Z17172   4.198   3.502   7.899 -0.3344  0.2084  0.4270
  145DOPC     N17173   2.593   6.160  10.370  0.5112 -0.2432  0.3093
  145DOPC   C1217174   2.680   6.115  10.253  0.2692  0.1457  0.4054
  145DOPC  H12A17175   2.716   6.198  10.195  1.3518 -0.7626 -0.2565
  145DOPC  H12B17176   2.625   6.045  10.192  0.4124  1.6972 -1.6125
  145DOPC   C1317177   2.452   6.182  10.313  0.2014 -0.9518  0.1426
  145DOPC  H13A17178   2.440   6.264  10.244  1.8919 -0.2183  0.6553
  145DOPC  H13B17179   2.426   6.089  10.266  1.0889 -1.2862  0.2901
  145DOPC  H13C17180   2.376   6.209  10.385  0.0098  1.6403 -0.8923
  145DOPC   C1417181   2.622   6.296  10.425  0.0849  0.1799  0.0098
  145DOPC  H14A17182   2.620   6.371  10.347  0.8043 -1.7940 -1.9993
  145DOPC  H14B17183   2.558   6.317  10.509 -0.1829  1.3647 -0.4708
  145DOPC  H14C17184   2.719   6.290  10.472  0.8030 -1.3116 -1.5468
  145DOPC   C1517185   2.571   6.051  10.472 -0.2518  0.0864 -0.8650
  145DOPC  H15A17186   2.559   5.954  10.427  2.2334 -0.4506 -0.5434
  145DOPC  H15B17187   2.492   6.076  10.541  0.4912  0.7669 -0.2374
  145DOPC  H15C17188   2.669   6.050  10.519  0.6865 -0.8383 -2.7007
  145DOPC   C1117189   2.817   6.050  10.273  0.0366 -0.1693 -0.4924
  145DOPC  H11A17190   2.808   5.949  10.318  0.1070 -0.1472 -0.4276
  145DOPC  H11B17191   2.863   6.025  10.175 -0.1406  1.2319 -0.9564
  145DOPC     P17192   2.983   6.251  10.291  0.0909  0.0255  0.1198
  145DOPC   O1317193   3.132   6.232  10.303 -0.0355 -0.4498  0.5623
  145DOPC   O1417194   2.927   6.376  10.348  0.3400  0.6059  0.3457
  145DOPC   O1217195   2.899   6.127  10.356 -0.6604 -0.2565 -0.5999
  145DOPC   O1117196   2.938   6.246  10.135  0.4200 -0.3186  0.1001
  145DOPC    C117197   3.035   6.208  10.039  0.0322  0.1020 -0.0216
  145DOPC    HA17198   3.086   6.113  10.068  3.3533  2.0483  1.0309
  145DOPC    HB17199   3.108   6.291  10.025 -0.1732  0.5289  1.3512
  145DOPC    C217200   2.982   6.178   9.899  0.3366 -0.0074  0.0782
  145DOPC    HS17201   3.070   6.176   9.831  0.3329  1.2058  0.0139
  145DOPC   O2117202   2.889   6.278   9.844 -0.0988  0.3558 -0.7451
  145DOPC   C2117203   2.947   6.395   9.826  0.2014 -0.3990  1.5774
  145DOPC   O2217204   3.062   6.427   9.840 -0.0046  0.1230 -0.0640
  145DOPC   C2217205   2.841   6.482   9.751 -0.8138  0.3969 -0.0229
  145DOPC   H2R17206   2.770   6.524   9.826  0.7659  1.1318  1.1163
  145DOPC   H2S17207   2.794   6.413   9.678 -1.9726 -0.6798  1.6658
  145DOPC    C317208   2.905   6.041   9.892 -0.6657  0.6698  0.0885
  145DOPC    HX17209   2.815   6.042   9.956 -0.5942  0.7835  0.1871
  145DOPC    HY17210   2.973   5.962   9.932 -0.3866 -0.3688 -2.2680
  145DOPC   O3117211   2.871   6.010   9.755  0.0252 -0.3553  0.3952
  145DOPC   C3117212   2.746   6.044   9.715  0.0980  0.1679  0.4586
  145DOPC   O3217213   2.661   6.105   9.781 -0.6565  0.1787  0.1508
  145DOPC   C3217214   2.732   5.989   9.568 -0.0722  0.1960 -0.4453
  145DOPC   H2X17215   2.820   6.016   9.507 -1.1923  0.1707 -2.1396
  145DOPC   H2Y17216   2.729   5.878   9.573 -1.4319  0.2573  0.6837
  145DOPC   C2317217   2.899   6.602   9.678 -0.2784 -0.4819  0.1573
  145DOPC   H3R17218   2.965   6.663   9.744 -0.6606  0.0726  0.0344
  145DOPC   H3S17219   2.810   6.661   9.650 -0.4378 -0.0338  1.4996
  145DOPC   C2417220   2.974   6.567   9.550 -0.7181  0.3580 -0.2704
  145DOPC   H4R17221   2.899   6.515   9.487 -2.1443 -0.9693  2.3509
  145DOPC   H4S17222   3.055   6.494   9.571  0.7857  2.0323 -0.0394
  145DOPC   C2517223   3.035   6.676   9.467 -0.2077  0.9104 -0.6414
  145DOPC   H5R17224   3.102   6.742   9.527 -0.1452  0.1377  0.1575
  145DOPC   H5S17225   2.947   6.739   9.439 -0.7011  0.7685  0.5021
  145DOPC   C2617226   3.109   6.625   9.349  0.3942  0.0433  0.5590
  145DOPC   H6R17227   3.067   6.532   9.306  0.4427 -1.1553  2.9482
  145DOPC   H6S17228   3.212   6.593   9.377 -0.2974 -0.9099  2.1069
  145DOPC   C2717229   3.128   6.736   9.244  0.5319 -0.1914  0.6541
  145DOPC   H7R17230   3.203   6.710   9.166  1.4722 -0.1452  1.5160
  145DOPC   H7S17231   3.165   6.831   9.287  0.3544  0.4096 -0.4916
  145DOPC   C2817232   3.001   6.765   9.159 -0.6955 -0.0341  0.4807
  145DOPC   H8R17233   2.917   6.791   9.227 -1.3007 -0.1635 -0.2011
  145DOPC   H8S17234   2.975   6.667   9.113  0.2213  1.5471 -3.9411
  145DOPC   C2917235   3.016   6.884   9.065 -0.4845  0.2799  0.2001
  145DOPC   H9R17236   3.008   6.987   9.101 -0.2242 -0.1782  1.6173
  145DOPC  C21017237   3.012   6.877   8.930  0.1751  0.4694  0.0446
  145DOPC  H10R17238   3.046   6.976   8.894  2.9256  0.3382  1.9931
  145DOPC  C21117239   2.999   6.756   8.841 -0.0655  0.8226  0.5630
  145DOPC  H11R17240   2.896   6.742   8.801  0.1701 -1.7169  0.6773
  145DOPC  H11S17241   3.008   6.658   8.893 -0.0000 -0.6150 -1.9911
  145DOPC  C21217242   3.085   6.762   8.713 -0.6292  0.1304 -0.5419
  145DOPC  H12R17243   3.099   6.663   8.665 -1.1320 -0.6504  0.8575
  145DOPC  H12S17244   3.189   6.792   8.738  0.3820 -2.6673 -1.1081
  145DOPC  C21317245   3.028   6.858   8.607 -0.3095 -0.2230  0.3084
  145DOPC  H13R17246   2.990   6.949   8.657 -0.5754  0.5067 -1.1565
  145DOPC  H13S17247   2.939   6.817   8.556  0.4180 -0.2298 -1.0053
  145DOPC  C21417248   3.126   6.875   8.485 -0.2565  0.2164  0.4590
  145DOPC  H14R17249   3.221   6.913   8.528 -0.9359  0.7252  1.5566
  145DOPC  H14S17250   3.089   6.954   8.416 -1.1154 -2.4252 -2.3151
  145DOPC  C21517251   3.149   6.751   8.401 -0.5341 -0.1852  0.7466
  145DOPC  H15R17252   3.054   6.715   8.356  0.4983 -1.1941 -0.6989
  145DOPC  H15S17253   3.204   6.670   8.454  0.5156  0.3553  0.5173
  145DOPC  C21617254   3.247   6.772   8.286 -0.1956 -1.0362  0.4151
  145DOPC  H16R17255   3.341   6.802   8.336 -0.9565 -0.1448  1.3500
  145DOPC  H16S17256   3.214   6.861   8.227 -0.1679 -0.7242  0.8699
  145DOPC  C21717257   3.260   6.655   8.194 -0.5472 -0.1990  0.2618
  145DOPC  H17R17258   3.160   6.626   8.156  0.3646 -2.2016 -0.7690
  145DOPC  H17S17259   3.302   6.564   8.240 -2.4873 -3.0819 -3.1349
  145DOPC  C21817260   3.355   6.687   8.080 -0.1653 -0.7085 -0.1675
  145DOPC  H18R17261   3.360   6.607   8.003 -0.2727  0.7380 -1.7361
  145DOPC  H18S17262   3.458   6.716   8.109 -0.2465  1.8351 -2.0733
  145DOPC  H18T17263   3.324   6.786   8.041 -3.6243 -0.6706  2.1722
  145DOPC   C3317264   2.606   6.028   9.496 -0.2802  0.6614 -0.6437
  145DOPC   H3X17265   2.514   5.999   9.551  0.4775 -1.3436 -0.3441
  145DOPC   H3Y17266   2.606   5.983   9.394  2.3407 -2.3036  0.5144
  145DOPC   C3417267   2.596   6.178   9.487 -0.3082 -0.2426  0.5281
  145DOPC   H4X17268   2.564   6.219   9.585  1.8704 -0.5445  1.4283
  145DOPC   H4Y17269   2.510   6.198   9.419 -0.8357  2.3446  1.8600
  145DOPC   C3517270   2.713   6.248   9.423 -0.1986 -0.4018  0.4338
  145DOPC   H5X17271   2.805   6.233   9.482 -0.4240  0.9958  1.1843
  145DOPC   H5Y17272   2.689   6.357   9.428  0.2149 -0.3642  2.4854
  145DOPC   C3617273   2.731   6.211   9.279 -0.5424  0.9113 -0.7412
  145DOPC   H6X17274   2.779   6.112   9.263  0.4301  1.4932 -1.5689
  145DOPC   H6Y17275   2.628   6.204   9.238  0.1800 -1.4842 -2.3709
  145DOPC   C3717276   2.825   6.308   9.198  0.4084 -0.2708 -0.3637
  145DOPC   H7X17277   2.793   6.415   9.202 -0.0646 -0.4542  1.6073
  145DOPC   H7Y17278   2.927   6.316   9.242 -0.5658 -3.3902  2.9191
  145DOPC   C3817279   2.844   6.266   9.047  0.2417 -0.2757 -0.0679
  145DOPC   H8X17280   2.740   6.233   9.028  0.8853 -2.3653 -0.3032
  145DOPC   H8Y17281   2.912   6.177   9.050  2.0996  1.0331 -1.3249
  145DOPC   C3917282   2.894   6.361   8.940  0.1796 -0.0729 -0.0276
  145DOPC   H9X17283   2.823   6.442   8.920  1.0972  0.5166 -1.0112
  145DOPC  C31017284   3.008   6.358   8.870  0.5830 -0.4684 -0.6923
  145DOPC  H10X17285   3.009   6.416   8.776  0.1781 -0.2792 -0.5779
  145DOPC  C31117286   3.109   6.244   8.881  0.6337 -0.0169  0.1505
  145DOPC  H11X17287   3.134   6.238   8.989 -0.6217  2.1163  0.6046
  145DOPC  H11Y17288   3.197   6.269   8.817 -0.3017  0.4581 -0.9774
  145DOPC  C31217289   3.058   6.099   8.837 -0.0251 -0.7848  0.3094
  145DOPC  H12X17290   3.059   6.105   8.726 -1.2306  1.5178  0.3804
  145DOPC  H12Y17291   2.952   6.092   8.867 -0.0629 -0.2692  0.3017
  145DOPC  C31317292   3.140   5.978   8.891  0.3560  0.0643  0.2897
  145DOPC  H13X17293   3.249   5.994   8.880  0.2248  0.9048  0.1276
  145DOPC  H13Y17294   3.111   5.944   8.992  3.4183 -0.8237  0.9675
  145DOPC  C31417295   3.104   5.854   8.803  0.0106  0.5677 -0.1278
  145DOPC  H14X17296   3.127   5.762   8.862 -1.5944 -0.9663 -1.7737
  145DOPC  H14Y17297   2.994   5.849   8.786  0.3277 -1.5876 -2.1285
  145DOPC  C31517298   3.174   5.865   8.667  0.3908  0.5440 -0.5142
  145DOPC  H15X17299   3.275   5.903   8.691 -0.7180  1.1685  4.1010
  145DOPC  H15Y17300   3.135   5.947   8.603  0.2280 -0.9711 -2.4863
  145DOPC  C31617301   3.189   5.740   8.584  0.3208  0.2904 -0.4644
  145DOPC  H16X17302   3.245   5.752   8.489 -0.1693 -0.6728 -0.8901
  145DOPC  H16Y17303   3.254   5.669   8.639 -1.2785 -0.2332  0.8252
  145DOPC  C31717304   3.052   5.670   8.550  0.0918  0.3178  0.2670
  145DOPC  H17X17305   2.980   5.755   8.538  1.9935  1.7472 -1.7176
  145DOPC  H17Y17306   3.069   5.625   8.450 -0.6371  1.7624 -0.5447
  145DOPC  C31817307   3.015   5.565   8.651 -0.2574  0.5380 -0.9304
  145DOPC  H18X17308   2.989   5.596   8.755 -0.9895 -0.6861 -0.7238
  145DOPC  H18Y17309   2.930   5.498   8.626  0.2688  0.7199 -3.3775
  145DOPC  H18Z17310   3.095   5.489   8.661 -1.0024  0.0158  2.8384
  146DOPC     N17311   7.696   4.117   9.602 -0.4574 -0.0676 -0.1441
  146DOPC   C1217312   7.772   4.096   9.476  0.4671 -0.2210  0.0308
  146DOPC  H12A17313   7.872   4.064   9.502  1.2084  1.3653 -0.7507
  146DOPC  H12B17314   7.781   4.191   9.426 -0.4860 -0.7400 -1.2112
  146DOPC   C1317315   7.756   4.228   9.684  0.4279  0.1510 -0.0993
  146DOPC  H13A17316   7.862   4.215   9.700  0.1486 -1.5113  0.5745
  146DOPC  H13B17317   7.745   4.324   9.634 -1.5838  0.3131  0.5845
  146DOPC  H13C17318   7.714   4.245   9.781  0.2642  1.6298 -0.3916
  146DOPC   C1417319   7.695   3.992   9.685 -0.0685  0.1057  0.0306
  146DOPC  H14A17320   7.677   3.898   9.636  0.0861 -2.4451  4.3848
  146DOPC  H14B17321   7.792   3.968   9.725  0.3260  1.5163 -0.0081
  146DOPC  H14C17322   7.629   3.994   9.770  0.2036  1.6357  0.2351
  146DOPC   C1517323   7.551   4.158   9.561 -0.8417 -0.3857 -0.2894
  146DOPC  H15A17324   7.512   4.217   9.643  0.1176 -1.9647  1.3897
  146DOPC  H15B17325   7.484   4.074   9.548  0.5251 -1.3793 -1.2360
  146DOPC  H15C17326   7.545   4.214   9.469 -0.8073  0.7957  0.4130
  146DOPC   C1117327   7.718   3.991   9.372 -0.5025 -0.3105 -0.3448
  146DOPC  H11A17328   7.612   4.015   9.352 -1.4897 -3.1287  0.8832
  146DOPC  H11B17329   7.781   3.999   9.281 -0.0687 -0.1933 -0.0372
  146DOPC     P17330   7.854   3.768   9.441  0.2683  0.4561 -0.2187
  146DOPC   O1317331   7.812   3.632   9.468 -0.8159 -0.0164  0.6150
  146DOPC   O1417332   7.943   3.820   9.546 -0.1010 -0.3172  0.0151
  146DOPC   O1217333   7.728   3.863   9.429 -0.1191 -0.1160  0.0808
  146DOPC   O1117334   7.920   3.786   9.306 -0.0460 -0.0093  0.1573
  146DOPC    C117335   7.841   3.748   9.189 -0.3835  0.2679  0.1622
  146DOPC    HA17336   7.861   3.808   9.097 -1.6250 -0.2841 -0.4948
  146DOPC    HB17337   7.732   3.755   9.209 -0.9715  2.0145 -2.9864
  146DOPC    C217338   7.871   3.609   9.144 -0.2236 -0.3344 -0.7734
  146DOPC    HS17339   7.863   3.546   9.235 -0.0865 -1.8711 -1.7817
  146DOPC   O2117340   8.007   3.609   9.090 -0.4698 -0.7918  0.3249
  146DOPC   C2117341   8.058   3.486   9.075  0.6235 -1.5856  0.2480
  146DOPC   O2217342   8.011   3.383   9.119 -0.1812 -0.0603  0.4961
  146DOPC   C2217343   8.185   3.505   8.991 -0.0749  0.7052  0.3319
  146DOPC   H2R17344   8.224   3.596   9.042  0.5143 -0.4381  2.0136
  146DOPC   H2S17345   8.148   3.526   8.888  2.0016 -1.0246 -0.8577
  146DOPC    C317346   7.763   3.560   9.041 -0.0151  0.0720  0.0019
  146DOPC    HX17347   7.672   3.554   9.105 -0.4618  0.8081 -0.5498
  146DOPC    HY17348   7.788   3.459   9.004 -3.3844 -1.7829  2.2911
  146DOPC   O3117349   7.725   3.654   8.939 -0.1147  0.4434  0.3801
  146DOPC   C3117350   7.787   3.641   8.821 -0.1729 -0.8662 -0.3231
  146DOPC   O3217351   7.871   3.562   8.790  0.4213  0.1630  0.0058
  146DOPC   C3217352   7.733   3.746   8.723  0.0746 -0.0562 -0.6444
  146DOPC   H2X17353   7.624   3.737   8.709  0.2571 -0.9971 -1.6225
  146DOPC   H2Y17354   7.766   3.845   8.761  0.4779 -0.7792  0.9753
  146DOPC   C2317355   8.287   3.385   8.990  0.4566 -0.5241  0.4782
  146DOPC   H3R17356   8.331   3.372   9.091  1.4661  0.9265  0.2633
  146DOPC   H3S17357   8.364   3.432   8.925  0.2770  0.2515  0.8209
  146DOPC   C2417358   8.232   3.255   8.922  0.0898 -0.3709 -0.3778
  146DOPC   H4R17359   8.183   3.268   8.823 -1.8468 -1.8536  0.3338
  146DOPC   H4S17360   8.145   3.228   8.985 -0.5648  1.1810 -0.5608
  146DOPC   C2517361   8.350   3.156   8.919  0.1138 -0.4869 -0.1351
  146DOPC   H5R17362   8.400   3.163   9.018 -0.7225  1.9980  0.1955
  146DOPC   H5S17363   8.415   3.192   8.837  1.2705 -0.7427  0.6437
  146DOPC   C2617364   8.313   3.010   8.891  0.0766  0.8133  0.2536
  146DOPC   H6R17365   8.234   2.996   8.968  0.3947  1.3957  0.6955
  146DOPC   H6S17366   8.404   2.946   8.904 -0.9445 -1.1351 -1.5280
  146DOPC   C2717367   8.262   2.983   8.744  0.5991 -0.3224  0.0897
  146DOPC   H7R17368   8.339   3.033   8.680  0.1419  1.4136  0.8399
  146DOPC   H7S17369   8.165   3.031   8.719 -0.5162 -2.1028  0.8331
  146DOPC   C2817370   8.263   2.833   8.698  0.0542  0.0772  0.1589
  146DOPC   H8R17371   8.364   2.793   8.721  0.1157 -0.2209 -0.6034
  146DOPC   H8S17372   8.262   2.830   8.587  2.2278 -1.0797  0.1130
  146DOPC   C2917373   8.147   2.765   8.770  0.5062 -0.0607  0.1746
  146DOPC   H9R17374   8.167   2.768   8.878 -1.3835 -2.3654  0.6525
  146DOPC  C21017375   8.024   2.721   8.719 -0.1835 -0.4030 -0.0786
  146DOPC  H10R17376   7.960   2.684   8.800 -2.1766  2.1423 -0.3475
  146DOPC  C21117377   7.967   2.728   8.578 -0.4817 -0.0806 -0.7192
  146DOPC  H11R17378   8.020   2.812   8.528 -0.1537 -0.9567 -1.8713
  146DOPC  H11S17379   7.857   2.745   8.584 -0.0264  3.1952  1.4477
  146DOPC  C21217380   7.990   2.599   8.506 -0.0614  0.1896  0.6487
  146DOPC  H12R17381   7.919   2.609   8.422 -0.5620  0.7550  1.1376
  146DOPC  H12S17382   7.961   2.509   8.565  3.3400 -1.1458  0.5381
  146DOPC  C21317383   8.128   2.594   8.441 -0.0389  0.2795  0.2114
  146DOPC  H13R17384   8.218   2.588   8.505  1.2106 -0.8397 -1.5541
  146DOPC  H13S17385   8.137   2.686   8.379  0.6116  0.3181  0.3575
  146DOPC  C21417386   8.133   2.475   8.338  0.0175  0.4023  0.0571
  146DOPC  H14R17387   8.212   2.501   8.265 -1.5849  0.4590 -1.7235
  146DOPC  H14S17388   8.040   2.468   8.278 -0.1580 -0.3004  0.4020
  146DOPC  C21517389   8.166   2.343   8.401 -0.1385 -0.0414 -0.4067
  146DOPC  H15R17390   8.101   2.329   8.490 -1.0037  0.9483 -0.8743
  146DOPC  H15S17391   8.271   2.341   8.439 -1.2696 -2.0494  3.1178
  146DOPC  C21617392   8.130   2.231   8.308 -0.4439  1.0221  0.2198
  146DOPC  H16R17393   8.192   2.241   8.216 -0.4387  1.0597  0.2284
  146DOPC  H16S17394   8.020   2.227   8.290 -0.2151 -1.5748 -1.1635
  146DOPC  C21717395   8.174   2.103   8.379 -0.2087  0.6381 -0.2903
  146DOPC  H17R17396   8.129   2.080   8.478  2.8336  2.6383  1.7480
  146DOPC  H17S17397   8.279   2.126   8.409  0.1969 -1.5508  0.2118
  146DOPC  C21817398   8.176   1.986   8.280  0.4820  0.0498  0.0991
  146DOPC  H18R17399   8.201   1.883   8.315 -1.2286 -0.1440  0.9037
  146DOPC  H18S17400   8.241   2.009   8.193 -1.3346 -0.5597 -1.4880
  146DOPC  H18T17401   8.073   1.978   8.239  0.2177  2.9292 -0.0093
  146DOPC   C3317402   7.786   3.730   8.583  0.1296  0.0958 -0.3723
  146DOPC   H3X17403   7.765   3.626   8.551  0.3294 -0.6005  1.6198
  146DOPC   H3Y17404   7.897   3.736   8.587  0.0346  3.3521  2.7506
  146DOPC   C3417405   7.734   3.836   8.484  0.8640  0.3947 -0.5609
  146DOPC   H4X17406   7.805   3.837   8.398  0.1231  1.3795 -1.1819
  146DOPC   H4Y17407   7.744   3.933   8.536 -0.8003  0.6303 -0.6413
  146DOPC   C3517408   7.590   3.815   8.438 -0.1569  0.6177 -0.1197
  146DOPC   H5X17409   7.512   3.817   8.517 -0.4618  2.1550 -0.4229
  146DOPC   H5Y17410   7.579   3.714   8.393 -2.4446  0.5213  0.5337
  146DOPC   C3617411   7.567   3.922   8.333  0.2036  0.0766 -0.3623
  146DOPC   H6X17412   7.463   3.959   8.343  0.9925  2.1246  0.8450
  146DOPC   H6Y17413   7.621   4.016   8.355  0.4846 -0.2084  0.1908
  146DOPC   C3717414   7.597   3.878   8.189  0.2635  0.0222  0.3798
  146DOPC   H7X17415   7.706   3.855   8.184  0.5030  1.2541 -0.5381
  146DOPC   H7Y17416   7.547   3.781   8.171 -0.3761  0.3931  0.1358
  146DOPC   C3817417   7.552   3.978   8.083 -0.5157 -0.4065 -0.4879
  146DOPC   H8X17418   7.607   3.957   7.989  0.9057 -2.4672  0.7025
  146DOPC   H8Y17419   7.588   4.071   8.132 -1.9424  0.4676 -1.0749
  146DOPC   C3917420   7.402   3.976   8.058  0.4819  0.1428 -0.0739
  146DOPC   H9X17421   7.344   3.927   8.138  1.0532 -0.1606  0.1638
  146DOPC  C31017422   7.337   4.019   7.947 -0.1169  0.6988  0.4982
  146DOPC  H10X17423   7.227   4.010   7.946 -0.2711  2.1076 -1.4123
  146DOPC  C31117424   7.395   4.083   7.822 -0.2931  0.1909 -0.3040
  146DOPC  H11X17425   7.504   4.097   7.838 -0.4939 -0.4802  1.8689
  146DOPC  H11Y17426   7.354   4.185   7.801  1.1012  0.5138 -1.6779
  146DOPC  C31217427   7.371   3.998   7.700  0.4027  0.1172 -0.4703
  146DOPC  H12X17428   7.421   3.900   7.711  1.8488  0.7035 -1.5026
  146DOPC  H12Y17429   7.427   4.049   7.619 -0.7974 -0.7178 -1.8782
  146DOPC  C31317430   7.225   4.003   7.651 -0.2079  0.5479 -0.7396
  146DOPC  H13X17431   7.159   3.938   7.712 -2.1444  0.3165 -2.9491
  146DOPC  H13Y17432   7.192   4.109   7.661 -1.1567  0.1656  0.3505
  146DOPC  C31417433   7.206   3.957   7.506 -0.4808  0.0920 -0.4778
  146DOPC  H14X17434   7.271   4.007   7.431  3.1913 -2.6776  0.5368
  146DOPC  H14Y17435   7.243   3.852   7.501 -2.4106 -0.5829 -2.4259
  146DOPC  C31517436   7.056   3.958   7.456  0.2654  0.5918  0.1009
  146DOPC  H15X17437   6.996   3.905   7.533  1.3660  2.6946  2.5606
  146DOPC  H15Y17438   7.064   3.897   7.363  2.4099  1.7055 -0.5277
  146DOPC  C31617439   7.002   4.096   7.431 -0.3686 -0.2908  0.3446
  146DOPC  H16X17440   6.999   4.150   7.528  3.6081  0.2707  0.3267
  146DOPC  H16Y17441   7.075   4.149   7.366 -1.3699 -0.6565 -1.1138
  146DOPC  C31717442   6.858   4.097   7.371 -0.5517 -0.2976 -0.9260
  146DOPC  H17X17443   6.837   4.202   7.343  0.5428  0.5250  1.1682
  146DOPC  H17Y17444   6.846   4.039   7.277 -0.5421 -2.1201  0.1412
  146DOPC  C31817445   6.752   4.050   7.470  0.0143  0.3444 -0.5093
  146DOPC  H18X17446   6.647   4.081   7.451 -1.6704 -2.4742  2.9040
  146DOPC  H18Y17447   6.746   3.940   7.484 -0.3952  0.4592  0.2831
  146DOPC  H18Z17448   6.771   4.090   7.572 -0.8978  0.8914 -0.5344
  147DOPC     N17449   2.450   2.118   9.693 -0.1901 -0.1521 -0.5337
  147DOPC   C1217450   2.447   2.139   9.538  0.2401  1.1325  0.3795
  147DOPC  H12A17451   2.550   2.141   9.506  1.2126 -3.2503  2.4997
  147DOPC  H12B17452   2.398   2.231   9.509 -3.4561 -0.5710  0.6419
  147DOPC   C1317453   2.536   1.995   9.728 -0.4085  0.3574 -0.9666
  147DOPC  H13A17454   2.545   1.989   9.835 -2.6541 -1.6708 -0.8351
  147DOPC  H13B17455   2.494   1.900   9.699 -2.4659  1.0628 -0.4692
  147DOPC  H13C17456   2.636   1.999   9.687  0.3610 -2.6327  0.3627
  147DOPC   C1417457   2.314   2.098   9.747  0.0052  0.1851 -0.0656
  147DOPC  H14A17458   2.269   2.004   9.717 -2.4145  0.4784  2.2656
  147DOPC  H14B17459   2.315   2.101   9.854  0.2537 -1.0874 -0.0190
  147DOPC  H14C17460   2.250   2.177   9.709  0.6746  1.2376  0.9300
  147DOPC   C1517461   2.505   2.233   9.764 -0.5080 -1.0224 -0.1993
  147DOPC  H15A17462   2.459   2.329   9.745  1.2283  0.1521  1.1915
  147DOPC  H15B17463   2.610   2.237   9.739 -0.7071 -0.5899 -0.9785
  147DOPC  H15C17464   2.487   2.219   9.870  0.1748  1.2135  0.2553
  147DOPC   C1117465   2.370   2.028   9.459 -0.0005  0.5631 -0.2853
  147DOPC  H11A17466   2.394   2.011   9.352 -1.0094 -0.3684 -0.3731
  147DOPC  H11B17467   2.388   1.931   9.508 -2.9886 -0.3754 -0.8503
  147DOPC     P17468   2.129   1.929   9.438 -0.1219  0.0507  0.4826
  147DOPC   O1317469   2.001   1.983   9.386 -0.0074  0.0044  0.1479
  147DOPC   O1417470   2.110   1.833   9.548  0.0302 -0.2336 -0.0780
  147DOPC   O1217471   2.226   2.053   9.469  0.5802  0.0319  0.2007
  147DOPC   O1117472   2.206   1.853   9.322  0.0386 -0.2407 -0.4376
  147DOPC    C117473   2.191   1.909   9.192 -0.7021  0.1333 -0.7431
  147DOPC    HA17474   2.267   1.990   9.184 -1.1203  0.5353 -0.7449
  147DOPC    HB17475   2.090   1.941   9.159 -2.3829 -1.0584  2.7035
  147DOPC    C217476   2.240   1.807   9.080 -0.6123 -0.1879  0.2777
  147DOPC    HS17477   2.334   1.766   9.123 -0.2531  0.7226  0.3901
  147DOPC   O2117478   2.262   1.874   8.956  0.4701 -0.1183 -0.1427
  147DOPC   C2117479   2.343   1.817   8.875  0.4892  0.2866  0.1584
  147DOPC   O2217480   2.421   1.731   8.911 -0.5494  0.2613  0.1998
  147DOPC   C2217481   2.343   1.900   8.743  0.1495 -0.1660  0.9383
  147DOPC   H2R17482   2.242   1.886   8.698  0.8134  1.3749 -1.1925
  147DOPC   H2S17483   2.417   1.845   8.681 -1.5742  0.1090 -1.5394
  147DOPC    C317484   2.134   1.698   9.060 -0.2733  0.2669 -0.5034
  147DOPC    HX17485   2.040   1.752   9.038 -0.6642 -0.1715  0.0478
  147DOPC    HY17486   2.108   1.645   9.155 -0.1359  2.6980  0.9758
  147DOPC   O3117487   2.167   1.614   8.949 -0.3956  0.1502  0.6674
  147DOPC   C3117488   2.245   1.512   8.964  0.2644 -0.0051 -0.3159
  147DOPC   O3217489   2.308   1.482   9.061 -0.1804  0.1195  0.3716
  147DOPC   C3217490   2.249   1.435   8.829 -0.0803  0.3337 -0.0086
  147DOPC   H2X17491   2.148   1.397   8.803  0.6236 -0.4515 -1.7615
  147DOPC   H2Y17492   2.278   1.509   8.753  0.4386  0.9564  0.7786
  147DOPC   C2317493   2.379   2.048   8.754 -0.6153  0.0359  0.4355
  147DOPC   H3R17494   2.467   2.062   8.821 -0.0766  0.1605 -0.2829
  147DOPC   H3S17495   2.307   2.108   8.814 -1.3669 -0.7457  0.3254
  147DOPC   C2417496   2.404   2.124   8.622  0.3514  0.6402 -0.0464
  147DOPC   H4R17497   2.319   2.099   8.555  0.3054  0.7523 -0.0323
  147DOPC   H4S17498   2.496   2.096   8.566 -0.3907 -0.2795 -0.8411
  147DOPC   C2517499   2.401   2.274   8.654 -0.0281  0.4881 -0.2138
  147DOPC   H5R17500   2.506   2.311   8.663 -0.4175  1.4521  0.5261
  147DOPC   H5S17501   2.342   2.292   8.746  0.1349 -0.3966  0.0736
  147DOPC   C2617502   2.339   2.377   8.549 -0.4640 -0.2964 -0.9877
  147DOPC   H6R17503   2.349   2.482   8.584 -1.4270 -0.3672 -0.4834
  147DOPC   H6S17504   2.230   2.358   8.547 -0.9691  2.1773 -0.2949
  147DOPC   C2717505   2.394   2.361   8.402  0.0991 -0.3159 -0.2446
  147DOPC   H7R17506   2.354   2.265   8.363 -1.5035  0.8564 -1.6639
  147DOPC   H7S17507   2.504   2.366   8.408  0.0475  0.0745  0.6169
  147DOPC   C2817508   2.349   2.475   8.308 -0.1003  0.3268  0.5400
  147DOPC   H8R17509   2.243   2.454   8.282 -0.1818  0.5078  0.7218
  147DOPC   H8S17510   2.406   2.453   8.215  0.1064 -0.7517  0.9044
  147DOPC   C2917511   2.370   2.617   8.348  0.4165  0.0560 -0.4543
  147DOPC   H9R17512   2.290   2.649   8.416  0.1187 -2.7486  0.6344
  147DOPC  C21017513   2.466   2.705   8.304  0.1576  0.0531  0.2714
  147DOPC  H10R17514   2.472   2.806   8.346  0.8719  0.1060  0.0558
  147DOPC  C21117515   2.591   2.661   8.235 -0.1928  0.7212 -0.5700
  147DOPC  H11R17516   2.587   2.550   8.226  2.8040  0.5699 -1.0961
  147DOPC  H11S17517   2.680   2.672   8.300  0.0751  1.3135 -1.0329
  147DOPC  C21217518   2.610   2.732   8.103 -0.2672 -0.6217 -0.6917
  147DOPC  H12R17519   2.614   2.839   8.132 -3.1887 -0.9120  1.2474
  147DOPC  H12S17520   2.515   2.719   8.045 -0.5539 -3.1015  0.2038
  147DOPC  C21317521   2.720   2.679   8.014 -0.4665  0.3465  0.0093
  147DOPC  H13R17522   2.720   2.568   8.001 -0.1019  0.4108 -0.5883
  147DOPC  H13S17523   2.812   2.712   8.067  1.3066 -3.8606 -0.0482
  147DOPC  C21417524   2.704   2.746   7.880  0.1854  0.8437  0.1224
  147DOPC  H14R17525   2.698   2.857   7.888  2.3621  1.1209 -1.3796
  147DOPC  H14S17526   2.601   2.720   7.849  0.7008 -1.0272 -0.1307
  147DOPC  C21517527   2.810   2.706   7.777  0.0323 -0.0514  0.5111
  147DOPC  H15R17528   2.913   2.723   7.817 -0.3223  1.1552  0.9641
  147DOPC  H15S17529   2.808   2.778   7.692 -1.0325 -0.5958  0.0632
  147DOPC  C21617530   2.797   2.556   7.722  0.5116 -0.1650  0.4952
  147DOPC  H16R17531   2.836   2.489   7.802 -0.0670  0.7249  1.5631
  147DOPC  H16S17532   2.859   2.557   7.630  0.0299  0.9372  0.1615
  147DOPC  C21717533   2.659   2.516   7.669 -0.0384  0.4272 -1.2040
  147DOPC  H17R17534   2.596   2.503   7.759  2.2508  1.2845  0.6043
  147DOPC  H17S17535   2.650   2.411   7.634 -2.0264  0.2652 -0.3404
  147DOPC  C21817536   2.605   2.600   7.557 -0.1621 -1.2055  0.2260
  147DOPC  H18R17537   2.503   2.561   7.536 -1.7774  2.2895  0.8589
  147DOPC  H18S17538   2.668   2.592   7.466  1.4853 -0.4556  1.2429
  147DOPC  H18T17539   2.590   2.708   7.580 -0.3452 -0.3251 -3.5089
  147DOPC   C3317540   2.346   1.311   8.828 -0.3676 -0.1966  0.1513
  147DOPC   H3X17541   2.332   1.254   8.923  2.0499 -1.0976  0.0462
  147DOPC   H3Y17542   2.453   1.337   8.819  0.1097 -1.3385  1.9833
  147DOPC   C3417543   2.304   1.213   8.715  0.3782 -0.2865 -0.1717
  147DOPC   H4X17544   2.301   1.263   8.616  1.0843 -0.3986 -0.2549
  147DOPC   H4Y17545   2.204   1.169   8.733 -1.1363  2.1237 -2.0725
  147DOPC   C3517546   2.399   1.099   8.705 -0.5070  0.0363  0.3216
  147DOPC   H5X17547   2.386   1.018   8.780  0.3954 -0.2197  0.2157
  147DOPC   H5Y17548   2.499   1.147   8.708 -1.1528  1.4016  0.4987
  147DOPC   C3617549   2.380   1.025   8.571 -0.0122  0.3864  0.1360
  147DOPC   H6X17550   2.273   0.998   8.571  0.0925 -0.1024  1.4934
  147DOPC   H6Y17551   2.392   1.092   8.483  0.3105  0.3400  0.1420
  147DOPC   C3717552   2.475   0.904   8.549 -0.3448 -0.4224  0.6646
  147DOPC   H7X17553   2.577   0.943   8.570 -0.5725  0.5361  0.0547
  147DOPC   H7Y17554   2.463   0.830   8.630  2.5522  1.0833  2.6306
  147DOPC   C3817555   2.453   0.849   8.404 -0.5975  0.5120  0.0168
  147DOPC   H8X17556   2.350   0.807   8.397 -0.3122 -0.0644 -0.9494
  147DOPC   H8Y17557   2.521   0.761   8.401  0.7643  1.5257 -0.0460
  147DOPC   C3917558   2.489   0.943   8.290 -0.3249  0.2238 -0.1747
  147DOPC   H9X17559   2.593   0.979   8.285 -0.0121 -0.3746  1.4701
  147DOPC  C31017560   2.398   0.992   8.209 -0.2348 -0.3543 -0.6126
  147DOPC  H10X17561   2.431   1.066   8.135  2.0788 -1.0496 -0.3794
  147DOPC  C31117562   2.247   0.959   8.208 -0.1538  0.5167  0.5352
  147DOPC  H11X17563   2.190   1.035   8.264 -1.4894  1.5982 -2.1254
  147DOPC  H11Y17564   2.223   0.855   8.240  0.1414  0.2838  0.0271
  147DOPC  C31217565   2.195   0.955   8.060  0.2349 -0.6821 -0.2876
  147DOPC  H12X17566   2.225   1.050   8.011  2.7558 -1.7204 -0.9394
  147DOPC  H12Y17567   2.085   0.948   8.065  0.2728 -0.3973  1.4652
  147DOPC  C31317568   2.251   0.840   7.976  0.6252  0.0062 -0.3973
  147DOPC  H13X17569   2.238   0.864   7.869  0.5012 -0.3344 -0.4593
  147DOPC  H13Y17570   2.361   0.831   7.988  0.7558  0.6315 -1.0437
  147DOPC  C31417571   2.197   0.700   8.000  0.8442  0.5750  0.0561
  147DOPC  H14X17572   2.238   0.640   7.916 -2.5400  0.4678 -1.6896
  147DOPC  H14Y17573   2.221   0.647   8.094 -1.6980 -0.7911  0.0242
  147DOPC  C31517574   2.041   0.685   7.982 -0.4105 -0.3587  0.3424
  147DOPC  H15X17575   1.984   0.747   8.054 -1.8239  0.1938 -1.1833
  147DOPC  H15Y17576   2.024   0.579   8.010  1.7491 -0.3031  2.2142
  147DOPC  C31617577   2.000   0.691   7.838 -0.4991 -0.4123  0.4982
  147DOPC  H16X17578   2.022   0.796   7.809 -2.0768 -0.5828 -1.5882
  147DOPC  H16Y17579   2.057   0.624   7.771  0.3992 -0.7832  1.6096
  147DOPC  C31717580   1.852   0.686   7.807 -0.1376 -1.0025  0.3395
  147DOPC  H17X17581   1.795   0.753   7.876  0.7683  1.0141 -0.7953
  147DOPC  H17Y17582   1.832   0.709   7.700  0.7193 -2.6472 -0.2060
  147DOPC  C31817583   1.801   0.546   7.833 -0.2570  0.2606 -0.0398
  147DOPC  H18X17584   1.695   0.536   7.802  0.0940 -0.8798 -0.8971
  147DOPC  H18Y17585   1.866   0.468   7.789  0.1862  2.1204 -2.9188
  147DOPC  H18Z17586   1.797   0.539   7.944 -1.7477  0.2221 -0.0691
  148DOPC     N17587   3.784   8.657  10.087 -0.2871 -0.6328 -0.1042
  148DOPC   C1217588   3.721   8.788  10.040  0.0392  0.9144 -0.3324
  148DOPC  H12A17589   3.792   8.868  10.058 -0.0485  0.5465  1.8768
  148DOPC  H12B17590   3.639   8.818  10.103 -1.5652 -2.0031 -0.8607
  148DOPC   C1317591   3.677   8.554  10.118  0.6052  0.0788  0.3533
  148DOPC  H13A17592   3.718   8.460  10.152  1.2246  0.3251  0.2928
  148DOPC  H13B17593   3.610   8.587  10.197 -1.0611  0.4397 -1.1413
  148DOPC  H13C17594   3.613   8.531  10.034  1.0256 -1.9804  0.5403
  148DOPC   C1417595   3.858   8.676  10.222 -0.5983 -0.3849  0.2004
  148DOPC  H14A17596   3.897   8.580  10.251  0.3699 -0.3582 -0.9238
  148DOPC  H14B17597   3.941   8.745  10.216  0.3363 -1.5483 -1.1069
  148DOPC  H14C17598   3.795   8.710  10.302 -0.6434  0.1038 -0.0416
  148DOPC   C1517599   3.879   8.601   9.991 -0.0370 -0.0964  0.2180
  148DOPC  H15A17600   3.942   8.675   9.944  1.0567 -0.6014  0.8364
  148DOPC  H15B17601   3.831   8.543   9.914 -1.4569  1.4138 -0.0899
  148DOPC  H15C17602   3.950   8.535  10.038  0.0238 -1.1086 -1.2547
  148DOPC   C1117603   3.674   8.778   9.892 -0.6867  0.4083 -0.7996
  148DOPC  H11A17604   3.765   8.768   9.829 -1.4672 -0.7199 -1.7959
  148DOPC  H11B17605   3.611   8.687   9.883  0.6391 -0.5319 -0.8426
  148DOPC     P17606   3.644   9.023   9.762 -0.6901  0.2831  0.2968
  148DOPC   O1317607   3.738   9.102   9.839  0.0861 -0.3110 -0.4304
  148DOPC   O1417608   3.520   9.092   9.720 -0.3555  0.0793 -0.2622
  148DOPC   O1217609   3.597   8.897   9.852  0.0736  0.1687 -0.7651
  148DOPC   O1117610   3.710   8.960   9.636 -0.2740  0.0891  0.0455
  148DOPC    C117611   3.646   8.862   9.560 -0.9526  0.8096 -0.2809
  148DOPC    HA17612   3.535   8.871   9.563 -0.8745  1.5455  1.3714
  148DOPC    HB17613   3.670   8.761   9.600 -1.6172 -0.3037 -2.5103
  148DOPC    C217614   3.693   8.856   9.412 -0.3803  0.0282  0.0269
  148DOPC    HS17615   3.785   8.794   9.407 -1.0620 -0.9390 -0.9020
  148DOPC   O2117616   3.709   8.988   9.361 -0.6284 -0.1758  0.0216
  148DOPC   C2117617   3.829   9.036   9.386  0.7885  0.5024  0.1039
  148DOPC   O2217618   3.919   8.981   9.451 -0.2879 -0.3374  0.3028
  148DOPC   C2217619   3.840   9.170   9.328 -0.4522 -1.0887 -0.1089
  148DOPC   H2R17620   3.910   9.236   9.383  0.4881  0.7218 -3.1946
  148DOPC   H2S17621   3.740   9.219   9.329  1.1560  2.6139 -1.6076
  148DOPC    C317622   3.595   8.787   9.320 -0.0080 -1.2855 -0.2380
  148DOPC    HX17623   3.511   8.859   9.306  1.8699  1.3464  1.3139
  148DOPC    HY17624   3.553   8.696   9.367  0.5594 -1.0814  0.6775
  148DOPC   O3117625   3.651   8.748   9.194  0.3251  0.6649 -0.1054
  148DOPC   C3117626   3.568   8.731   9.090  0.3164 -1.0072  0.5348
  148DOPC   O3217627   3.445   8.742   9.090 -0.0338 -0.2733 -0.1122
  148DOPC   C3217628   3.651   8.686   8.972 -0.2255  0.2706  0.3617
  148DOPC   H2X17629   3.748   8.739   8.959  1.0716 -1.7844  1.1110
  148DOPC   H2Y17630   3.689   8.584   8.994 -0.6641 -0.2039 -0.9834
  148DOPC   C2317631   3.898   9.168   9.178  0.9171  0.0293 -0.4697
  148DOPC   H3R17632   3.989   9.105   9.171  0.5244 -0.4192 -1.6446
  148DOPC   H3S17633   3.919   9.272   9.146  3.0955 -0.8696 -2.2349
  148DOPC   C2417634   3.801   9.114   9.073  0.5493  0.6847 -0.1985
  148DOPC   H4R17635   3.793   9.004   9.082  1.4461  0.5951 -0.4754
  148DOPC   H4S17636   3.847   9.155   8.981 -0.7593  2.6572 -0.0538
  148DOPC   C2517637   3.667   9.176   9.074  0.0353  0.5563 -0.5679
  148DOPC   H5R17638   3.659   9.286   9.084 -0.4352  0.8357 -3.2045
  148DOPC   H5S17639   3.604   9.137   9.156  0.7286 -0.6854 -0.5904
  148DOPC   C2617640   3.587   9.137   8.948  0.3218  0.9463  0.6566
  148DOPC   H6R17641   3.617   9.033   8.924 -0.1684  0.8539  0.4476
  148DOPC   H6S17642   3.624   9.197   8.862  0.2169  0.1334  0.0350
  148DOPC   C2717643   3.440   9.154   8.974  0.5823 -0.1013  0.0656
  148DOPC   H7R17644   3.433   9.248   9.033  0.7038 -1.0512  1.6517
  148DOPC   H7S17645   3.402   9.068   9.033  0.2556  0.8145  1.2226
  148DOPC   C2817646   3.353   9.171   8.843  0.1949  0.0437 -0.3594
  148DOPC   H8R17647   3.406   9.248   8.783 -1.6369  1.4601 -0.2354
  148DOPC   H8S17648   3.258   9.223   8.866  0.1519 -0.3737  0.4436
  148DOPC   C2917649   3.332   9.043   8.775  0.2082 -1.0715 -0.2124
  148DOPC   H9R17650   3.419   8.977   8.788  1.8548  1.1629  0.8433
  148DOPC  C21017651   3.223   9.003   8.708 -0.1609 -0.4271  0.7543
  148DOPC  H10R17652   3.217   8.899   8.674  2.2025  0.1880 -1.9521
  148DOPC  C21117653   3.104   9.094   8.680  0.0187  0.4303 -0.5673
  148DOPC  H11R17654   3.071   9.106   8.574 -0.6595  1.2770 -0.2706
  148DOPC  H11S17655   3.114   9.199   8.715  1.1298 -0.1868  1.0433
  148DOPC  C21217656   2.976   9.050   8.753 -0.2310  0.1833 -0.1948
  148DOPC  H12R17657   2.902   9.130   8.731 -0.0011  1.0520  1.9699
  148DOPC  H12S17658   2.993   9.046   8.862  0.8856  1.3999 -0.3096
  148DOPC  C21317659   2.917   8.922   8.695 -0.2988 -0.7462  0.0619
  148DOPC  H13R17660   2.987   8.840   8.721 -0.9640 -1.0263  1.0028
  148DOPC  H13S17661   2.917   8.936   8.585  1.2716  2.4422  0.3600
  148DOPC  C21417662   2.778   8.885   8.749 -0.3055  0.3114  0.2898
  148DOPC  H14R17663   2.700   8.960   8.722  0.8575  0.3309 -3.5441
  148DOPC  H14S17664   2.790   8.876   8.859 -0.7081 -1.8036  0.1984
  148DOPC  C21517665   2.739   8.749   8.686 -0.2932  0.2096 -0.8706
  148DOPC  H15R17666   2.800   8.672   8.737 -0.7884  1.2834  1.4818
  148DOPC  H15S17667   2.769   8.742   8.579  1.9045 -0.6783 -0.2621
  148DOPC  C21617668   2.598   8.707   8.708  0.5622  0.2589 -0.0234
  148DOPC  H16R17669   2.534   8.775   8.646 -0.2776 -1.8604 -1.5926
  148DOPC  H16S17670   2.575   8.702   8.816  1.2447  0.4548  0.1306
  148DOPC  C21717671   2.571   8.566   8.657 -1.0344  0.6856  0.6902
  148DOPC  H17R17672   2.476   8.526   8.700  0.1642 -1.3355  1.5958
  148DOPC  H17S17673   2.645   8.497   8.703  1.0284  1.5630 -1.1304
  148DOPC  C21817674   2.574   8.550   8.512  0.3644 -0.5544  0.3326
  148DOPC  H18R17675   2.497   8.614   8.465 -0.5432 -1.6406  0.2894
  148DOPC  H18S17676   2.543   8.446   8.485 -0.2217 -0.1705 -0.5299
  148DOPC  H18T17677   2.676   8.569   8.472  0.1380 -0.6045 -0.2905
  148DOPC   C3317678   3.568   8.685   8.837 -0.2341  0.1965  0.3678
  148DOPC   H3X17679   3.493   8.767   8.847 -0.4749 -0.0997  1.1529
  148DOPC   H3Y17680   3.507   8.593   8.821  0.4790 -0.3711  0.8245
  148DOPC   C3417681   3.658   8.713   8.713 -0.4613 -0.2732  0.1809
  148DOPC   H4X17682   3.754   8.657   8.719 -0.6982 -1.0153 -2.0137
  148DOPC   H4Y17683   3.693   8.817   8.725  2.1920 -1.2217  1.4816
  148DOPC   C3517684   3.589   8.678   8.580 -1.1466 -0.6774 -0.3797
  148DOPC   H5X17685   3.565   8.570   8.583  0.5108 -1.0377  0.9796
  148DOPC   H5Y17686   3.661   8.669   8.496 -0.2728 -2.7327  0.5218
  148DOPC   C3617687   3.477   8.772   8.544  0.0076 -0.2632  0.0203
  148DOPC   H6X17688   3.408   8.774   8.631  1.3777  0.4885  1.1207
  148DOPC   H6Y17689   3.515   8.876   8.535  0.3006 -0.4634 -1.1859
  148DOPC   C3717690   3.403   8.737   8.413  0.1511  0.1588  0.6421
  148DOPC   H7X17691   3.479   8.734   8.332  0.6992 -0.4875  1.1645
  148DOPC   H7Y17692   3.350   8.640   8.409  1.5808 -0.7006  1.5181
  148DOPC   C3817693   3.307   8.845   8.368  0.0337  0.2990 -0.1192
  148DOPC   H8X17694   3.353   8.943   8.343 -0.8725  0.5539 -0.8786
  148DOPC   H8Y17695   3.228   8.868   8.443  0.8528 -1.2731  1.3129
  148DOPC   C3917696   3.252   8.805   8.236  0.5648  0.0466  0.1449
  148DOPC   H9X17697   3.315   8.829   8.149  1.0727 -1.2649  0.1208
  148DOPC  C31017698   3.133   8.744   8.218  0.3304  0.2515 -0.1529
  148DOPC  H10X17699   3.104   8.732   8.113  0.8819 -2.0914 -0.0983
  148DOPC  C31117700   3.027   8.707   8.317 -0.0733  0.3214 -0.0602
  148DOPC  H11X17701   3.063   8.711   8.422 -2.4200  2.0524  0.7866
  148DOPC  H11Y17702   3.000   8.602   8.293  1.2469  0.3992 -2.1071
  148DOPC  C31217703   2.901   8.794   8.312 -0.1634 -1.1228 -0.2240
  148DOPC  H12X17704   2.910   8.904   8.301 -1.5888 -1.1267 -1.9984
  148DOPC  H12Y17705   2.840   8.769   8.402  2.5065 -1.6088  1.5387
  148DOPC  C31317706   2.829   8.746   8.184  0.1314 -0.0558  0.1068
  148DOPC  H13X17707   2.891   8.771   8.095  0.6106  0.8362  0.6727
  148DOPC  H13Y17708   2.818   8.636   8.199  0.6094  0.1088  1.9057
  148DOPC  C31417709   2.696   8.826   8.166  0.6203  0.6980 -0.0259
  148DOPC  H14X17710   2.701   8.937   8.168 -2.3602  0.8900  1.8547
  148DOPC  H14Y17711   2.660   8.807   8.062  0.8048  1.4073 -0.2279
  148DOPC  C31517712   2.591   8.798   8.272 -0.1348  0.4118  0.4249
  148DOPC  H15X17713   2.630   8.794   8.376  0.2293 -1.1268  0.2480
  148DOPC  H15Y17714   2.563   8.693   8.251 -2.1309  0.9716  0.0654
  148DOPC  C31617715   2.462   8.882   8.271  0.3625 -0.5010 -0.4502
  148DOPC  H16X17716   2.398   8.857   8.359 -2.0369  1.5748 -1.4779
  148DOPC  H16Y17717   2.498   8.983   8.299  3.1110 -1.4705 -0.1790
  148DOPC  C31717718   2.380   8.876   8.147  0.0671 -0.4810 -0.3790
  148DOPC  H17X17719   2.282   8.922   8.173  1.1124  1.2070  0.8256
  148DOPC  H17Y17720   2.429   8.927   8.061 -0.7213  0.3835 -0.3423
  148DOPC  C31817721   2.342   8.737   8.100 -0.0090  0.1047  0.0574
  148DOPC  H18X17722   2.261   8.724   8.025 -0.1834 -0.9943  0.4144
  148DOPC  H18Y17723   2.433   8.689   8.057  0.7534  2.2003 -0.8147
  148DOPC  H18Z17724   2.307   8.674   8.185  0.4441  0.4086  0.4724
  149DOPC     N17725   3.464   4.395  10.077 -0.2365  0.1461  0.5572
  149DOPC   C1217726   3.456   4.322   9.946  0.1266  0.5001 -0.0151
  149DOPC  H12A17727   3.497   4.223   9.960 -1.9818 -0.3648  0.4319
  149DOPC  H12B17728   3.524   4.369   9.876 -0.2715 -0.1403 -0.8578
  149DOPC   C1317729   3.593   4.366  10.144  0.4992 -0.2141 -0.4447
  149DOPC  H13A17730   3.679   4.386  10.082 -1.2714  3.6120 -1.9559
  149DOPC  H13B17731   3.594   4.434  10.228  1.2326  0.9028 -1.3179
  149DOPC  H13C17732   3.593   4.266  10.186 -0.7143  0.1951  0.5889
  149DOPC   C1417733   3.351   4.366  10.164 -0.1572 -0.0341  0.3430
  149DOPC  H14A17734   3.369   4.265  10.198  0.2957  0.7768  2.7001
  149DOPC  H14B17735   3.354   4.429  10.252 -3.3608  1.1639 -0.2701
  149DOPC  H14C17736   3.253   4.378  10.122  0.3206  1.0921 -0.5137
  149DOPC   C1517737   3.457   4.538  10.034 -0.0674 -0.1320  0.1195
  149DOPC  H15A17738   3.367   4.546   9.976 -0.3646  0.1313  0.6013
  149DOPC  H15B17739   3.535   4.577   9.971 -0.5572  1.4114  0.4246
  149DOPC  H15C17740   3.440   4.602  10.120  2.3534  0.9375 -0.1120
  149DOPC   C1117741   3.311   4.305   9.877 -0.5121  0.3736  0.4152
  149DOPC  H11A17742   3.318   4.245   9.783  1.1054  3.1833 -1.3763
  149DOPC  H11B17743   3.240   4.254   9.945 -0.5909  0.9737  0.7891
  149DOPC     P17744   3.106   4.432   9.783 -0.1426 -0.3079  0.2005
  149DOPC   O1317745   3.077   4.568   9.726  0.0511  0.0195  0.5640
  149DOPC   O1417746   3.020   4.377   9.892 -0.1361  0.6056 -0.0650
  149DOPC   O1217747   3.261   4.435   9.833  0.8146  0.0885 -0.2381
  149DOPC   O1117748   3.123   4.330   9.662 -0.1414  0.0935 -0.4635
  149DOPC    C117749   3.186   4.359   9.541 -0.4416 -0.0301  0.4815
  149DOPC    HA17750   3.274   4.291   9.533 -0.7103 -0.3203 -0.1055
  149DOPC    HB17751   3.216   4.466   9.537  0.3010 -0.2127  0.9040
  149DOPC    C217752   3.093   4.322   9.423 -0.6620  1.1494 -0.4642
  149DOPC    HS17753   2.990   4.357   9.447 -0.9477  1.1138 -1.6006
  149DOPC   O2117754   3.106   4.177   9.401  0.8834 -0.2196  0.0128
  149DOPC   C2117755   2.992   4.128   9.337  0.1606 -0.8123  0.0809
  149DOPC   O2217756   2.892   4.196   9.311 -0.5169 -0.0836 -0.1832
  149DOPC   C2217757   3.010   3.975   9.325  0.1163  0.1743  0.7727
  149DOPC   H2R17758   3.000   3.920   9.421 -1.0623 -0.5621  0.2513
  149DOPC   H2S17759   3.109   3.965   9.276 -0.2826  0.4793 -0.1246
  149DOPC    C317760   3.158   4.391   9.299 -0.3174 -0.0829 -0.3345
  149DOPC    HX17761   3.266   4.404   9.321 -0.0535 -0.9504 -1.0485
  149DOPC    HY17762   3.109   4.490   9.289 -0.1846 -0.1573 -2.0827
  149DOPC   O3117763   3.140   4.308   9.182 -0.6192  0.2696 -0.2592
  149DOPC   C3117764   3.185   4.373   9.075  0.1723 -0.3105 -0.4525
  149DOPC   O3217765   3.238   4.480   9.075 -0.3444 -0.2545  0.9840
  149DOPC   C3217766   3.152   4.286   8.947 -0.0916 -0.0808 -0.5305
  149DOPC   H2X17767   3.194   4.186   8.968 -0.6738 -0.4807 -1.2317
  149DOPC   H2Y17768   3.042   4.277   8.942  0.0618 -2.0079 -1.2926
  149DOPC   C2317769   2.902   3.919   9.230 -0.1925 -0.3899  0.3998
  149DOPC   H3R17770   2.800   3.941   9.270  0.8292  0.3593  2.7999
  149DOPC   H3S17771   2.918   3.810   9.220  1.9315 -0.0620 -0.4075
  149DOPC   C2417772   2.916   3.973   9.094  0.0635 -0.2480 -0.5278
  149DOPC   H4R17773   2.924   4.084   9.090  0.3707 -0.2380  0.2330
  149DOPC   H4S17774   2.825   3.946   9.037 -0.3449 -1.1983  0.5545
  149DOPC   C2517775   3.042   3.923   9.017  0.2494  0.0104 -0.7368
  149DOPC   H5R17776   3.046   3.815   9.040 -0.1961  0.2891  0.7735
  149DOPC   H5S17777   3.134   3.962   9.066 -0.3096 -0.4390  0.7440
  149DOPC   C2617778   3.033   3.954   8.868  0.6134 -0.8182  0.6530
  149DOPC   H6R17779   3.137   3.975   8.835  0.8414  0.8807  2.2924
  149DOPC   H6S17780   2.978   4.050   8.854 -0.0683 -1.4275 -1.1637
  149DOPC   C2717781   2.975   3.831   8.782  0.5489 -0.5119 -0.3158
  149DOPC   H7R17782   3.007   3.737   8.833  2.0863  0.6732  1.0381
  149DOPC   H7S17783   3.029   3.834   8.685  1.9272 -2.3818  0.3157
  149DOPC   C2817784   2.830   3.852   8.751 -0.0759  0.4129 -0.1686
  149DOPC   H8R17785   2.829   3.951   8.701  1.1659  0.5268 -0.0182
  149DOPC   H8S17786   2.767   3.849   8.842 -0.4752 -1.2851 -0.4678
  149DOPC   C2917787   2.773   3.747   8.659 -0.4046 -0.0860  0.4092
  149DOPC   H9R17788   2.768   3.649   8.709 -0.0970 -1.2512 -1.7480
  149DOPC  C21017789   2.687   3.761   8.549 -0.2191 -0.0135 -0.1575
  149DOPC  H10R17790   2.647   3.676   8.493  1.0828 -0.4397 -0.4694
  149DOPC  C21117791   2.657   3.894   8.480  0.0662 -0.4322 -0.3430
  149DOPC  H11R17792   2.735   3.911   8.402 -0.5589 -0.3473 -0.9521
  149DOPC  H11S17793   2.673   3.976   8.553 -0.0481 -0.7490  0.0449
  149DOPC  C21217794   2.516   3.896   8.428 -0.7681 -0.4209  0.9197
  149DOPC  H12R17795   2.516   3.816   8.352  0.2239 -0.0255  0.4893
  149DOPC  H12S17796   2.487   3.994   8.383 -0.5600 -0.1044  1.4519
  149DOPC  C21317797   2.407   3.862   8.525 -0.4392 -0.6494 -0.6841
  149DOPC  H13R17798   2.410   3.949   8.595  2.2083 -1.1150 -0.0844
  149DOPC  H13S17799   2.425   3.772   8.587 -2.8166  0.8476  2.5124
  149DOPC  C21417800   2.266   3.853   8.460  0.1738 -0.7194 -0.5674
  149DOPC  H14R17801   2.271   3.777   8.379  2.9925 -0.0739 -1.0941
  149DOPC  H14S17802   2.247   3.948   8.406  1.6831 -1.2270 -2.0765
  149DOPC  C21517803   2.152   3.819   8.561  0.1380  0.1729 -0.2722
  149DOPC  H15R17804   2.183   3.726   8.613 -0.5902 -0.2112 -0.5033
  149DOPC  H15S17805   2.056   3.796   8.510  0.3490 -2.5948  0.4126
  149DOPC  C21617806   2.130   3.928   8.672  0.8578  0.0269 -1.4293
  149DOPC  H16R17807   2.225   3.950   8.726  0.7989 -1.8251 -0.4735
  149DOPC  H16S17808   2.052   3.882   8.736  1.7904 -1.1357 -1.0886
  149DOPC  C21717809   2.066   4.060   8.618 -0.3030 -0.0073 -0.3054
  149DOPC  H17R17810   2.011   4.030   8.526  2.4342  0.5681 -2.2424
  149DOPC  H17S17811   2.149   4.131   8.597  0.0843 -0.2266  0.4612
  149DOPC  C21817812   1.976   4.142   8.715 -0.0425 -0.3192 -0.1360
  149DOPC  H18R17813   1.898   4.209   8.674  1.1136  1.4646  0.4159
  149DOPC  H18S17814   2.041   4.205   8.780  0.1492 -1.2425  0.5891
  149DOPC  H18T17815   1.922   4.077   8.787 -0.0268 -0.7499 -0.5087
  149DOPC   C3317816   3.206   4.354   8.819 -1.0265 -0.1392 -0.4143
  149DOPC   H3X17817   3.314   4.380   8.832 -0.8638 -2.0618  3.5118
  149DOPC   H3Y17818   3.162   4.451   8.786  2.2762  2.4002  1.8686
  149DOPC   C3417819   3.196   4.247   8.710 -0.2304  0.4660  0.0157
  149DOPC   H4X17820   3.090   4.215   8.699 -0.8417  2.7375 -1.4267
  149DOPC   H4Y17821   3.261   4.160   8.735 -1.3918 -0.6838 -0.7855
  149DOPC   C3517822   3.222   4.302   8.566  0.3587  0.2624  0.0007
  149DOPC   H5X17823   3.316   4.359   8.577  2.1299 -2.3862 -0.5039
  149DOPC   H5Y17824   3.139   4.369   8.535  2.7351  2.7368 -1.4021
  149DOPC   C3617825   3.251   4.199   8.453  0.7083  0.0205 -0.2086
  149DOPC   H6X17826   3.154   4.149   8.436 -0.5300  2.4674 -0.8310
  149DOPC   H6Y17827   3.283   4.243   8.356 -0.9469  1.6386 -0.0694
  149DOPC   C3717828   3.354   4.096   8.492 -0.1779 -0.5852  0.0224
  149DOPC   H7X17829   3.449   4.149   8.516 -0.2707 -0.9149  1.1683
  149DOPC   H7Y17830   3.338   4.028   8.578 -2.1205  1.3882  1.3168
  149DOPC   C3817831   3.391   4.002   8.369 -0.5966 -0.2627 -0.4784
  149DOPC   H8X17832   3.428   4.061   8.282  0.4416 -1.8039 -1.1429
  149DOPC   H8Y17833   3.305   3.943   8.332  0.5074 -3.1216  1.1450
  149DOPC   C3917834   3.499   3.906   8.415  0.5248 -0.4144  0.1022
  149DOPC   H9X17835   3.602   3.945   8.409  0.3492  0.4033  1.8730
  149DOPC  C31017836   3.474   3.781   8.472  0.2488  0.2340  0.0083
  149DOPC  H10X17837   3.564   3.718   8.483 -0.6128 -1.1140 -0.3564
  149DOPC  C31117838   3.337   3.721   8.510 -0.1259  0.0818 -0.3466
  149DOPC  H11X17839   3.317   3.635   8.443  0.0910  0.4553 -0.8944
  149DOPC  H11Y17840   3.252   3.785   8.477  1.0513  0.6581 -2.4581
  149DOPC  C31217841   3.304   3.698   8.659  0.2472 -0.2045 -0.5000
  149DOPC  H12X17842   3.197   3.667   8.666  0.5243 -0.8509  1.6160
  149DOPC  H12Y17843   3.332   3.792   8.711  0.7855 -0.4717 -0.3031
  149DOPC  C31317844   3.387   3.586   8.729  0.2625 -0.5128  0.4115
  149DOPC  H13X17845   3.410   3.506   8.656  0.8530  2.1925 -2.5729
  149DOPC  H13Y17846   3.479   3.645   8.745 -0.4081  0.5528  0.4701
  149DOPC  C31417847   3.330   3.533   8.862 -0.0819 -0.0997 -0.4419
  149DOPC  H14X17848   3.272   3.609   8.919  1.4021  0.6823  0.0869
  149DOPC  H14Y17849   3.251   3.468   8.820  1.6089 -1.5187 -1.5562
  149DOPC  C31517850   3.429   3.456   8.952 -0.4840  0.1023 -0.3391
  149DOPC  H15X17851   3.488   3.529   9.012 -1.6098 -0.0105  0.9560
  149DOPC  H15Y17852   3.488   3.397   8.879 -2.2400 -1.4132 -0.6202
  149DOPC  C31617853   3.353   3.350   9.054  0.3927 -0.4260  0.1295
  149DOPC  H16X17854   3.415   3.291   9.125  1.2284  1.9127  1.4926
  149DOPC  H16Y17855   3.289   3.406   9.126 -1.3569 -2.6262  0.3667
  149DOPC  C31717856   3.263   3.246   8.985 -0.2171 -0.1712 -0.4736
  149DOPC  H17X17857   3.237   3.175   9.066  0.1507  0.4836  0.2395
  149DOPC  H17Y17858   3.172   3.307   8.965 -0.0311  1.4816  2.9894
  149DOPC  C31817859   3.310   3.168   8.868 -0.4356 -0.0550 -0.4618
  149DOPC  H18X17860   3.316   3.229   8.775 -0.4152 -0.2226 -0.5706
  149DOPC  H18Y17861   3.412   3.128   8.891  0.2000  0.5589 -2.0739
  149DOPC  H18Z17862   3.239   3.084   8.857 -2.5511  1.4628  0.8729
  150DOPC     N17863   7.154   5.365   9.572  0.4367 -0.0443  0.2732
  150DOPC   C1217864   7.193   5.493   9.500  0.0559 -0.1053 -0.4789
  150DOPC  H12A17865   7.243   5.556   9.571 -0.8642 -0.4838  0.5300
  150DOPC  H12B17866   7.100   5.543   9.478 -0.3982 -0.1528  1.2261
  150DOPC   C1317867   7.098   5.266   9.483  0.4272 -0.9029 -0.1090
  150DOPC  H13A17868   7.174   5.238   9.411  1.0654 -0.0794  0.2341
  150DOPC  H13B17869   7.065   5.177   9.535 -0.2256 -0.8805 -0.4684
  150DOPC  H13C17870   7.016   5.307   9.425  1.2286  0.0061 -0.6209
  150DOPC   C1417871   7.053   5.388   9.679  0.3509  0.1288  0.5977
  150DOPC  H14A17872   7.055   5.300   9.742  2.8761 -0.5935 -0.3492
  150DOPC  H14B17873   7.069   5.475   9.741 -1.7473  1.9659 -1.2907
  150DOPC  H14C17874   6.955   5.401   9.637  0.7186  1.5098  0.1137
  150DOPC   C1517875   7.279   5.308   9.629  0.4691 -0.1538  0.3889
  150DOPC  H15A17876   7.356   5.304   9.554  0.2108 -3.2327  0.1724
  150DOPC  H15B17877   7.271   5.204   9.657  0.1467 -0.6457 -1.4127
  150DOPC  H15C17878   7.318   5.364   9.713  0.8707  2.2765 -1.2849
  150DOPC   C1117879   7.286   5.485   9.368  0.1201 -0.1246 -0.7130
  150DOPC  H11A17880   7.242   5.403   9.307  1.8519 -0.6541 -1.3126
  150DOPC  H11B17881   7.269   5.580   9.313  1.4665 -0.9516 -2.7264
  150DOPC     P17882   7.529   5.391   9.332 -0.0077 -0.0892 -0.2168
  150DOPC   O1317883   7.551   5.262   9.414  0.1339  0.3529  0.0445
  150DOPC   O1417884   7.654   5.462   9.316 -0.0390 -0.6362 -0.1691
  150DOPC   O1217885   7.428   5.482   9.405  0.4044 -0.0548  0.0816
  150DOPC   O1117886   7.476   5.361   9.195 -0.1498  0.2951  0.4866
  150DOPC    C117887   7.535   5.400   9.076 -0.0533  0.2160  0.1585
  150DOPC    HA17888   7.645   5.390   9.074 -0.1003 -0.5334  0.7637
  150DOPC    HB17889   7.516   5.506   9.050 -1.3077  0.2913  1.2663
  150DOPC    C217890   7.491   5.301   8.974 -0.5629  0.1643 -0.1392
  150DOPC    HS17891   7.532   5.342   8.879 -0.5950  1.6512  0.4710
  150DOPC   O2117892   7.346   5.298   8.960  0.1636  0.0804 -0.2667
  150DOPC   C2117893   7.294   5.414   8.925  1.0789 -0.1749 -0.2117
  150DOPC   O2217894   7.352   5.519   8.893  0.0278 -0.3351 -0.1673
  150DOPC   C2217895   7.138   5.408   8.932  0.5442 -0.3691 -0.1797
  150DOPC   H2R17896   7.117   5.397   9.041 -0.0141 -1.2193 -0.3644
  150DOPC   H2S17897   7.117   5.306   8.893 -0.1113 -1.0129  1.7235
  150DOPC    C317898   7.558   5.158   8.997  0.2247 -0.6557 -0.3172
  150DOPC    HX17899   7.530   5.123   9.098  0.9511 -1.1379 -0.2752
  150DOPC    HY17900   7.668   5.171   9.005 -0.0424  0.3381  2.8543
  150DOPC   O3117901   7.525   5.069   8.891  0.4165  0.4890  0.0475
  150DOPC   C3117902   7.593   4.953   8.911 -0.4795  0.1295  0.0102
  150DOPC   O3217903   7.660   4.923   9.010 -0.1764 -0.0485  0.3442
  150DOPC   C3217904   7.587   4.865   8.785 -0.1279 -0.2772  0.8343
  150DOPC   H2X17905   7.481   4.868   8.750  0.5734 -0.9789 -1.5833
  150DOPC   H2Y17906   7.664   4.893   8.710 -0.0581  1.1940  1.4409
  150DOPC   C2317907   7.068   5.530   8.873 -0.2945 -0.5614 -0.0749
  150DOPC   H3R17908   7.107   5.627   8.912 -1.5489 -0.7853  1.8974
  150DOPC   H3S17909   6.958   5.543   8.884 -0.4881  0.6866 -2.8159
  150DOPC   C2417910   7.069   5.532   8.714  0.6495 -0.4122 -0.7005
  150DOPC   H4R17911   7.040   5.444   8.654  2.1671 -1.4819  0.0798
  150DOPC   H4S17912   7.172   5.555   8.679  0.5897  0.3459 -0.4123
  150DOPC   C2517913   6.993   5.662   8.668 -0.0863  0.3792 -0.2134
  150DOPC   H5R17914   7.039   5.746   8.725 -0.9318  2.3629 -2.3270
  150DOPC   H5S17915   6.888   5.649   8.699 -0.0944 -0.3838 -0.5299
  150DOPC   C2617916   6.990   5.686   8.519 -0.2223 -0.2520 -0.2404
  150DOPC   H6R17917   7.095   5.677   8.483 -0.1087  1.0649 -0.3045
  150DOPC   H6S17918   6.944   5.787   8.511  1.1676  0.3226 -1.4171
  150DOPC   C2717919   6.912   5.573   8.441 -0.3044  0.0613  0.6944
  150DOPC   H7R17920   6.808   5.569   8.480 -1.2216  0.4679 -1.5629
  150DOPC   H7S17921   6.947   5.471   8.467  0.2073 -0.2088 -0.9711
  150DOPC   C2817922   6.906   5.600   8.288  0.3630  0.2562  0.1415
  150DOPC   H8R17923   6.880   5.707   8.274 -0.3645  0.1352  0.5241
  150DOPC   H8S17924   6.818   5.548   8.246  0.8843  1.0217 -2.0489
  150DOPC   C2917925   7.021   5.548   8.212 -0.9067  0.2829 -0.3333
  150DOPC   H9R17926   7.092   5.622   8.173  1.2814 -1.5100  0.0568
  150DOPC  C21017927   7.050   5.422   8.186  0.2905  1.3811  0.5129
  150DOPC  H10R17928   7.139   5.414   8.122 -0.9012 -2.1834 -0.9658
  150DOPC  C21117929   6.979   5.295   8.235  0.1561  0.0792 -0.5668
  150DOPC  H11R17930   6.954   5.229   8.149  0.4104  0.3442 -0.8483
  150DOPC  H11S17931   6.894   5.325   8.300  2.9521 -0.7444  3.8988
  150DOPC  C21217932   7.066   5.218   8.329 -0.2538 -0.5029  0.4142
  150DOPC  H12R17933   7.099   5.279   8.416 -1.4594  0.7390  0.0360
  150DOPC  H12S17934   7.163   5.191   8.282 -0.9874 -0.3993 -1.2141
  150DOPC  C21317935   7.006   5.088   8.371 -0.1050  0.2877 -0.2714
  150DOPC  H13R17936   6.995   5.019   8.285  0.2265 -1.9017  1.3549
  150DOPC  H13S17937   6.899   5.104   8.399  0.4734 -0.1402  2.4812
  150DOPC  C21417938   7.083   5.023   8.488  0.2080  0.6282 -0.0994
  150DOPC  H14R17939   7.190   5.047   8.467  0.7466  1.5006  3.0434
  150DOPC  H14S17940   7.074   4.913   8.494  0.8791  0.4893 -1.3642
  150DOPC  C21517941   7.031   5.085   8.616 -0.5497 -0.1374  0.3573
  150DOPC  H15R17942   6.926   5.057   8.639 -0.5256 -1.7858 -1.2969
  150DOPC  H15S17943   7.025   5.195   8.601  2.3478  0.0252 -0.1228
  150DOPC  C21617944   7.131   5.048   8.730  0.0299 -0.6441  0.5403
  150DOPC  H16R17945   7.102   5.080   8.832  0.8309  2.3134 -0.0642
  150DOPC  H16S17946   7.227   5.089   8.694 -1.5243  1.9366 -1.0024
  150DOPC  C21717947   7.158   4.897   8.750  0.2467 -0.3433  0.1051
  150DOPC  H17R17948   7.212   4.854   8.663  1.3379  0.0880  0.5593
  150DOPC  H17S17949   7.064   4.840   8.731  0.9561 -1.5037 -0.0079
  150DOPC  C21817950   7.220   4.853   8.884 -0.2948  0.0105 -0.5424
  150DOPC  H18R17951   7.258   4.748   8.875  0.8374  0.1627  1.7537
  150DOPC  H18S17952   7.146   4.859   8.967  0.4677  0.9448  0.0811
  150DOPC  H18T17953   7.302   4.925   8.903 -1.2096  0.8368  0.4069
  150DOPC   C3317954   7.630   4.718   8.819 -0.7666  0.4040 -0.4398
  150DOPC   H3X17955   7.557   4.679   8.893  0.7428  1.1466  1.5356
  150DOPC   H3Y17956   7.734   4.724   8.858 -1.0828  0.6946  0.3765
  150DOPC   C3417957   7.630   4.633   8.693 -0.5743  0.3664  0.6474
  150DOPC   H4X17958   7.688   4.688   8.616 -0.5555 -1.5925 -0.8060
  150DOPC   H4Y17959   7.530   4.625   8.646 -0.4566  2.0357  0.0546
  150DOPC   C3517960   7.714   4.501   8.711 -0.2746 -0.0437 -0.3247
  150DOPC   H5X17961   7.650   4.435   8.773  3.2067 -2.3710  1.0905
  150DOPC   H5Y17962   7.813   4.520   8.758 -1.0362  0.2377  1.2328
  150DOPC   C3617963   7.746   4.425   8.582  0.2820  0.2348  0.6485
  150DOPC   H6X17964   7.829   4.467   8.522 -1.1020  0.4105 -1.2627
  150DOPC   H6Y17965   7.787   4.325   8.607 -0.7290 -0.4833 -0.4254
  150DOPC   C3717966   7.638   4.392   8.481  0.5585  0.3155 -0.1046
  150DOPC   H7X17967   7.553   4.331   8.517 -0.6492  0.6414 -2.1903
  150DOPC   H7Y17968   7.605   4.496   8.456  2.4658  1.5597  2.1444
  150DOPC   C3817969   7.700   4.323   8.360 -0.4256  0.6940 -0.6122
  150DOPC   H8X17970   7.730   4.225   8.403 -0.6912  1.5069  1.5671
  150DOPC   H8Y17971   7.793   4.371   8.325  0.1321 -0.1938 -0.3927
  150DOPC   C3917972   7.593   4.314   8.256 -0.3141 -0.2204 -0.5321
  150DOPC   H9X17973   7.504   4.257   8.288 -0.3859  0.1611 -0.0456
  150DOPC  C31017974   7.582   4.366   8.127  0.7648 -0.1122 -0.0176
  150DOPC  H10X17975   7.481   4.358   8.085 -0.1639 -1.1856  2.2135
  150DOPC  C31117976   7.686   4.459   8.068 -1.0332 -0.2628 -0.4906
  150DOPC  H11X17977   7.776   4.395   8.080 -0.9890 -0.3342 -1.1786
  150DOPC  H11Y17978   7.720   4.545   8.129  0.6913 -2.2290  1.5042
  150DOPC  C31217979   7.684   4.507   7.919  0.0793  0.2681  0.2838
  150DOPC  H12X17980   7.581   4.548   7.908 -1.0815 -2.2633  0.9617
  150DOPC  H12Y17981   7.676   4.418   7.853 -2.8789  0.3599  0.4015
  150DOPC  C31317982   7.809   4.596   7.883  1.1299 -0.1457 -0.2710
  150DOPC  H13X17983   7.879   4.608   7.968 -0.3123 -0.2464  0.9701
  150DOPC  H13Y17984   7.864   4.560   7.794 -0.4743 -1.2655 -0.8607
  150DOPC  C31417985   7.755   4.731   7.841  0.5487 -1.0654 -0.0877
  150DOPC  H14X17986   7.697   4.731   7.746 -0.7204 -2.2584  0.6652
  150DOPC  H14Y17987   7.682   4.754   7.921  1.9715  0.0951  0.9223
  150DOPC  C31517988   7.867   4.838   7.829 -0.5137 -0.0326 -0.1673
  150DOPC  H15X17989   7.922   4.854   7.924 -0.4610  2.6730 -0.5767
  150DOPC  H15Y17990   7.818   4.938   7.824  1.7782  1.1005 -2.0353
  150DOPC  C31617991   7.961   4.814   7.713 -0.4308 -0.3857  0.0860
  150DOPC  H16X17992   8.022   4.723   7.732 -0.0199  0.0695  1.0083
  150DOPC  H16Y17993   7.908   4.795   7.617 -0.9853  1.7142 -0.0606
  150DOPC  C31717994   8.065   4.927   7.704  0.4065 -0.5245 -0.6342
  150DOPC  H17X17995   8.018   5.025   7.682  2.6208 -0.0619 -3.9458
  150DOPC  H17Y17996   8.108   4.935   7.807 -0.0368 -1.7121 -0.3445
  150DOPC  C31817997   8.183   4.920   7.607 -0.3105 -0.1629  0.1384
  150DOPC  H18X17998   8.219   5.015   7.561  0.3131 -0.3801  0.1664
  150DOPC  H18Y17999   8.273   4.871   7.651  0.7909 -1.1672 -2.9390
  150DOPC  H18Z18000   8.171   4.847   7.524  1.3485  0.7418 -0.9709
  151DOPC     N18001   8.353   9.009   9.433 -0.2867 -0.1663  0.8561
  151DOPC   C1218002   8.361   8.863   9.398 -0.5101 -0.5361 -0.3380
  151DOPC  H12A18003   8.268   8.824   9.436  0.2026 -0.7101  1.2992
  151DOPC  H12B18004   8.447   8.831   9.455 -0.7422 -0.8716 -0.1767
  151DOPC   C1318005   8.321   9.023   9.585 -0.6250 -0.5097 -0.0339
  151DOPC  H13A18006   8.247   8.949   9.611 -0.1132 -1.3709 -0.9673
  151DOPC  H13B18007   8.409   9.017   9.647  0.3166 -0.7421 -1.3432
  151DOPC  H13C18008   8.274   9.119   9.599  0.9902  0.5075 -1.1556
  151DOPC   C1418009   8.247   9.077   9.353 -0.4895 -0.8361 -0.0654
  151DOPC  H14A18010   8.256   9.049   9.249 -0.8783  2.5811 -1.1338
  151DOPC  H14B18011   8.145   9.059   9.385 -1.0936 -0.0289 -1.4594
  151DOPC  H14C18012   8.249   9.184   9.368  1.5468 -0.7711 -0.5741
  151DOPC   C1518013   8.488   9.083   9.404  0.4486 -0.1161  0.0394
  151DOPC  H15A18014   8.526   9.076   9.303  1.5780  1.7604  0.2989
  151DOPC  H15B18015   8.561   9.037   9.470 -2.1625 -1.3194  2.3256
  151DOPC  H15C18016   8.488   9.187   9.431  1.1408 -0.2839  0.7182
  151DOPC   C1118017   8.388   8.819   9.259  0.0584 -0.0894 -0.7476
  151DOPC  H11A18018   8.374   8.709   9.254 -1.4245  0.1067 -1.6999
  151DOPC  H11B18019   8.318   8.861   9.184 -1.3224 -1.4863 -0.2887
  151DOPC     P18020   8.643   8.762   9.254  0.3799  0.3490  0.5445
  151DOPC   O1318021   8.628   8.703   9.388  0.3816 -0.8764  0.5332
  151DOPC   O1418022   8.769   8.832   9.232 -0.3860 -0.1514 -0.0611
  151DOPC   O1218023   8.521   8.857   9.227  0.0674  0.4963 -0.5476
  151DOPC   O1118024   8.629   8.647   9.149  0.0960 -0.6010  0.0088
  151DOPC    C118025   8.674   8.660   9.016 -0.2759 -0.3116 -0.5252
  151DOPC    HA18026   8.686   8.559   8.972  0.9899 -0.2743 -0.3139
  151DOPC    HB18027   8.781   8.689   9.012 -0.5127  0.6845  0.0082
  151DOPC    C218028   8.573   8.727   8.931  0.7525  0.5900 -0.1875
  151DOPC    HS18029   8.557   8.827   8.979 -2.5293 -1.2606  3.1201
  151DOPC   O2118030   8.452   8.647   8.953  0.7511  0.4239 -0.0549
  151DOPC   C2118031   8.348   8.722   8.914  0.5403 -0.2484 -0.2512
  151DOPC   O2218032   8.345   8.842   8.904 -0.0589 -0.7293  0.1533
  151DOPC   C2218033   8.234   8.623   8.901 -0.5335  0.4126  0.0717
  151DOPC   H2R18034   8.259   8.553   8.819 -1.4050 -2.6724  2.2405
  151DOPC   H2S18035   8.141   8.680   8.877 -1.2669  0.0818  1.9235
  151DOPC    C318036   8.612   8.741   8.785  0.1652 -0.8844 -1.0588
  151DOPC    HX18037   8.530   8.780   8.722  0.1908 -0.7060 -0.9807
  151DOPC    HY18038   8.630   8.639   8.743 -1.0816 -1.1994 -0.8529
  151DOPC   O3118039   8.730   8.816   8.765 -0.3017 -0.7322 -0.0496
  151DOPC   C3118040   8.709   8.943   8.740  0.4184  0.0714  0.6458
  151DOPC   O3218041   8.604   9.005   8.729 -0.6320 -0.1714 -0.2497
  151DOPC   C3218042   8.843   9.007   8.703 -1.0118  0.3869  0.3464
  151DOPC   H2X18043   8.874   9.066   8.791 -0.0912 -0.9761  0.9744
  151DOPC   H2Y18044   8.919   8.926   8.709  0.1090  1.2838 -1.1860
  151DOPC   C2318045   8.202   8.543   9.030  0.0477  1.0558 -0.2680
  151DOPC   H3R18046   8.161   8.614   9.106  2.0919  1.8226  0.1984
  151DOPC   H3S18047   8.285   8.487   9.079 -0.6855 -1.9533 -2.2387
  151DOPC   C2418048   8.106   8.426   9.009  0.4019 -0.8856  0.2406
  151DOPC   H4R18049   8.085   8.377   9.106  0.8905  1.5913  1.7129
  151DOPC   H4S18050   8.164   8.342   8.967  0.6872 -0.1618 -0.8550
  151DOPC   C2518051   7.966   8.443   8.948 -0.4187  0.2775  0.4297
  151DOPC   H5R18052   7.927   8.546   8.943 -0.3709  0.2846  0.2109
  151DOPC   H5S18053   7.897   8.367   8.991 -2.0628  1.9197  0.7919
  151DOPC   C2618054   7.973   8.391   8.806 -0.0651 -0.1987 -1.0779
  151DOPC   H6R18055   8.015   8.289   8.816  0.5933  0.0353 -1.3454
  151DOPC   H6S18056   8.040   8.448   8.737 -0.4904  0.0280 -1.3115
  151DOPC   C2718057   7.835   8.394   8.743  0.4451  0.4576  0.0931
  151DOPC   H7R18058   7.796   8.498   8.758 -0.8271  0.0553 -0.2893
  151DOPC   H7S18059   7.766   8.333   8.805 -0.0485 -0.0774 -0.9506
  151DOPC   C2818060   7.829   8.348   8.596  0.8581 -0.3375  0.1880
  151DOPC   H8R18061   7.890   8.413   8.530 -0.0495 -0.3093 -0.6605
  151DOPC   H8S18062   7.725   8.363   8.558  1.1464 -0.9035 -0.8642
  151DOPC   C2918063   7.865   8.204   8.594  0.0594  0.5622 -0.0452
  151DOPC   H9R18064   7.821   8.137   8.669 -0.0913  0.9629  0.2331
  151DOPC  C21018065   7.957   8.160   8.501 -0.4457 -0.1448 -0.0121
  151DOPC  H10R18066   7.994   8.057   8.508  0.3133  0.1326  0.1103
  151DOPC  C21118067   8.027   8.231   8.386 -0.1091  0.2793  0.2070
  151DOPC  H11R18068   8.016   8.342   8.392 -0.9724  0.1814  0.5651
  151DOPC  H11S18069   7.991   8.203   8.285  1.5014  2.1293 -0.9716
  151DOPC  C21218070   8.188   8.212   8.378 -1.1295 -0.3979 -0.2550
  151DOPC  H12R18071   8.212   8.108   8.346  0.7436 -1.1248  3.0144
  151DOPC  H12S18072   8.226   8.230   8.481  2.3044 -0.4167 -1.3908
  151DOPC  C21318073   8.263   8.326   8.302 -0.0304 -0.2524  0.4385
  151DOPC  H13R18074   8.365   8.318   8.345 -0.4131 -0.7562  1.2668
  151DOPC  H13S18075   8.229   8.426   8.336 -0.2135  0.1820 -0.9358
  151DOPC  C21418076   8.261   8.331   8.145  1.0729  1.2368 -0.1382
  151DOPC  H14R18077   8.320   8.250   8.098 -0.9204  0.3200 -1.1783
  151DOPC  H14S18078   8.310   8.428   8.123  0.5126  1.8652  1.2730
  151DOPC  C21518079   8.117   8.318   8.073  0.0899 -0.6111  0.4674
  151DOPC  H15R18080   8.052   8.400   8.109  1.5754  0.4042  0.9115
  151DOPC  H15S18081   8.069   8.222   8.104 -1.6498  0.0598 -0.0254
  151DOPC  C21618082   8.132   8.309   7.918  0.2655 -0.0440  0.8701
  151DOPC  H16R18083   8.181   8.402   7.881  0.0303  0.2189  1.2100
  151DOPC  H16S18084   8.034   8.293   7.869  1.1504 -2.5300 -0.2633
  151DOPC  C21718085   8.217   8.191   7.857  0.0771 -0.4618 -0.1163
  151DOPC  H17R18086   8.169   8.091   7.868 -1.8467  0.4701  0.4669
  151DOPC  H17S18087   8.316   8.200   7.906 -0.4075 -1.5424  1.1328
  151DOPC  C21818088   8.244   8.227   7.713  0.2797  0.4902 -0.0899
  151DOPC  H18R18089   8.157   8.210   7.646  0.2235 -0.7104  0.2650
  151DOPC  H18S18090   8.330   8.158   7.697 -0.4746 -0.5124  0.0498
  151DOPC  H18T18091   8.276   8.330   7.689 -1.6092  1.4412  1.2155
  151DOPC   C3318092   8.848   9.079   8.567 -0.2474 -0.0511 -0.1785
  151DOPC   H3X18093   8.754   9.138   8.559 -0.6319 -0.2047  2.4906
  151DOPC   H3Y18094   8.852   9.002   8.487  0.9561 -0.7199  0.5142
  151DOPC   C3418095   8.958   9.180   8.546 -0.7848 -0.9511  0.2777
  151DOPC   H4X18096   8.937   9.218   8.444 -0.9863  0.5403  0.8429
  151DOPC   H4Y18097   9.055   9.126   8.545 -1.5152 -2.2922 -0.1388
  151DOPC   C3518098   8.956   9.298   8.640  0.0947  0.1965  0.0853
  151DOPC   H5X18099   9.021   9.252   8.717  0.6150 -0.4112 -0.6989
  151DOPC   H5Y18100   8.859   9.315   8.691  0.8505 -0.8922  1.9850
  151DOPC   C3618101   9.010   9.431   8.583  0.0041  0.1471  0.3171
  151DOPC   H6X18102   9.044   9.492   8.669  2.2699  0.9709 -1.0765
  151DOPC   H6Y18103   9.097   9.419   8.516 -0.7720  0.6366 -0.8309
  151DOPC   C3718104   8.900   9.499   8.496  0.4890 -0.0576 -0.5091
  151DOPC   H7X18105   8.880   9.432   8.410  0.0553 -1.0133  0.3138
  151DOPC   H7Y18106   8.803   9.509   8.548  0.1036  0.0265 -1.2295
  151DOPC   C3818107   8.957   9.630   8.443  0.2590  1.5707  0.0785
  151DOPC   H8X18108   8.910   9.654   8.346 -3.0983  1.2936  1.4865
  151DOPC   H8Y18109   9.066   9.622   8.425  0.1059  2.7371 -1.5194
  151DOPC   C3918110   8.922   9.739   8.536  0.1846 -0.1613 -0.4003
  151DOPC   H9X18111   8.935   9.710   8.641  3.8310  2.7600  0.1836
  151DOPC  C31018112   8.847   9.841   8.504 -0.4734 -0.1284  0.0931
  151DOPC  H10X18113   8.834   9.913   8.586  2.5857 -0.0718  0.6353
  151DOPC  C31118114   8.805   9.894   8.368  0.3824  0.2252 -0.4047
  151DOPC  H11X18115   8.871   9.847   8.292 -2.6198 -2.6113 -1.4505
  151DOPC  H11Y18116   8.822  10.004   8.364 -0.9806  0.4248 -0.9955
  151DOPC  C31218117   8.654   9.877   8.343 -0.2499  0.2192 -0.4704
  151DOPC  H12X18118   8.591   9.916   8.425  1.3485 -0.4430  1.1342
  151DOPC  H12Y18119   8.633   9.769   8.352  0.5164  0.2452  2.7029
  151DOPC  C31318120   8.600   9.925   8.215 -0.4128 -0.1377  0.2969
  151DOPC  H13X18121   8.493   9.895   8.211 -0.3636 -0.4103  0.9175
  151DOPC  H13Y18122   8.607  10.035   8.220  0.8617 -0.2637  3.3597
  151DOPC  C31418123   8.681   9.885   8.087  0.5347 -0.3784 -0.1938
  151DOPC  H14X18124   8.750   9.805   8.122  0.1082  0.1833  2.1201
  151DOPC  H14Y18125   8.622   9.843   8.002  0.9685  0.6935 -1.0355
  151DOPC  C31518126   8.780   9.990   8.037 -0.5091  0.5442  0.0844
  151DOPC  H15X18127   8.818  10.047   8.124 -1.9224 -1.4560  2.1205
  151DOPC  H15Y18128   8.717  10.063   7.981  0.9765  2.2104  0.5196
  151DOPC  C31618129   8.887   9.934   7.942 -0.1544  0.0003  0.4395
  151DOPC  H16X18130   8.928  10.016   7.879  0.9592 -0.2296  0.8620
  151DOPC  H16Y18131   8.977   9.905   7.999  0.4288  2.7369  1.0159
  151DOPC  C31718132   8.834   9.830   7.845  0.0275  1.0027  0.0928
  151DOPC  H17X18133   8.807   9.739   7.903 -0.1396  1.6333  1.0259
  151DOPC  H17Y18134   8.755   9.873   7.780  0.8301 -0.2662 -1.8396
  151DOPC  C31818135   8.934   9.763   7.747 -0.4824  0.7878  0.4175
  151DOPC  H18X18136   8.884   9.685   7.685 -2.7707  1.5755  1.1923
  151DOPC  H18Y18137   8.978   9.841   7.681 -0.9783  2.2101  1.7403
  151DOPC  H18Z18138   9.014   9.714   7.807 -0.3993 -1.2765 -1.2262
  152DOPC     N18139   4.019   2.145   9.457 -0.1932  0.3736 -0.1685
  152DOPC   C1218140   3.878   2.097   9.499  0.4422  0.0678 -0.4737
  152DOPC  H12A18141   3.802   2.173   9.491 -2.4441 -2.3563  1.4501
  152DOPC  H12B18142   3.885   2.064   9.602 -0.5328 -1.0439 -0.7471
  152DOPC   C1318143   4.049   2.267   9.545 -0.5521 -0.0126  0.8127
  152DOPC  H13A18144   3.979   2.347   9.526  1.2843  1.0361 -2.3032
  152DOPC  H13B18145   4.046   2.241   9.650 -0.7907 -1.6503  0.4208
  152DOPC  H13C18146   4.145   2.310   9.519 -0.6303 -0.2675  0.0803
  152DOPC   C1418147   4.014   2.200   9.316  0.2558  0.4935  0.2146
  152DOPC  H14A18148   3.974   2.131   9.242 -2.3958 -0.4908  2.3766
  152DOPC  H14B18149   3.960   2.293   9.304 -0.8125 -0.3330 -2.0446
  152DOPC  H14C18150   4.116   2.227   9.297  0.7024 -0.1835  1.5487
  152DOPC   C1518151   4.121   2.042   9.481  0.2457  0.7676 -0.4193
  152DOPC  H15A18152   4.118   1.958   9.413 -1.8117 -1.4246  2.1731
  152DOPC  H15B18153   4.114   1.989   9.575 -0.4058  3.3735  1.1030
  152DOPC  H15C18154   4.218   2.090   9.474 -0.3665  1.9979 -0.7184
  152DOPC   C1118155   3.815   1.971   9.428  0.3760 -0.4559  0.3461
  152DOPC  H11A18156   3.883   1.884   9.416  0.5123 -0.2608 -0.3884
  152DOPC  H11B18157   3.730   1.918   9.476  0.2058 -2.4132 -1.9362
  152DOPC     P18158   3.625   2.072   9.295 -0.0611  0.2271  0.3299
  152DOPC   O1318159   3.615   2.179   9.193  0.1240 -0.1949  0.2855
  152DOPC   O1418160   3.575   2.106   9.431  0.1652 -0.2023 -0.1617
  152DOPC   O1218161   3.776   2.025   9.309  0.9188  0.0423 -0.2883
  152DOPC   O1118162   3.555   1.943   9.237  0.1465 -0.0947  0.6977
  152DOPC    C118163   3.605   1.812   9.220 -0.8034  0.2061  0.2656
  152DOPC    HA18164   3.516   1.753   9.191  1.5833 -1.5720 -4.4351
  152DOPC    HB18165   3.638   1.771   9.317  0.1438  1.4757  0.5151
  152DOPC    C218166   3.705   1.790   9.095  0.0465  0.4323 -0.1409
  152DOPC    HS18167   3.795   1.854   9.109  1.5910 -0.7697 -3.4761
  152DOPC   O2118168   3.641   1.837   8.973  0.4251 -0.4207  0.1259
  152DOPC   C2118169   3.719   1.913   8.899 -0.3352  0.5009 -0.1034
  152DOPC   O2218170   3.832   1.945   8.921  0.1863  0.1813 -0.2162
  152DOPC   C2218171   3.638   1.957   8.779  0.7190 -0.1534  0.0832
  152DOPC   H2R18172   3.663   2.065   8.770  1.2190 -0.0972  1.7633
  152DOPC   H2S18173   3.530   1.954   8.803  0.7126  0.5459  0.1718
  152DOPC    C318174   3.740   1.644   9.083  0.0782  0.3884  0.0509
  152DOPC    HX18175   3.645   1.587   9.071 -0.8807  1.8772  0.3938
  152DOPC    HY18176   3.791   1.619   9.179 -0.0882 -2.0490 -0.4200
  152DOPC   O3118177   3.813   1.604   8.967 -0.2015 -0.0107  0.1764
  152DOPC   C3118178   3.947   1.600   8.993 -0.4936  0.1810 -0.0986
  152DOPC   O3218179   3.998   1.621   9.100 -0.4128 -0.4692  0.7532
  152DOPC   C3218180   4.013   1.526   8.873 -0.6027 -0.8788  0.3218
  152DOPC   H2X18181   3.986   1.419   8.865  2.4656 -1.6951 -0.7610
  152DOPC   H2Y18182   3.967   1.573   8.783  0.1317 -0.3684  0.2039
  152DOPC   C2318183   3.669   1.871   8.657 -0.2202  0.4719  0.1012
  152DOPC   H3R18184   3.777   1.876   8.633 -0.4262  0.4635 -0.8564
  152DOPC   H3S18185   3.606   1.907   8.573  0.2678  0.4247 -0.2868
  152DOPC   C2418186   3.639   1.726   8.685 -0.0020  0.5530 -0.5084
  152DOPC   H4R18187   3.530   1.720   8.706 -0.1696  1.6924 -0.9753
  152DOPC   H4S18188   3.694   1.691   8.776  0.1713  0.1586 -0.7627
  152DOPC   C2518189   3.672   1.626   8.569 -0.0302 -0.8367 -0.8995
  152DOPC   H5R18190   3.687   1.529   8.621  0.0131  0.3140  1.3076
  152DOPC   H5S18191   3.770   1.642   8.519  0.9984  2.0881  1.7755
  152DOPC   C2618192   3.565   1.598   8.459 -0.5220 -0.0314 -0.2333
  152DOPC   H6R18193   3.625   1.566   8.371 -0.9094 -3.0448  0.4804
  152DOPC   H6S18194   3.509   1.691   8.437 -1.4281 -0.0886  1.6721
  152DOPC   C2718195   3.484   1.476   8.501  0.3447  0.5719 -0.6384
  152DOPC   H7R18196   3.443   1.506   8.600 -0.3450 -0.5809 -0.5590
  152DOPC   H7S18197   3.549   1.389   8.522  0.3701 -0.1383 -3.3009
  152DOPC   C2818198   3.368   1.424   8.424  0.1169 -0.1424  0.9099
  152DOPC   H8R18199   3.294   1.501   8.395  0.9537  0.3439 -0.0027
  152DOPC   H8S18200   3.317   1.366   8.504  2.2735 -0.7443  1.9120
  152DOPC   C2918201   3.419   1.346   8.307 -0.2699  0.3961 -0.0587
  152DOPC   H9R18202   3.456   1.400   8.219  0.0891 -1.7655 -1.3218
  152DOPC  C21018203   3.404   1.212   8.299  0.0834 -0.1460  0.0088
  152DOPC  H10R18204   3.437   1.168   8.204  0.8761  0.7246 -0.1376
  152DOPC  C21118205   3.332   1.119   8.395 -0.1920  0.4032  0.6024
  152DOPC  H11R18206   3.327   1.167   8.495  1.7211  0.5670  0.6472
  152DOPC  H11S18207   3.390   1.027   8.414  1.2847  1.2006  0.1782
  152DOPC  C21218208   3.193   1.084   8.344 -0.1638 -0.4860  0.0972
  152DOPC  H12R18209   3.207   0.995   8.279  0.9669 -0.2804  0.0463
  152DOPC  H12S18210   3.131   1.157   8.288 -1.6198 -2.3624 -0.8757
  152DOPC  C21318211   3.095   1.044   8.465  0.7381 -0.1669 -0.5831
  152DOPC  H13R18212   3.161   0.974   8.521 -1.5861 -3.7125 -1.9410
  152DOPC  H13S18213   3.018   0.976   8.422  1.2858 -0.4996 -1.0522
  152DOPC  C21418214   3.037   1.156   8.558  0.4748 -0.6788 -0.2098
  152DOPC  H14R18215   3.116   1.231   8.577  0.7288 -1.1135  0.4891
  152DOPC  H14S18216   3.000   1.121   8.657 -1.7875 -1.8386 -1.3769
  152DOPC  C21518217   2.909   1.203   8.495 -0.0307 -0.0703 -0.0660
  152DOPC  H15R18218   2.852   1.110   8.473 -0.1580  0.0606 -0.3043
  152DOPC  H15S18219   2.956   1.249   8.405 -0.0403 -1.4341 -0.7834
  152DOPC  C21618220   2.827   1.303   8.571  1.0753 -0.4152  0.4002
  152DOPC  H16R18221   2.887   1.393   8.595 -0.8266  1.0326 -0.0017
  152DOPC  H16S18222   2.805   1.254   8.668  2.0619 -0.7207  0.4765
  152DOPC  C21718223   2.717   1.358   8.480  0.1689 -0.2079  0.3090
  152DOPC  H17R18224   2.655   1.267   8.469  1.2088 -0.9606  0.5218
  152DOPC  H17S18225   2.751   1.392   8.380  0.3802 -0.5236  0.2709
  152DOPC  C21818226   2.641   1.469   8.551  0.3589 -0.7367 -0.0932
  152DOPC  H18R18227   2.561   1.499   8.480 -0.4113 -2.3780  0.0285
  152DOPC  H18S18228   2.707   1.557   8.567 -0.1000  0.1904 -2.7679
  152DOPC  H18T18229   2.595   1.432   8.645 -1.4971  0.5385 -0.4449
  152DOPC   C3318230   4.169   1.554   8.871 -0.0732 -0.2999  0.0912
  152DOPC   H3X18231   4.214   1.511   8.963 -0.8279  0.9904  1.1115
  152DOPC   H3Y18232   4.193   1.662   8.861 -0.8746 -0.0263  0.9069
  152DOPC   C3418233   4.242   1.495   8.744  0.0693 -0.6263 -0.2231
  152DOPC   H4X18234   4.201   1.527   8.645  1.7206 -2.9984 -1.7926
  152DOPC   H4Y18235   4.232   1.384   8.737  1.1938 -0.7910  0.6686
  152DOPC   C3518236   4.398   1.514   8.738  0.9994 -0.2759 -0.1431
  152DOPC   H5X18237   4.446   1.460   8.823  0.7086  0.4153  0.4744
  152DOPC   H5Y18238   4.423   1.619   8.764 -1.2257 -0.2090  2.1126
  152DOPC   C3618239   4.468   1.476   8.615 -0.1199 -0.2659 -0.8303
  152DOPC   H6X18240   4.432   1.376   8.584  1.3565 -0.8875 -0.5912
  152DOPC   H6Y18241   4.441   1.540   8.528 -2.2390 -1.2656 -0.9865
  152DOPC   C3718242   4.625   1.470   8.626  0.8657  0.3538  0.4863
  152DOPC   H7X18243   4.662   1.479   8.522  1.2154 -0.1400  0.5620
  152DOPC   H7Y18244   4.659   1.563   8.675  1.0710  0.5969 -0.1206
  152DOPC   C3818245   4.670   1.345   8.697 -0.2764  0.7814  0.2973
  152DOPC   H8X18246   4.636   1.255   8.641 -1.4286 -0.9694  3.5524
  152DOPC   H8Y18247   4.625   1.342   8.798  0.7804  1.1156  0.7939
  152DOPC   C3918248   4.818   1.338   8.710  0.7440  0.2907  0.6888
  152DOPC   H9X18249   4.847   1.393   8.801 -3.3054  1.4133  1.5149
  152DOPC  C31018250   4.891   1.282   8.612  0.2850 -0.2880  0.1776
  152DOPC  H10X18251   5.000   1.290   8.623  0.1909 -0.2091  1.1629
  152DOPC  C31118252   4.842   1.222   8.484  0.7725  0.3363 -0.7819
  152DOPC  H11X18253   4.739   1.241   8.447  0.2971 -1.9724 -0.8154
  152DOPC  H11Y18254   4.854   1.112   8.491 -1.2663  0.1242  0.1419
  152DOPC  C31218255   4.928   1.273   8.364 -0.2597  0.3406 -0.6251
  152DOPC  H12X18256   5.032   1.249   8.393 -0.1777  0.8387 -0.5120
  152DOPC  H12Y18257   4.912   1.382   8.351 -2.7256 -0.0116 -1.0254
  152DOPC  C31318258   4.898   1.212   8.226  0.0245  0.2701 -0.4059
  152DOPC  H13X18259   4.872   1.105   8.240 -2.0818  0.8075  0.2260
  152DOPC  H13Y18260   4.804   1.258   8.187 -0.8725 -1.1813 -0.0185
  152DOPC  C31418261   5.002   1.245   8.118 -0.6635  0.4847  0.0905
  152DOPC  H14X18262   5.019   1.355   8.126  1.0479  0.2148  0.5065
  152DOPC  H14Y18263   5.099   1.195   8.139 -0.1600  1.7699  1.0155
  152DOPC  C31518264   4.957   1.216   7.973 -0.5060  0.0977  0.0723
  152DOPC  H15X18265   4.854   1.252   7.955 -0.8210 -0.3660  0.9052
  152DOPC  H15Y18266   4.951   1.105   7.968  0.3194  0.0696 -0.6280
  152DOPC  C31618267   5.052   1.274   7.874  0.0339  0.7129  0.2402
  152DOPC  H16X18268   4.993   1.279   7.780  0.0416  1.1674  0.2612
  152DOPC  H16Y18269   5.073   1.379   7.901  1.4909  0.5506 -0.1612
  152DOPC  C31718270   5.193   1.206   7.854  0.1108  0.2481 -0.3300
  152DOPC  H17X18271   5.239   1.219   7.954 -2.6985  0.7149  1.0154
  152DOPC  H17Y18272   5.186   1.100   7.819 -1.7191  0.3207 -0.2703
  152DOPC  C31818273   5.271   1.285   7.752  0.1768 -0.3951  0.7683
  152DOPC  H18X18274   5.247   1.392   7.765 -2.5151 -0.8110 -0.1808
  152DOPC  H18Y18275   5.380   1.290   7.772  0.2971  0.5514 -0.0815
  152DOPC  H18Z18276   5.257   1.248   7.648  0.1865 -3.5571  1.7817
  153DOPC     N18277   8.139   8.406   9.615 -0.7934  0.6708 -0.5639
  153DOPC   C1218278   8.053   8.430   9.492  0.3431  0.2400 -0.1766
  153DOPC  H12A18279   7.969   8.480   9.538  0.2853  0.2451 -0.2845
  153DOPC  H12B18280   8.025   8.335   9.448  1.6995 -0.0557 -0.4427
  153DOPC   C1318281   8.104   8.286   9.701 -0.2011 -0.2119 -0.1240
  153DOPC  H13A18282   8.116   8.193   9.646  1.0445  0.5221 -1.1507
  153DOPC  H13B18283   8.183   8.282   9.775  0.6515  2.8081 -0.7566
  153DOPC  H13C18284   8.007   8.285   9.748  0.2584  0.1047  0.8495
  153DOPC   C1418285   8.131   8.527   9.708 -0.7829  0.1964  0.3832
  153DOPC  H14A18286   8.030   8.554   9.734 -0.8979 -0.6843  0.8902
  153DOPC  H14B18287   8.186   8.521   9.801  0.1755 -0.2544 -0.2010
  153DOPC  H14C18288   8.182   8.606   9.654  0.6235 -1.3871 -0.7241
  153DOPC   C1518289   8.280   8.376   9.562 -0.0512 -0.5794 -0.1467
  153DOPC  H15A18290   8.279   8.307   9.479 -0.8661 -2.3478  1.2685
  153DOPC  H15B18291   8.344   8.339   9.641 -1.0827 -2.0330  0.0447
  153DOPC  H15C18292   8.326   8.468   9.530 -0.1791  0.1459  1.6255
  153DOPC   C1118293   8.101   8.519   9.379 -0.1950  0.6310  0.5980
  153DOPC  H11A18294   8.191   8.477   9.329  0.1771  2.0921 -0.0129
  153DOPC  H11B18295   8.033   8.517   9.291  1.7082  2.1639 -1.0051
  153DOPC     P18296   8.014   8.753   9.439 -0.2917  0.0800 -0.0165
  153DOPC   O1318297   8.038   8.828   9.569  0.1059  0.1833 -0.4294
  153DOPC   O1418298   7.890   8.683   9.425  0.2764  0.3328  0.7303
  153DOPC   O1218299   8.136   8.655   9.413  0.2081  0.3423 -0.3251
  153DOPC   O1118300   8.038   8.862   9.330  0.1188  0.5042  0.1598
  153DOPC    C118301   8.001   8.859   9.193  0.2822  0.3884 -0.3568
  153DOPC    HA18302   8.016   8.755   9.156  2.3289 -0.3213  2.1994
  153DOPC    HB18303   8.080   8.924   9.149 -0.2150  1.0552 -0.2901
  153DOPC    C218304   7.863   8.920   9.159  0.5130 -0.2477 -0.7167
  153DOPC    HS18305   7.801   8.937   9.250 -1.1839  1.6763 -2.1398
  153DOPC   O2118306   7.792   8.817   9.087  0.1239 -0.2136 -0.0672
  153DOPC   C2118307   7.663   8.834   9.067 -0.1138  0.3567  0.6221
  153DOPC   O2218308   7.593   8.928   9.095  0.0923 -0.4963 -1.1069
  153DOPC   C2218309   7.620   8.715   8.981  0.2377 -0.6233 -0.5383
  153DOPC   H2R18310   7.568   8.639   9.044  0.5497 -1.3662 -1.1643
  153DOPC   H2S18311   7.711   8.672   8.934  1.2829 -0.3136  1.1187
  153DOPC    C318312   7.883   9.055   9.088 -0.4180  0.0317  0.1107
  153DOPC    HX18313   7.947   9.109   9.160 -0.5155  0.1719  0.0909
  153DOPC    HY18314   7.784   9.106   9.083 -1.1846 -1.3671  0.3796
  153DOPC   O3118315   7.949   9.040   8.956 -0.0826 -0.7199  0.3005
  153DOPC   C3118316   7.903   9.112   8.850 -0.2595 -0.1965  0.3422
  153DOPC   O3218317   7.808   9.189   8.851  0.0868  0.7009  0.4920
  153DOPC   C3218318   8.012   9.106   8.742 -0.3299 -0.7435  0.6601
  153DOPC   H2X18319   7.992   9.169   8.653  0.6739 -0.9080  0.3089
  153DOPC   H2Y18320   8.106   9.138   8.792  0.0688 -0.3243 -0.3273
  153DOPC   C2318321   7.529   8.764   8.862 -0.2034 -0.2343 -0.2845
  153DOPC   H3R18322   7.447   8.831   8.896  0.4662  0.1155  0.6816
  153DOPC   H3S18323   7.482   8.673   8.817  2.2559 -1.1394 -1.1820
  153DOPC   C2418324   7.606   8.832   8.747  0.3709 -0.4167  0.5773
  153DOPC   H4R18325   7.681   8.756   8.720 -0.9738 -2.3517  2.0021
  153DOPC   H4S18326   7.661   8.917   8.793  1.9623 -1.8592  1.4598
  153DOPC   C2518327   7.529   8.878   8.618 -0.2280  0.0971 -0.4099
  153DOPC   H5R18328   7.588   8.938   8.546  0.0997 -1.7431 -1.7610
  153DOPC   H5S18329   7.444   8.935   8.661  1.0379  0.0691  2.3589
  153DOPC   C2618330   7.470   8.757   8.544 -0.3130 -0.1378  0.6107
  153DOPC   H6R18331   7.382   8.727   8.606 -0.2687  2.0991  1.8632
  153DOPC   H6S18332   7.537   8.669   8.534  1.0963  1.0092 -0.5740
  153DOPC   C2718333   7.421   8.795   8.403 -0.5092 -0.3468  0.1983
  153DOPC   H7R18334   7.514   8.808   8.344  1.4732 -1.6075  2.8433
  153DOPC   H7S18335   7.363   8.889   8.401 -1.5679 -0.9865 -0.3256
  153DOPC   C2818336   7.349   8.684   8.332 -0.7864 -0.3371 -0.0122
  153DOPC   H8R18337   7.260   8.652   8.390 -1.5403 -0.8601 -1.3998
  153DOPC   H8S18338   7.413   8.594   8.329  1.3566  1.1268 -0.8931
  153DOPC   C2918339   7.321   8.730   8.190  0.0988  0.2269 -1.6288
  153DOPC   H9R18340   7.410   8.745   8.128  1.6816  1.1277  0.7120
  153DOPC  C21018341   7.202   8.761   8.135  0.3073  0.7886 -0.1095
  153DOPC  H10R18342   7.199   8.781   8.027 -1.3400 -0.1347 -0.2775
  153DOPC  C21118343   7.069   8.752   8.199 -0.2518 -0.2137 -0.5396
  153DOPC  H11R18344   7.046   8.853   8.240  2.3767  0.6970 -1.0969
  153DOPC  H11S18345   7.084   8.678   8.280 -0.0859  0.9063  0.4904
  153DOPC  C21218346   6.965   8.709   8.091 -0.6554  0.1080 -0.4061
  153DOPC  H12R18347   7.015   8.634   8.026 -0.9888 -0.8085  0.3581
  153DOPC  H12S18348   6.956   8.808   8.042 -0.6996  0.3963  0.1750
  153DOPC  C21318349   6.834   8.659   8.140  0.4295  0.5334 -0.0114
  153DOPC  H13R18350   6.781   8.745   8.186  1.5097  1.5404 -0.6197
  153DOPC  H13S18351   6.850   8.583   8.220  1.0311  2.4131  1.7556
  153DOPC  C21418352   6.734   8.613   8.037  0.2547  0.2799 -0.5293
  153DOPC  H14R18353   6.770   8.527   7.976 -0.1709  0.7659 -1.5006
  153DOPC  H14S18354   6.713   8.698   7.968 -0.0630  0.7749  0.1744
  153DOPC  C21518355   6.596   8.578   8.090 -0.0592 -0.3590 -0.7765
  153DOPC  H15R18356   6.554   8.663   8.147  2.5020 -0.9099  2.2553
  153DOPC  H15S18357   6.602   8.489   8.156  0.6985 -0.3125 -0.7682
  153DOPC  C21618358   6.491   8.545   7.985 -0.0195 -0.3195 -0.0482
  153DOPC  H16R18359   6.393   8.528   8.035 -0.5666 -0.6023 -1.1954
  153DOPC  H16S18360   6.510   8.441   7.950 -1.1213 -1.1655  1.6604
  153DOPC  C21718361   6.475   8.642   7.868  0.0374  0.1813  0.1837
  153DOPC  H17R18362   6.574   8.638   7.819 -0.4122  1.4054 -0.8897
  153DOPC  H17S18363   6.458   8.744   7.910 -0.3651  0.0962  0.2294
  153DOPC  C21818364   6.374   8.599   7.759 -0.1304  0.1261  0.6674
  153DOPC  H18R18365   6.388   8.494   7.723  1.6866 -0.1567  2.0588
  153DOPC  H18S18366   6.383   8.675   7.679 -1.4507  0.5646  0.9120
  153DOPC  H18T18367   6.272   8.602   7.804  0.5209  1.9649  2.0988
  153DOPC   C3318368   8.054   8.965   8.688  0.4018 -0.2303 -0.6868
  153DOPC   H3X18369   8.055   8.896   8.776  0.3530  2.1558  1.3018
  153DOPC   H3Y18370   8.159   8.968   8.653  0.7985 -0.8241  0.3929
  153DOPC   C3418371   7.948   8.937   8.586  0.0219 -0.4002 -0.9572
  153DOPC   H4X18372   7.958   9.012   8.505  1.1538 -0.4428 -0.8605
  153DOPC   H4Y18373   7.843   8.950   8.620 -0.9752 -0.5413 -3.7113
  153DOPC   C3518374   7.968   8.802   8.523 -0.2848 -0.1015  0.0884
  153DOPC   H5X18375   7.977   8.729   8.606  3.3475  1.9729  1.7726
  153DOPC   H5Y18376   8.063   8.810   8.467 -0.3662  0.0734 -0.0257
  153DOPC   C3618377   7.855   8.764   8.429 -0.1526 -0.2334 -0.0938
  153DOPC   H6X18378   7.760   8.740   8.481 -0.2215  2.2631  1.0553
  153DOPC   H6Y18379   7.835   8.849   8.361 -1.8142 -0.8717 -0.4485
  153DOPC   C3718380   7.893   8.644   8.337  0.2013 -0.0124  0.3325
  153DOPC   H7X18381   7.975   8.678   8.269 -1.5359 -1.6836 -2.8441
  153DOPC   H7Y18382   7.935   8.562   8.399  1.1094 -1.4523 -2.0282
  153DOPC   C3818383   7.776   8.589   8.252  0.1760 -0.2687 -0.1692
  153DOPC   H8X18384   7.693   8.566   8.321 -1.0538  0.5910 -1.3029
  153DOPC   H8Y18385   7.808   8.490   8.213 -1.1452 -0.7556 -0.0551
  153DOPC   C3918386   7.745   8.695   8.145  0.2298 -0.2952 -0.2762
  153DOPC   H9X18387   7.716   8.789   8.195 -0.4887 -0.5095 -0.2704
  153DOPC  C31018388   7.747   8.683   8.013 -0.3031  0.1821  0.8437
  153DOPC  H10X18389   7.729   8.777   7.959 -1.1963  0.6835  1.9764
  153DOPC  C31118390   7.771   8.557   7.936 -1.0818 -0.3353 -0.1782
  153DOPC  H11X18391   7.813   8.479   8.003  0.2250 -0.6942 -1.3553
  153DOPC  H11Y18392   7.847   8.569   7.856 -0.9153  0.7591  0.1275
  153DOPC  C31218393   7.651   8.499   7.867 -0.0616  0.1872 -0.5526
  153DOPC  H12X18394   7.611   8.579   7.801 -1.1651  0.5264  0.4950
  153DOPC  H12Y18395   7.563   8.492   7.934  1.3908 -1.8876  1.2877
  153DOPC  C31318396   7.681   8.371   7.791  0.3758  0.7289 -0.0912
  153DOPC  H13X18397   7.718   8.292   7.859 -1.4298 -0.3666 -0.3171
  153DOPC  H13Y18398   7.579   8.339   7.760  0.1911  0.8434  0.3841
  153DOPC  C31418399   7.757   8.380   7.663  0.1182  0.3550 -0.5329
  153DOPC  H14X18400   7.760   8.486   7.628  1.0044  0.9372  1.2169
  153DOPC  H14Y18401   7.866   8.373   7.680  0.4378  2.2962 -1.4346
  153DOPC  C31518402   7.719   8.288   7.549 -0.1716  0.0643 -0.4451
  153DOPC  H15X18403   7.709   8.183   7.585  1.9791 -0.0414 -0.0312
  153DOPC  H15Y18404   7.804   8.290   7.477  0.8418  0.2052  0.7137
  153DOPC  C31618405   7.595   8.326   7.468 -0.0269 -0.6211  0.9290
  153DOPC  H16X18406   7.504   8.324   7.532 -0.4340  2.4248  0.5951
  153DOPC  H16Y18407   7.627   8.426   7.432  3.6362 -1.6522  0.8481
  153DOPC  C31718408   7.573   8.245   7.339  1.1029  0.0569 -0.1484
  153DOPC  H17X18409   7.657   8.262   7.268  1.0097  2.0110  0.1443
  153DOPC  H17Y18410   7.587   8.139   7.369  2.2298  0.4901  0.9056
  153DOPC  C31818411   7.439   8.282   7.271 -0.1607  0.1143  0.1526
  153DOPC  H18X18412   7.354   8.257   7.338  1.0363 -1.2635  1.2282
  153DOPC  H18Y18413   7.437   8.389   7.242 -1.1172  0.3329  0.9969
  153DOPC  H18Z18414   7.430   8.216   7.182 -0.0796  1.6189 -1.0005
  154DOPC     N18415   8.659   4.586   9.541 -0.0102 -0.0902 -0.1448
  154DOPC   C1218416   8.681   4.680   9.424  0.7466  0.4332 -0.1441
  154DOPC  H12A18417   8.583   4.723   9.411 -0.6530 -2.2500  0.7105
  154DOPC  H12B18418   8.703   4.622   9.336 -1.9949 -1.1110  0.0542
  154DOPC   C1318419   8.604   4.649   9.661 -0.1911  0.4560  0.1960
  154DOPC  H13A18420   8.667   4.734   9.685 -0.3763 -0.1356  3.0591
  154DOPC  H13B18421   8.505   4.680   9.632  0.0127  0.0363 -1.0247
  154DOPC  H13C18422   8.607   4.578   9.742  0.7000 -0.5875 -0.7182
  154DOPC   C1418423   8.795   4.530   9.579  0.0451 -0.0878 -0.0087
  154DOPC  H14A18424   8.785   4.468   9.667 -2.3515  0.7582  0.4079
  154DOPC  H14B18425   8.834   4.468   9.500 -1.0797 -2.2782  1.0674
  154DOPC  H14C18426   8.864   4.611   9.602  0.0211  0.1497 -0.7673
  154DOPC   C1518427   8.583   4.460   9.490  0.1449 -0.0602 -0.4424
  154DOPC  H15A18428   8.646   4.421   9.412  0.8875 -0.6957  0.4553
  154DOPC  H15B18429   8.485   4.482   9.451  0.7185  1.3092 -1.1880
  154DOPC  H15C18430   8.581   4.380   9.563  0.9313 -0.2836 -0.6551
  154DOPC   C1118431   8.791   4.785   9.440  0.0784 -0.4875 -0.1840
  154DOPC  H11A18432   8.890   4.735   9.451  0.6234  0.8846  1.6184
  154DOPC  H11B18433   8.788   4.838   9.342  0.9922 -1.3433 -0.6956
  154DOPC     P18434   8.862   4.911   9.652  0.1534  0.3419  0.3926
  154DOPC   O1318435   8.956   4.796   9.672 -0.1998  0.2604  0.1158
  154DOPC   O1418436   8.792   4.983   9.761  0.0233 -0.3005 -0.7844
  154DOPC   O1218437   8.753   4.873   9.549  0.7401  0.3221  0.4688
  154DOPC   O1118438   8.955   5.011   9.579 -0.4502 -0.1246 -0.0951
  154DOPC    C118439   8.915   5.142   9.545 -0.3673  0.0966 -0.2608
  154DOPC    HA18440   8.991   5.204   9.597  0.1924 -1.1745  0.4777
  154DOPC    HB18441   8.816   5.176   9.583  0.0084  0.9464 -0.0137
  154DOPC    C218442   8.919   5.161   9.394  0.0442  0.2360  0.3626
  154DOPC    HS18443   8.917   5.270   9.375  1.0119  0.0380 -0.9746
  154DOPC   O2118444   8.816   5.090   9.326 -0.1162 -0.2085 -0.9715
  154DOPC   C2118445   8.697   5.148   9.337 -0.1739 -0.3210  0.2221
  154DOPC   O2218446   8.681   5.256   9.391 -0.5299 -0.0321  0.3978
  154DOPC   C2218447   8.585   5.057   9.281 -0.7250  0.5648 -0.5881
  154DOPC   H2R18448   8.604   4.956   9.322  2.5796  1.7814  1.2301
  154DOPC   H2S18449   8.589   5.055   9.170  0.1051  1.4307 -0.5886
  154DOPC    C318450   9.050   5.120   9.332  0.8788  0.1907  0.0685
  154DOPC    HX18451   9.055   5.009   9.331 -0.9453  0.0679 -1.4682
  154DOPC    HY18452   9.129   5.161   9.398  0.5335  0.7513  0.1334
  154DOPC   O3118453   9.059   5.172   9.197  0.0201  0.6249 -0.9524
  154DOPC   C3118454   9.165   5.122   9.133  0.2717 -0.6029  0.4653
  154DOPC   O3218455   9.230   5.026   9.172  0.4412 -0.0621 -0.2519
  154DOPC   C3218456   9.186   5.202   8.999  0.2469  1.1536 -0.3799
  154DOPC   H2X18457   9.247   5.288   9.034 -1.0988  1.6471  0.8576
  154DOPC   H2Y18458   9.245   5.146   8.923 -1.5185  1.8980 -2.3746
  154DOPC   C2318459   8.441   5.104   9.327  0.0429  0.6113 -0.0008
  154DOPC   H3R18460   8.445   5.117   9.437 -0.9098 -2.2604  0.4684
  154DOPC   H3S18461   8.372   5.019   9.309 -0.0668  0.3751  1.4319
  154DOPC   C2418462   8.400   5.221   9.229 -0.4459  0.7665 -0.4936
  154DOPC   H4R18463   8.413   5.189   9.123 -1.0092 -0.7251 -0.1398
  154DOPC   H4S18464   8.456   5.313   9.258 -0.0181  0.3345  0.0780
  154DOPC   C2518465   8.252   5.232   9.250  0.1862  0.1427  0.0497
  154DOPC   H5R18466   8.221   5.249   9.356 -0.2413 -3.0598  0.5409
  154DOPC   H5S18467   8.202   5.136   9.223  0.2506 -0.5196  2.1060
  154DOPC   C2618468   8.183   5.341   9.168 -0.1597 -0.0190  0.1281
  154DOPC   H6R18469   8.215   5.335   9.062 -0.6838 -2.8704  0.0439
  154DOPC   H6S18470   8.218   5.440   9.204 -0.8824  0.0967  0.5440
  154DOPC   C2718471   8.030   5.334   9.166  0.6209 -0.8037  1.0882
  154DOPC   H7R18472   7.984   5.349   9.266 -3.4872  0.2093 -0.7214
  154DOPC   H7S18473   7.997   5.234   9.129 -0.6968 -0.3778  1.0654
  154DOPC   C2818474   7.965   5.449   9.085  0.4654  0.2294  0.7397
  154DOPC   H8R18475   7.998   5.534   9.148  3.1273 -0.2531  0.1119
  154DOPC   H8S18476   7.855   5.434   9.082  0.6426 -1.1645 -1.7920
  154DOPC   C2918477   8.011   5.473   8.937  0.6187 -1.2908 -0.7549
  154DOPC   H9R18478   8.119   5.457   8.928  1.1670  1.3122  0.3890
  154DOPC  C21018479   7.938   5.528   8.832 -0.2787  0.8363 -0.1646
  154DOPC  H10R18480   7.972   5.553   8.731  1.2953 -0.0980  0.0915
  154DOPC  C21118481   7.793   5.573   8.847 -0.5903 -0.5453 -0.1376
  154DOPC  H11R18482   7.733   5.499   8.905 -1.4993  0.5499  0.3537
  154DOPC  H11S18483   7.742   5.574   8.749 -0.6659  0.0671 -0.0961
  154DOPC  C21218484   7.766   5.709   8.915  0.4097 -0.1717  0.3393
  154DOPC  H12R18485   7.849   5.777   8.885  0.0218 -0.0703 -0.5522
  154DOPC  H12S18486   7.759   5.704   9.026 -0.8231 -0.4283  0.2687
  154DOPC  C21318487   7.637   5.772   8.864 -0.1337  0.6222 -0.5600
  154DOPC  H13R18488   7.557   5.696   8.874  0.4672  0.1783  1.2597
  154DOPC  H13S18489   7.646   5.803   8.758  1.8300  0.0924 -0.5815
  154DOPC  C21418490   7.600   5.898   8.934 -0.2092  0.3733  0.1477
  154DOPC  H14R18491   7.616   5.890   9.043  0.5296  2.4974  0.2456
  154DOPC  H14S18492   7.492   5.914   8.914 -0.5054 -0.8125  0.7012
  154DOPC  C21518493   7.671   6.013   8.873  0.0428  0.6540 -0.0008
  154DOPC  H15R18494   7.670   6.003   8.762 -1.5513 -0.5900  0.0997
  154DOPC  H15S18495   7.778   6.011   8.904  0.3684 -0.1273 -1.0979
  154DOPC  C21618496   7.613   6.149   8.900  0.6366 -0.3946 -0.4117
  154DOPC  H16R18497   7.629   6.174   9.007 -0.2779 -0.9932 -0.1200
  154DOPC  H16S18498   7.506   6.138   8.873  0.8655  0.6159 -1.8872
  154DOPC  C21718499   7.665   6.259   8.815  0.2551 -0.2328  0.1713
  154DOPC  H17R18500   7.639   6.242   8.708  1.4860  0.6862 -0.2852
  154DOPC  H17S18501   7.775   6.258   8.827  0.4240  1.8020 -0.8594
  154DOPC  C21818502   7.609   6.398   8.840 -0.1608 -0.7011  0.1491
  154DOPC  H18R18503   7.508   6.409   8.794  0.1343  1.5069 -0.0970
  154DOPC  H18S18504   7.677   6.471   8.792 -1.2965 -0.2992 -0.8922
  154DOPC  H18T18505   7.605   6.418   8.950  2.0375 -1.0897  0.3392
  154DOPC   C3318506   9.063   5.259   8.923  0.7695 -0.1090  0.2087
  154DOPC   H3X18507   9.004   5.303   9.007  0.8189 -0.3183  0.3544
  154DOPC   H3Y18508   9.012   5.174   8.872  0.4291  0.5294 -0.5430
  154DOPC   C3418509   9.096   5.363   8.814 -0.4937 -0.1556 -0.6042
  154DOPC   H4X18510   9.161   5.319   8.735  1.3308 -0.4525  0.9869
  154DOPC   H4Y18511   9.147   5.451   8.859 -2.2169  0.3842  0.3715
  154DOPC   C3518512   8.977   5.424   8.742 -0.0336  0.2528 -0.1067
  154DOPC   H5X18513   8.903   5.455   8.819  0.9776  1.4441  0.4327
  154DOPC   H5Y18514   8.927   5.344   8.684  2.4058  0.9748 -3.4881
  154DOPC   C3618515   9.009   5.552   8.673  0.5658  0.3300 -0.6580
  154DOPC   H6X18516   9.022   5.631   8.750 -1.4365  0.5404 -0.4598
  154DOPC   H6Y18517   9.099   5.548   8.608  2.5692  4.2624  1.5120
  154DOPC   C3718518   8.898   5.599   8.576 -0.4189 -0.5456 -0.5234
  154DOPC   H7X18519   8.801   5.602   8.630 -0.9083  1.2267 -1.4310
  154DOPC   H7Y18520   8.927   5.701   8.543 -0.6712 -0.2891  0.0343
  154DOPC   C3818521   8.872   5.514   8.445  0.4551  0.1235 -0.2058
  154DOPC   H8X18522   8.881   5.404   8.464 -0.8264 -0.1983 -1.2927
  154DOPC   H8Y18523   8.954   5.545   8.378  1.0179 -1.3261 -0.2397
  154DOPC   C3918524   8.734   5.538   8.380 -0.8324 -0.1088  0.1411
  154DOPC   H9X18525   8.649   5.494   8.435 -0.1056 -0.2374  1.1934
  154DOPC  C31018526   8.719   5.593   8.259 -0.2707  0.3560 -0.3891
  154DOPC  H10X18527   8.620   5.588   8.211 -0.4739 -1.8112  0.1490
  154DOPC  C31118528   8.825   5.657   8.177 -0.5943  0.0714  0.4553
  154DOPC  H11X18529   8.855   5.583   8.099 -0.0581  0.1199  0.6140
  154DOPC  H11Y18530   8.925   5.678   8.219 -1.7276  2.5148  2.1064
  154DOPC  C31218531   8.773   5.774   8.092  0.3918 -0.7885  0.1716
  154DOPC  H12X18532   8.677   5.757   8.038  0.5914  0.1011 -0.4855
  154DOPC  H12Y18533   8.850   5.798   8.016 -0.5011  0.9548 -0.2247
  154DOPC  C31318534   8.771   5.910   8.172 -0.3969 -0.2316  0.4289
  154DOPC  H13X18535   8.709   5.884   8.261  0.8415 -0.7269  1.1662
  154DOPC  H13Y18536   8.864   5.942   8.223 -0.7824  1.6306  0.0253
  154DOPC  C31418537   8.727   6.033   8.089  0.4730 -0.2458  0.2187
  154DOPC  H14X18538   8.807   6.052   8.015 -0.1676 -0.4893 -0.5562
  154DOPC  H14Y18539   8.633   6.016   8.032  0.2701 -0.9061  0.7396
  154DOPC  C31518540   8.709   6.166   8.162 -0.4887  0.4120 -0.4543
  154DOPC  H15X18541   8.811   6.183   8.201  0.6194 -0.8733 -2.6091
  154DOPC  H15Y18542   8.644   6.151   8.251  0.1255  2.1490  0.3289
  154DOPC  C31618543   8.644   6.279   8.078 -0.4467  0.8083  0.1202
  154DOPC  H16X18544   8.735   6.334   8.044  0.2643 -0.1886  0.3574
  154DOPC  H16Y18545   8.580   6.233   8.001  1.5398 -2.2333  0.0980
  154DOPC  C31718546   8.572   6.367   8.180  0.1407  0.1351 -0.0325
  154DOPC  H17X18547   8.537   6.458   8.127  0.3189  0.6522  0.7236
  154DOPC  H17Y18548   8.478   6.313   8.204 -0.5794  0.7184 -1.3975
  154DOPC  C31818549   8.644   6.419   8.300 -0.6672  0.3468  0.6688
  154DOPC  H18X18550   8.743   6.456   8.267 -1.0312 -1.4249 -2.8846
  154DOPC  H18Y18551   8.589   6.507   8.340 -1.0649  1.1294 -1.4670
  154DOPC  H18Z18552   8.658   6.347   8.383  1.7678  1.9377  1.7290
  155DOPC     N18553   2.714   1.487   9.452  0.6379 -0.1324 -0.5325
  155DOPC   C1218554   2.763   1.525   9.314 -0.1938 -0.2094 -0.8194
  155DOPC  H12A18555   2.688   1.558   9.243 -1.2922  3.4742  1.7059
  155DOPC  H12B18556   2.809   1.436   9.276  1.7993 -0.0412  1.0161
  155DOPC   C1318557   2.832   1.469   9.543 -0.0101 -0.0188  0.2847
  155DOPC  H13A18558   2.807   1.473   9.649  1.6496  0.8364  0.6742
  155DOPC  H13B18559   2.878   1.375   9.517  0.5466  0.2579  0.2547
  155DOPC  H13C18560   2.904   1.548   9.530 -0.8787  0.5737 -1.1161
  155DOPC   C1418561   2.640   1.354   9.455  0.0427  0.1559 -0.0533
  155DOPC  H14A18562   2.566   1.351   9.376  0.0624 -2.3286 -0.0782
  155DOPC  H14B18563   2.720   1.283   9.439 -0.6292 -1.3909  2.7849
  155DOPC  H14C18564   2.591   1.330   9.547 -1.1122 -1.1617 -0.9661
  155DOPC   C1518565   2.620   1.589   9.506 -0.6315 -0.1597 -0.3386
  155DOPC  H15A18566   2.685   1.675   9.517 -0.8690  0.0805 -0.7932
  155DOPC  H15B18567   2.576   1.561   9.601  2.3383 -1.3190  0.8348
  155DOPC  H15C18568   2.536   1.612   9.442 -1.1872  0.6433  0.6441
  155DOPC   C1118569   2.872   1.635   9.306  0.1114 -0.4980 -0.6492
  155DOPC  H11A18570   2.878   1.669   9.201  1.7073 -1.0578 -0.7699
  155DOPC  H11B18571   2.827   1.724   9.355 -0.3593  0.4539 -2.7073
  155DOPC     P18572   3.108   1.698   9.411  0.2481  0.1403  0.0638
  155DOPC   O1318573   3.238   1.635   9.429 -0.3464  0.5379 -0.5918
  155DOPC   O1418574   3.036   1.743   9.533 -0.1340 -0.0097  0.2030
  155DOPC   O1218575   3.003   1.591   9.348  0.3062  0.0857 -0.0429
  155DOPC   O1118576   3.116   1.819   9.314 -0.3105 -0.0808 -0.2591
  155DOPC    C118577   3.238   1.843   9.246  0.4997 -0.7571 -0.4329
  155DOPC    HA18578   3.285   1.752   9.204  2.2590 -1.0182  1.9389
  155DOPC    HB18579   3.314   1.887   9.314  0.4081 -1.6074  0.2308
  155DOPC    C218580   3.206   1.954   9.144 -0.0441 -0.4921  1.0759
  155DOPC    HS18581   3.193   2.056   9.186  1.2512  0.4515 -0.6824
  155DOPC   O2118582   3.088   1.908   9.074  0.0021  0.2912  0.5416
  155DOPC   C2118583   2.992   2.000   9.067 -0.5244  0.1392  0.0083
  155DOPC   O2218584   3.002   2.116   9.102 -0.3486 -0.3816  0.0329
  155DOPC   C2218585   2.859   1.936   9.024  0.1400  0.0299  0.3543
  155DOPC   H2R18586   2.816   1.897   9.119  2.3667 -0.5687  1.1801
  155DOPC   H2S18587   2.881   1.842   8.968  0.9084  0.5977 -0.3132
  155DOPC    C318588   3.317   1.970   9.028 -0.0412  0.0817  0.2041
  155DOPC    HX18589   3.349   1.866   9.003  1.6880  0.8496 -0.9133
  155DOPC    HY18590   3.400   2.032   9.068 -0.4028  0.0782  0.9868
  155DOPC   O3118591   3.266   2.029   8.906  0.5664 -0.4359 -0.1687
  155DOPC   C3118592   3.267   2.162   8.910 -0.5937 -0.0976 -0.4613
  155DOPC   O3218593   3.309   2.235   8.997  0.3188 -0.3472  0.1275
  155DOPC   C3218594   3.215   2.207   8.774 -0.1289  0.3555  0.1864
  155DOPC   H2X18595   3.285   2.175   8.694 -1.0192 -1.6993  0.1759
  155DOPC   H2Y18596   3.134   2.134   8.759 -0.6744  0.4517  2.3431
  155DOPC   C2318597   2.765   2.042   8.954 -0.4087 -0.0276 -0.3588
  155DOPC   H3R18598   2.786   2.145   8.991 -1.1262 -0.1780  0.5014
  155DOPC   H3S18599   2.661   2.016   8.980 -0.1436 -0.9746 -0.1919
  155DOPC   C2418600   2.786   2.059   8.806  0.5501 -0.2175 -0.4828
  155DOPC   H4R18601   2.891   2.093   8.788  0.0008 -0.1684 -4.3775
  155DOPC   H4S18602   2.725   2.144   8.768  0.1907 -0.1666  0.1925
  155DOPC   C2518603   2.759   1.938   8.717 -0.0177  0.1761  0.5712
  155DOPC   H5R18604   2.652   1.913   8.733 -0.9306  1.4276 -2.8655
  155DOPC   H5S18605   2.818   1.847   8.743 -0.4105  0.1221  1.2919
  155DOPC   C2618606   2.797   1.974   8.569 -0.4412  0.3394 -0.0703
  155DOPC   H6R18607   2.908   1.973   8.562 -0.3640 -0.6283  0.9964
  155DOPC   H6S18608   2.754   2.067   8.527 -0.2951 -0.5823 -2.4085
  155DOPC   C2718609   2.750   1.864   8.470  0.5839 -0.5591 -0.7137
  155DOPC   H7R18610   2.654   1.910   8.441  0.4684  0.2959  0.9166
  155DOPC   H7S18611   2.734   1.772   8.530  1.2736  0.5630  1.2925
  155DOPC   C2818612   2.842   1.837   8.356 -0.5948  0.3744  0.8900
  155DOPC   H8R18613   2.933   1.786   8.394 -0.5765 -0.9239 -0.7700
  155DOPC   H8S18614   2.871   1.928   8.299 -1.3254  0.3611  0.4870
  155DOPC   C2918615   2.778   1.734   8.268  0.5732 -0.0003  0.7710
  155DOPC   H9R18616   2.767   1.629   8.298 -0.9894  0.3167  1.4289
  155DOPC  C21018617   2.749   1.757   8.141  0.9136 -0.1893  0.5395
  155DOPC  H10R18618   2.702   1.680   8.079 -2.4090 -1.7752  4.5391
  155DOPC  C21118619   2.762   1.887   8.064  0.5053  0.2777  0.4589
  155DOPC  H11R18620   2.863   1.932   8.067  0.1142  1.5044 -2.0042
  155DOPC  H11S18621   2.694   1.968   8.100  0.3235  1.0078 -1.4168
  155DOPC  C21218622   2.716   1.873   7.916 -0.1414  0.5329  0.2925
  155DOPC  H12R18623   2.715   1.970   7.862  0.0582  0.8365  0.8259
  155DOPC  H12S18624   2.619   1.819   7.927 -0.2803  0.8210  0.5090
  155DOPC  C21318625   2.818   1.785   7.851 -0.1846  0.5538 -0.3449
  155DOPC  H13R18626   2.810   1.680   7.887  2.9975  0.7714  1.3429
  155DOPC  H13S18627   2.917   1.824   7.882  0.5050 -1.3431 -0.0563
  155DOPC  C21418628   2.812   1.793   7.699  0.6209 -0.1904 -0.2791
  155DOPC  H14R18629   2.870   1.711   7.652 -0.3031 -1.6026  0.9339
  155DOPC  H14S18630   2.853   1.891   7.668 -1.6170  1.0734  0.5117
  155DOPC  C21518631   2.668   1.777   7.645 -0.7206 -0.0373  0.5423
  155DOPC  H15R18632   2.664   1.827   7.545 -0.7258 -0.6059  0.2536
  155DOPC  H15S18633   2.600   1.842   7.703  0.4923  0.7565  1.1283
  155DOPC  C21618634   2.612   1.639   7.643 -0.2807  0.1115  1.3766
  155DOPC  H16R18635   2.586   1.608   7.746 -1.2773  1.6072  1.6188
  155DOPC  H16S18636   2.684   1.571   7.593 -1.9699 -0.1134 -0.9687
  155DOPC  C21718637   2.480   1.628   7.555  0.7827 -0.4747 -0.1469
  155DOPC  H17R18638   2.430   1.543   7.605  2.4943 -0.2004  2.1626
  155DOPC  H17S18639   2.491   1.606   7.446  0.6912  2.5287 -0.8771
  155DOPC  C21818640   2.373   1.728   7.579 -0.4744 -0.6379 -0.0965
  155DOPC  H18R18641   2.417   1.827   7.556  0.4935  0.2772  4.7088
  155DOPC  H18S18642   2.348   1.728   7.687 -0.8639 -0.3367 -0.1829
  155DOPC  H18T18643   2.284   1.692   7.524  0.8171 -1.0516 -2.0358
  155DOPC   C3318644   3.160   2.351   8.759 -0.5555 -0.6152 -0.6181
  155DOPC   H3X18645   3.069   2.360   8.823  0.0973  0.0179  0.2302
  155DOPC   H3Y18646   3.129   2.359   8.652 -2.2330 -1.6278 -0.2407
  155DOPC   C3418647   3.280   2.444   8.777 -0.0223  0.0609  0.3533
  155DOPC   H4X18648   3.364   2.401   8.718  0.5856  1.1047  0.4243
  155DOPC   H4Y18649   3.316   2.445   8.882  0.2897 -0.0646  0.2496
  155DOPC   C3518650   3.260   2.580   8.714 -0.4381  0.4141  0.1420
  155DOPC   H5X18651   3.199   2.642   8.784  0.4993 -0.7277  2.0484
  155DOPC   H5Y18652   3.195   2.568   8.625 -2.1915 -0.4952  1.4888
  155DOPC   C3618653   3.392   2.657   8.690 -0.3794 -0.1016 -0.1984
  155DOPC   H6X18654   3.456   2.645   8.780  1.5051 -2.1092 -1.6878
  155DOPC   H6Y18655   3.446   2.599   8.612 -0.7779 -0.0946 -0.4876
  155DOPC   C3718656   3.379   2.797   8.630  1.2273 -0.0623 -0.3435
  155DOPC   H7X18657   3.297   2.797   8.555  2.1462 -0.0622 -1.3615
  155DOPC   H7Y18658   3.337   2.867   8.705  0.7175 -0.9069  0.1901
  155DOPC   C3818659   3.505   2.866   8.572 -0.0094  0.8091  0.0142
  155DOPC   H8X18660   3.569   2.793   8.518  0.9934 -0.1624  2.4002
  155DOPC   H8Y18661   3.571   2.891   8.658  0.9005 -0.4210 -0.2996
  155DOPC   C3918662   3.489   2.988   8.492 -0.5439 -0.3491 -0.0351
  155DOPC   H9X18663   3.455   3.078   8.545 -3.3770 -1.9644  1.0804
  155DOPC  C31018664   3.534   3.003   8.363 -0.4177  0.3590  0.2973
  155DOPC  H10X18665   3.518   3.100   8.313  0.5075  1.0648  1.3434
  155DOPC  C31118666   3.601   2.890   8.290  0.4595  0.1670 -0.4642
  155DOPC  H11X18667   3.546   2.794   8.288  0.7074 -0.0734  1.9798
  155DOPC  H11Y18668   3.696   2.862   8.340  0.5238 -0.8237 -1.1034
  155DOPC  C31218669   3.639   2.927   8.144 -0.3067 -0.1409  0.0607
  155DOPC  H12X18670   3.716   3.008   8.136  0.0882 -0.3273  1.6711
  155DOPC  H12Y18671   3.554   2.966   8.084 -0.1407 -1.7936 -1.3321
  155DOPC  C31318672   3.699   2.814   8.062  0.1902  0.0489  0.1871
  155DOPC  H13X18673   3.806   2.809   8.091 -0.4266  1.5109  3.1635
  155DOPC  H13Y18674   3.635   2.727   8.089 -1.4741  1.0753 -0.3032
  155DOPC  C31418675   3.686   2.829   7.906 -0.9156  0.4432 -0.6826
  155DOPC  H14X18676   3.582   2.808   7.872 -1.6761  0.3483  1.5593
  155DOPC  H14Y18677   3.719   2.933   7.884 -0.1216  0.5271  0.7830
  155DOPC  C31518678   3.779   2.725   7.833 -0.0470  0.1289  0.2412
  155DOPC  H15X18679   3.760   2.624   7.874  0.9027  0.7922  2.4117
  155DOPC  H15Y18680   3.886   2.745   7.857  1.0490 -1.7723 -2.5342
  155DOPC  C31618681   3.749   2.727   7.683 -0.0081  0.1365  0.2469
  155DOPC  H16X18682   3.639   2.734   7.671  0.0796  1.9955  0.2528
  155DOPC  H16Y18683   3.784   2.817   7.629 -0.6383  0.6309  0.6463
  155DOPC  C31718684   3.797   2.605   7.607  0.5102  0.3606 -0.1489
  155DOPC  H17X18685   3.901   2.576   7.634  0.0558 -1.7173 -0.4970
  155DOPC  H17Y18686   3.730   2.528   7.651  1.4687  0.3526  1.3612
  155DOPC  C31818687   3.779   2.608   7.455  0.2682  0.2307 -0.4261
  155DOPC  H18X18688   3.854   2.664   7.395  2.1670 -3.9692 -2.3436
  155DOPC  H18Y18689   3.787   2.506   7.413  1.8242 -0.0900  0.5750
  155DOPC  H18Z18690   3.681   2.653   7.427 -0.1210 -0.0500  0.4322
  156DOPC     N18691   7.554   5.834   9.483  0.1510 -0.1241 -0.3864
  156DOPC   C1218692   7.410   5.834   9.532 -0.5810 -0.6601 -0.1657
  156DOPC  H12A18693   7.397   5.902   9.614 -1.0557  0.2278 -0.9530
  156DOPC  H12B18694   7.393   5.730   9.557 -1.3437 -1.0102 -1.9402
  156DOPC   C1318695   7.645   5.767   9.587 -0.2457 -0.1397 -0.0707
  156DOPC  H13A18696   7.738   5.743   9.537 -0.6343 -0.3283 -0.7115
  156DOPC  H13B18697   7.663   5.819   9.680  0.9619 -1.9542  0.7601
  156DOPC  H13C18698   7.603   5.674   9.620 -0.8312 -0.1784 -0.8996
  156DOPC   C1418699   7.596   5.975   9.451  0.2377  0.8664  0.4142
  156DOPC  H14A18700   7.522   6.019   9.386 -2.1146 -3.0259  0.1488
  156DOPC  H14B18701   7.603   6.044   9.534  0.0995  1.9440 -0.4508
  156DOPC  H14C18702   7.697   5.973   9.413 -0.0852  1.2773 -0.4834
  156DOPC   C1518703   7.571   5.759   9.364  0.2110  0.4333 -0.0137
  156DOPC  H15A18704   7.559   5.653   9.382 -0.2366  0.2064 -1.5254
  156DOPC  H15B18705   7.670   5.771   9.322  0.4793  2.9844  1.2018
  156DOPC  H15C18706   7.502   5.784   9.285 -0.4736 -1.4640 -0.0849
  156DOPC   C1118707   7.292   5.879   9.445 -0.1121 -0.0160  0.0619
  156DOPC  H11A18708   7.293   5.811   9.357 -1.7760 -0.2408  0.1937
  156DOPC  H11B18709   7.204   5.866   9.510 -0.2901 -0.7620 -0.3069
  156DOPC     P18710   7.280   6.129   9.509 -0.2127 -0.1150 -0.2237
  156DOPC   O1318711   7.354   6.251   9.474  0.3613  0.0349  0.0645
  156DOPC   O1418712   7.295   6.073   9.650  0.1596  0.5261 -0.9405
  156DOPC   O1218713   7.310   6.018   9.397  0.2392  0.0185 -0.2829
  156DOPC   O1118714   7.134   6.150   9.474 -0.1147 -0.1084 -0.3045
  156DOPC    C118715   7.076   6.177   9.345  0.1760  0.2741  0.1675
  156DOPC    HA18716   7.158   6.199   9.273  2.0626 -1.5211  1.6361
  156DOPC    HB18717   7.017   6.270   9.361 -0.0580 -0.2655  2.9973
  156DOPC    C218718   6.983   6.064   9.296  0.1939  0.2555  0.0982
  156DOPC    HS18719   7.056   5.980   9.287 -0.1503 -0.1057  0.6243
  156DOPC   O2118720   6.942   6.097   9.164 -0.3315 -0.2515 -0.4057
  156DOPC   C2118721   6.904   5.990   9.092  0.0682 -0.2182 -0.0242
  156DOPC   O2218722   6.907   5.877   9.135 -0.2758  0.0057 -0.1144
  156DOPC   C2218723   6.878   6.030   8.950  0.3017  0.0503 -0.0687
  156DOPC   H2R18724   6.799   6.107   8.947  0.2255 -0.0530 -1.5874
  156DOPC   H2S18725   6.834   5.942   8.898 -0.8930  0.7207 -0.2230
  156DOPC    C318726   6.862   6.030   9.390 -0.5530 -0.2098 -0.0003
  156DOPC    HX18727   6.887   6.005   9.495  2.1567 -0.8796 -0.7186
  156DOPC    HY18728   6.805   5.943   9.353 -0.0612 -1.1709  1.4446
  156DOPC   O3118729   6.770   6.136   9.389  0.4206 -0.0136 -0.1202
  156DOPC   C3118730   6.667   6.135   9.308 -0.0104 -0.4742 -0.3072
  156DOPC   O3218731   6.643   6.051   9.224 -0.3825 -0.0139 -0.1354
  156DOPC   C3218732   6.604   6.277   9.315  0.3364 -0.0565  0.3484
  156DOPC   H2X18733   6.513   6.266   9.379  0.5653 -1.5067  0.4411
  156DOPC   H2Y18734   6.676   6.344   9.367 -2.3116  2.7516  0.7085
  156DOPC   C2318735   7.009   6.083   8.884  0.6561  0.2725  0.3066
  156DOPC   H3R18736   7.077   5.995   8.879 -0.5396 -0.7273  0.9081
  156DOPC   H3S18737   7.070   6.151   8.948  1.2257 -0.3475  0.4289
  156DOPC   C2418738   6.988   6.146   8.749 -0.7013 -0.1652 -0.4470
  156DOPC   H4R18739   7.079   6.204   8.722 -0.4201  0.2333  1.2426
  156DOPC   H4S18740   6.909   6.224   8.762 -1.4714 -0.4806 -2.6972
  156DOPC   C2518741   6.949   6.048   8.638 -0.0867 -0.2585 -0.2142
  156DOPC   H5R18742   6.866   5.983   8.674 -0.8888  1.0039  0.2827
  156DOPC   H5S18743   7.030   5.974   8.618 -0.5351 -1.4352  1.9745
  156DOPC   C2618744   6.886   6.121   8.519 -0.1728 -0.4814  0.6378
  156DOPC   H6R18745   6.936   6.219   8.500 -0.8315 -0.3846 -0.6997
  156DOPC   H6S18746   6.785   6.147   8.556 -0.3664 -1.2879  0.6812
  156DOPC   C2718747   6.894   6.041   8.396 -0.4994  0.1231 -0.1045
  156DOPC   H7R18748   6.830   6.097   8.324  0.7807  1.9675  0.1320
  156DOPC   H7S18749   6.852   5.940   8.419  0.0823 -0.2103 -0.5014
  156DOPC   C2818750   7.027   6.006   8.330 -0.4078 -0.4988 -0.9099
  156DOPC   H8R18751   7.083   5.946   8.405 -0.5225  1.4503  0.8116
  156DOPC   H8S18752   7.095   6.093   8.329  0.7132 -1.3406 -0.4919
  156DOPC   C2918753   7.021   5.920   8.204 -0.6912 -0.6295 -0.7092
  156DOPC   H9R18754   6.924   5.879   8.174 -0.1268 -1.4139 -1.5340
  156DOPC  C21018755   7.122   5.894   8.118 -0.0287  0.4991  0.7415
  156DOPC  H10R18756   7.104   5.837   8.026 -0.4849  0.3220  0.9418
  156DOPC  C21118757   7.270   5.908   8.144  0.3697 -0.2697  0.4277
  156DOPC  H11R18758   7.300   5.801   8.137 -3.1387 -1.4072  0.9825
  156DOPC  H11S18759   7.282   5.953   8.245 -0.1617  2.4064 -0.6202
  156DOPC  C21218760   7.343   6.014   8.058  0.0417 -0.1799  0.8526
  156DOPC  H12R18761   7.298   6.115   8.070  1.0506  0.8546 -2.9041
  156DOPC  H12S18762   7.345   5.979   7.953  0.4101 -1.2784  1.2077
  156DOPC  C21318763   7.495   6.038   8.084 -0.1150  0.0388 -0.3716
  156DOPC  H13R18764   7.548   5.949   8.046  1.0531  0.3595  0.4487
  156DOPC  H13S18765   7.537   6.037   8.187 -0.6119  2.0391 -0.1036
  156DOPC  C21418766   7.548   6.162   8.016 -0.5477  0.3290  0.6670
  156DOPC  H14R18767   7.489   6.249   8.050 -0.8162  0.1790  0.5831
  156DOPC  H14S18768   7.529   6.145   7.908  0.1227  0.3480  0.5385
  156DOPC  C21518769   7.699   6.191   8.023 -0.4592  1.3688 -0.0381
  156DOPC  H15R18770   7.727   6.244   7.929 -1.5463  0.0043 -1.1658
  156DOPC  H15S18771   7.754   6.095   8.017 -1.9472  0.4444  0.5630
  156DOPC  C21618772   7.746   6.264   8.141  0.2358 -0.3385 -0.4471
  156DOPC  H16R18773   7.850   6.295   8.118  0.1953 -0.3210 -0.6048
  156DOPC  H16S18774   7.758   6.204   8.234  0.0989  3.0711  1.9723
  156DOPC  C21718775   7.669   6.394   8.171  0.2227  0.4968  0.0260
  156DOPC  H17R18776   7.570   6.367   8.215  1.1467  1.7683  3.1566
  156DOPC  H17S18777   7.664   6.450   8.076  2.6055  0.9889  0.1277
  156DOPC  C21818778   7.739   6.477   8.278  0.0551  0.4605  0.6661
  156DOPC  H18R18779   7.667   6.549   8.322 -1.3705 -0.9447  0.7336
  156DOPC  H18S18780   7.828   6.535   8.245  2.0057 -2.4630  0.3341
  156DOPC  H18T18781   7.767   6.411   8.363 -0.2410 -1.0029 -0.3274
  156DOPC   C3318782   6.596   6.339   9.174  0.3991 -0.6780  0.1447
  156DOPC   H3X18783   6.489   6.367   9.173  0.6322  0.3548  1.1747
  156DOPC   H3Y18784   6.619   6.272   9.089 -0.5167  0.9234 -1.4475
  156DOPC   C3418785   6.676   6.473   9.153 -0.1269 -0.7669 -0.8993
  156DOPC   H4X18786   6.648   6.506   9.051 -3.2987  2.7076  0.8514
  156DOPC   H4Y18787   6.785   6.455   9.162 -0.6589 -5.2328 -0.9741
  156DOPC   C3518788   6.631   6.591   9.242 -0.2563 -0.2750  0.5459
  156DOPC   H5X18789   6.594   6.566   9.344  0.1677 -1.9103  0.3291
  156DOPC   H5Y18790   6.535   6.623   9.196 -0.3974  0.1978  1.1590
  156DOPC   C3618791   6.729   6.715   9.238 -0.1391 -0.1945  0.1078
  156DOPC   H6X18792   6.673   6.799   9.283  0.7888  1.6212 -1.9106
  156DOPC   H6Y18793   6.824   6.687   9.288  1.3784  3.1105 -0.6590
  156DOPC   C3718794   6.768   6.765   9.099  0.6851  0.3749  0.0161
  156DOPC   H7X18795   6.856   6.710   9.056 -1.0322 -0.6787 -2.4310
  156DOPC   H7Y18796   6.679   6.755   9.033  1.4740  1.1462 -1.2131
  156DOPC   C3818797   6.805   6.915   9.098  0.2597 -0.4418  0.6462
  156DOPC   H8X18798   6.882   6.930   9.177  0.5764  0.4657  0.1800
  156DOPC   H8Y18799   6.715   6.971   9.131  0.3428 -2.2867  4.7154
  156DOPC   C3918800   6.872   6.958   8.972  0.1849 -0.9851  0.0073
  156DOPC   H9X18801   6.972   6.918   8.952  0.2256 -0.4647 -0.8941
  156DOPC  C31018802   6.833   7.063   8.887 -0.3114  0.1068 -0.4131
  156DOPC  H10X18803   6.897   7.078   8.799  0.4651 -0.6542  0.0109
  156DOPC  C31118804   6.717   7.156   8.892 -0.0860  0.3524  0.0088
  156DOPC  H11X18805   6.759   7.257   8.913  0.5759 -0.2994  2.0627
  156DOPC  H11Y18806   6.638   7.130   8.965 -1.6350  0.8742 -1.4163
  156DOPC  C31218807   6.639   7.161   8.757 -0.0977  0.3446  0.2783
  156DOPC  H12X18808   6.577   7.253   8.765 -0.8154 -0.1858  1.0454
  156DOPC  H12Y18809   6.560   7.083   8.764 -0.7791  1.0135  0.2284
  156DOPC  C31318810   6.716   7.166   8.628 -0.1171 -0.0996 -0.2800
  156DOPC  H13X18811   6.789   7.083   8.620  1.5764  1.1707  1.1308
  156DOPC  H13Y18812   6.645   7.155   8.543  0.6576 -0.4796 -0.8842
  156DOPC  C31418813   6.793   7.296   8.617 -0.2829  0.0875 -1.0404
  156DOPC  H14X18814   6.722   7.380   8.604  1.7182  1.8991 -0.8497
  156DOPC  H14Y18815   6.850   7.317   8.710  0.1422  3.1558 -1.8951
  156DOPC  C31518816   6.895   7.292   8.505  0.7608 -0.2612  0.7095
  156DOPC  H15X18817   6.910   7.390   8.454 -1.1966  0.4867  1.5057
  156DOPC  H15Y18818   6.859   7.217   8.431 -1.1883  1.4024 -0.1230
  156DOPC  C31618819   7.034   7.242   8.542 -1.1734  0.2934 -0.3240
  156DOPC  H16X18820   7.091   7.317   8.600  0.7698 -0.1099 -1.5963
  156DOPC  H16Y18821   7.017   7.145   8.593 -0.0007  0.2164 -0.0512
  156DOPC  C31718822   7.114   7.217   8.415  0.7903  0.1265 -0.7593
  156DOPC  H17X18823   7.064   7.126   8.373 -1.5532  0.2249  1.5599
  156DOPC  H17Y18824   7.096   7.311   8.358 -0.8417  1.1127  1.2535
  156DOPC  C31818825   7.261   7.191   8.435  0.3203  0.1279 -0.1883
  156DOPC  H18X18826   7.271   7.105   8.505 -2.6329 -2.3304 -2.5186
  156DOPC  H18Y18827   7.315   7.181   8.338  0.9767  1.7966 -0.0271
  156DOPC  H18Z18828   7.313   7.281   8.476 -1.9048  1.7436 -0.7395
  157DOPC     N18829   7.212   2.648   9.649  0.0963  0.4446 -1.1947
  157DOPC   C1218830   7.171   2.506   9.682  1.0689 -0.5030 -0.1967
  157DOPC  H12A18831   7.215   2.480   9.777  2.3581 -0.4093 -0.7486
  157DOPC  H12B18832   7.224   2.458   9.601  0.4605  0.0502 -0.9320
  157DOPC   C1318833   7.148   2.690   9.522  0.4966  0.2711 -0.4737
  157DOPC  H13A18834   7.042   2.675   9.531  0.7639 -2.1698 -0.7577
  157DOPC  H13B18835   7.169   2.793   9.494 -1.2272  0.5889 -0.6733
  157DOPC  H13C18836   7.188   2.629   9.442  0.2804 -0.5805  0.0621
  157DOPC   C1418837   7.358   2.662   9.650  0.7437  0.0633  0.1526
  157DOPC  H14A18838   7.382   2.767   9.665 -0.9500  0.1610  2.8447
  157DOPC  H14B18839   7.405   2.612   9.734  0.4439 -1.5654 -0.6238
  157DOPC  H14C18840   7.399   2.631   9.555 -0.7988 -1.6093 -0.0160
  157DOPC   C1518841   7.160   2.745   9.757 -0.1151  0.0276 -0.0687
  157DOPC  H15A18842   7.204   2.735   9.855  0.1905  2.1272  0.0513
  157DOPC  H15B18843   7.052   2.748   9.765 -0.0277 -0.0982  1.5524
  157DOPC  H15C18844   7.181   2.846   9.725 -0.7853 -0.6456 -2.9000
  157DOPC   C1118845   7.016   2.471   9.681 -0.2623  1.0351  0.2866
  157DOPC  H11A18846   7.013   2.366   9.720  0.6059  0.8671 -0.0887
  157DOPC  H11B18847   6.959   2.531   9.755 -1.2000  0.3928  0.1187
  157DOPC     P18848   6.996   2.386   9.441 -0.1128  0.0936 -0.0735
  157DOPC   O1318849   6.905   2.270   9.417 -0.4734  0.4260  0.2928
  157DOPC   O1418850   7.143   2.358   9.464 -0.2596 -0.5707 -0.2990
  157DOPC   O1218851   6.941   2.473   9.560 -0.7999  0.3223 -0.2286
  157DOPC   O1118852   6.984   2.489   9.322 -0.0479  0.3850  0.4628
  157DOPC    C118853   6.863   2.548   9.291 -0.5533 -0.0041 -0.0113
  157DOPC    HA18854   6.845   2.611   9.380 -0.7157 -0.3812  0.2255
  157DOPC    HB18855   6.783   2.471   9.291  1.6882 -2.5248 -0.2988
  157DOPC    C218856   6.861   2.628   9.158 -0.5590  0.4561 -0.2971
  157DOPC    HS18857   6.755   2.663   9.153  0.0549  2.3640 -0.5035
  157DOPC   O2118858   6.908   2.551   9.044 -0.1257 -0.3802  0.5260
  157DOPC   C2118859   6.820   2.460   9.011 -0.1985  0.2708  0.3038
  157DOPC   O2218860   6.716   2.436   9.073 -0.3377  0.0968 -0.0190
  157DOPC   C2218861   6.859   2.405   8.871  0.2263  0.2322 -0.0079
  157DOPC   H2R18862   6.863   2.295   8.867  0.6435  0.2670 -2.2721
  157DOPC   H2S18863   6.959   2.448   8.849  0.6005 -0.6112  0.0325
  157DOPC    C318864   6.953   2.745   9.183 -0.1855 -0.6959 -0.0330
  157DOPC    HX18865   7.057   2.712   9.205 -1.1933 -4.2928  0.0444
  157DOPC    HY18866   6.923   2.797   9.276  1.7814  0.9442 -0.2391
  157DOPC   O3118867   6.944   2.835   9.069  0.0847 -0.3152  0.1867
  157DOPC   C3118868   7.038   2.837   8.969  0.6140  0.3784 -0.0582
  157DOPC   O3218869   7.136   2.765   8.969 -0.1948 -0.1252 -0.9981
  157DOPC   C3218870   6.995   2.930   8.860  0.3309 -0.7648  0.3675
  157DOPC   H2X18871   6.890   2.916   8.827  0.1193  3.0562 -1.1452
  157DOPC   H2Y18872   7.005   3.033   8.902  3.3098 -0.0600 -1.7071
  157DOPC   C2318873   6.759   2.457   8.766 -0.2450 -0.9289  0.8686
  157DOPC   H3R18874   6.769   2.567   8.754 -0.2678 -1.1103 -0.9853
  157DOPC   H3S18875   6.665   2.421   8.812 -0.1483  0.2290  2.0493
  157DOPC   C2418876   6.779   2.372   8.641 -0.5729  0.1366 -0.1164
  157DOPC   H4R18877   6.776   2.263   8.662  0.3044  0.2748  0.8024
  157DOPC   H4S18878   6.876   2.403   8.597 -0.0951  0.6394  1.2213
  157DOPC   C2518879   6.683   2.408   8.529  0.3124  0.2690  0.2523
  157DOPC   H5R18880   6.710   2.338   8.447  1.9219  2.3934 -1.1389
  157DOPC   H5S18881   6.707   2.510   8.491  1.7254 -0.1569 -0.0584
  157DOPC   C2618882   6.541   2.397   8.572 -0.7209  0.0240  0.3214
  157DOPC   H6R18883   6.520   2.486   8.635  4.2808  1.6861  0.0673
  157DOPC   H6S18884   6.539   2.307   8.636  0.1264  0.0476  0.3876
  157DOPC   C2718885   6.450   2.382   8.449 -0.2167 -0.1128 -0.1225
  157DOPC   H7R18886   6.479   2.301   8.379  2.5088 -0.4860  1.3097
  157DOPC   H7S18887   6.447   2.473   8.386 -1.0378 -0.2777 -0.3281
  157DOPC   C2818888   6.303   2.338   8.485  0.3051  0.1148  0.3074
  157DOPC   H8R18889   6.303   2.241   8.538  1.2986  1.6198  3.2590
  157DOPC   H8S18890   6.245   2.324   8.391  0.0987 -0.8686  0.5708
  157DOPC   C2918891   6.229   2.439   8.575 -0.9543  0.4012  0.3729
  157DOPC   H9R18892   6.276   2.453   8.673  1.5259 -2.6477 -0.2184
  157DOPC  C21018893   6.142   2.531   8.539 -0.4684 -0.5130 -0.1892
  157DOPC  H10R18894   6.106   2.591   8.624  2.2521  1.7733 -0.5109
  157DOPC  C21118895   6.099   2.551   8.399 -0.4985 -0.6681 -0.1236
  157DOPC  H11R18896   6.064   2.458   8.350  0.4868 -0.0705 -2.0803
  157DOPC  H11S18897   6.177   2.596   8.334  2.0887 -2.7243  1.3422
  157DOPC  C21218898   5.968   2.645   8.384 -0.0458  0.1063 -0.1550
  157DOPC  H12R18899   6.009   2.747   8.405 -1.5196  0.7793 -0.4208
  157DOPC  H12S18900   5.878   2.608   8.438 -1.3089 -1.1095 -2.8983
  157DOPC  C21318901   5.928   2.657   8.240  0.5557  0.0475  0.5681
  157DOPC  H13R18902   5.907   2.554   8.204  1.7966  0.1986 -0.7092
  157DOPC  H13S18903   6.024   2.687   8.192  1.6255 -3.2805  0.4037
  157DOPC  C21418904   5.809   2.750   8.210  0.3023 -0.2416  0.1784
  157DOPC  H14R18905   5.791   2.844   8.267 -2.3047 -0.3413 -0.3774
  157DOPC  H14S18906   5.720   2.690   8.237 -1.4796  1.7691 -0.9966
  157DOPC  C21518907   5.806   2.797   8.060 -0.4202  0.9000  0.1291
  157DOPC  H15R18908   5.818   2.715   7.987  0.3327 -0.4023  1.6363
  157DOPC  H15S18909   5.898   2.858   8.045 -0.7874  1.5531  0.4404
  157DOPC  C21618910   5.672   2.872   8.033  0.3671 -0.4148 -0.4217
  157DOPC  H16R18911   5.662   2.952   8.109 -0.9117 -1.0379  0.0940
  157DOPC  H16S18912   5.596   2.793   8.050 -0.0170 -0.0080 -0.2341
  157DOPC  C21718913   5.660   2.926   7.889 -0.0663  0.7862  0.3644
  157DOPC  H17R18914   5.766   2.943   7.861  0.6863  1.2611  3.1717
  157DOPC  H17S18915   5.607   3.023   7.885  1.2804  1.5352  0.0710
  157DOPC  C21818916   5.606   2.824   7.789  0.6267  0.3941 -0.6604
  157DOPC  H18R18917   5.618   2.858   7.684 -1.2991  1.1679 -0.6688
  157DOPC  H18S18918   5.497   2.807   7.796  0.2018  3.0054  0.0289
  157DOPC  H18T18919   5.660   2.729   7.808 -0.3902  0.0534  0.7164
  157DOPC   C3318920   7.087   2.920   8.737 -0.5032  0.3958  0.0016
  157DOPC   H3X18921   7.076   2.827   8.677 -0.1912  0.0077  0.5379
  157DOPC   H3Y18922   7.191   2.925   8.774 -0.9118 -0.2477  1.2817
  157DOPC   C3418923   7.064   3.034   8.633 -0.1039  0.3549  0.1956
  157DOPC   H4X18924   7.153   3.054   8.569 -2.3724  4.0444 -2.1631
  157DOPC   H4Y18925   7.044   3.125   8.693 -1.2481 -0.0730  0.4827
  157DOPC   C3518926   6.941   3.015   8.532 -0.5511 -0.6693 -0.7175
  157DOPC   H5X18927   6.848   2.984   8.586  0.8683  0.6148  2.7415
  157DOPC   H5Y18928   6.960   2.923   8.473 -1.7504 -2.1415  1.0501
  157DOPC   C3618929   6.919   3.135   8.435  0.3515 -0.4356 -0.0685
  157DOPC   H6X18930   6.886   3.230   8.481  2.7912  0.7295 -0.5645
  157DOPC   H6Y18931   7.009   3.165   8.378  1.1425 -0.3295  1.2021
  157DOPC   C3718932   6.830   3.101   8.309  0.4031  0.7736  0.5203
  157DOPC   H7X18933   6.861   3.001   8.272 -0.5248  0.2299  1.1660
  157DOPC   H7Y18934   6.727   3.083   8.347  0.3599  0.1687  0.1191
  157DOPC   C3818935   6.845   3.211   8.198 -0.2493 -0.8647 -0.4804
  157DOPC   H8X18936   6.782   3.181   8.112 -1.3931 -0.1974  0.1078
  157DOPC   H8Y18937   6.950   3.209   8.160  0.2530  0.7592  0.7030
  157DOPC   C3918938   6.810   3.357   8.236  0.1096 -0.4231 -0.2899
  157DOPC   H9X18939   6.870   3.395   8.321  1.4394 -1.6073 -0.6497
  157DOPC  C31018940   6.740   3.453   8.168  0.5113  0.2125  0.0097
  157DOPC  H10X18941   6.743   3.555   8.210  3.0661  0.2706 -0.1478
  157DOPC  C31118942   6.665   3.425   8.039  0.0815  0.0760 -0.4136
  157DOPC  H11X18943   6.591   3.507   8.030 -1.4438 -1.2713 -0.5253
  157DOPC  H11Y18944   6.612   3.328   8.054 -0.9683  1.0500  3.4889
  157DOPC  C31218945   6.748   3.428   7.906  0.1916  0.4842 -0.1497
  157DOPC  H12X18946   6.674   3.405   7.827  2.7453 -1.6232 -2.1308
  157DOPC  H12Y18947   6.818   3.342   7.902 -2.1425 -1.5407  0.5418
  157DOPC  C31318948   6.812   3.563   7.860  0.0996 -0.7025 -0.2973
  157DOPC  H13X18949   6.775   3.586   7.757  2.0176  0.3455 -0.7972
  157DOPC  H13Y18950   6.774   3.629   7.941 -2.6619 -2.7304  0.2336
  157DOPC  C31418951   6.958   3.549   7.856 -0.0650  0.3903  0.2066
  157DOPC  H14X18952   6.993   3.512   7.954 -3.1911  1.0306  1.6984
  157DOPC  H14Y18953   6.967   3.470   7.779  0.0368 -1.2623  1.8522
  157DOPC  C31518954   7.044   3.672   7.811  0.6566 -0.5710 -0.2066
  157DOPC  H15X18955   7.041   3.757   7.883  0.8077  1.9518 -2.9975
  157DOPC  H15Y18956   6.996   3.700   7.715 -0.9478 -1.7567  0.2249
  157DOPC  C31618957   7.195   3.640   7.777  0.9177 -0.0752  1.3050
  157DOPC  H16X18958   7.193   3.549   7.714 -3.3852  1.3538 -1.0383
  157DOPC  H16Y18959   7.237   3.729   7.726 -1.7477 -0.0054 -0.9677
  157DOPC  C31718960   7.281   3.627   7.906 -0.6432 -0.0390  0.2914
  157DOPC  H17X18961   7.248   3.711   7.970 -1.2004  0.3816 -0.5190
  157DOPC  H17Y18962   7.248   3.536   7.960 -2.1446 -1.5599 -2.8830
  157DOPC  C31818963   7.431   3.635   7.882 -0.5137 -0.3972 -0.9780
  157DOPC  H18X18964   7.491   3.659   7.973 -2.3186  1.5359 -0.2197
  157DOPC  H18Y18965   7.475   3.540   7.845  0.5967 -0.7123  1.0090
  157DOPC  H18Z18966   7.443   3.722   7.814 -3.6320  0.7142 -0.2553
  158DOPC     N18967   5.669   8.033  10.127  0.0818  0.1381  0.2107
  158DOPC   C1218968   5.776   8.081  10.032  0.2108 -0.4440  0.9791
  158DOPC  H12A18969   5.821   8.167  10.078 -0.5911 -0.5192  1.9429
  158DOPC  H12B18970   5.724   8.110   9.942 -2.5590  0.0695  2.6270
  158DOPC   C1318971   5.575   8.148  10.157  0.0522  0.2830  0.7300
  158DOPC  H13A18972   5.532   8.197  10.071  2.6892 -0.5696 -1.2054
  158DOPC  H13B18973   5.494   8.119  10.223 -0.1695  0.6373  0.6135
  158DOPC  H13C18974   5.636   8.223  10.206 -0.0037 -0.6345  2.2896
  158DOPC   C1418975   5.724   7.976  10.252 -0.2984  0.0495  0.1356
  158DOPC  H14A18976   5.794   8.045  10.298 -0.0950 -0.5242  0.6914
  158DOPC  H14B18977   5.641   7.967  10.321  0.7307 -1.5778  1.2366
  158DOPC  H14C18978   5.789   7.891  10.241 -0.6444 -0.2975  0.7209
  158DOPC   C1518979   5.594   7.925  10.061  0.7882 -0.1087 -0.2656
  158DOPC  H15A18980   5.519   7.877  10.123  0.7905 -0.0715 -0.2334
  158DOPC  H15B18981   5.653   7.844  10.020  1.0962 -0.5535  0.9827
  158DOPC  H15C18982   5.532   7.968   9.984  0.9250  1.9234  0.6914
  158DOPC   C1118983   5.888   7.987   9.990  0.4474 -0.9478 -0.5769
  158DOPC  H11A18984   5.967   8.043   9.935  0.5525  1.1998  1.5938
  158DOPC  H11B18985   5.949   7.963  10.080 -1.0556  1.5233  1.2181
  158DOPC     P18986   5.843   7.849   9.765  0.0894 -0.1443 -0.3005
  158DOPC   O1318987   5.740   7.744   9.739  0.4253  0.0560  0.0997
  158DOPC   O1418988   5.984   7.830   9.724 -0.5187 -0.4221 -0.1308
  158DOPC   O1218989   5.832   7.876   9.923 -0.2090 -0.3985  0.1651
  158DOPC   O1118990   5.795   7.987   9.717  0.4883  0.1545  0.3748
  158DOPC    C118991   5.657   8.013   9.692 -0.5999 -0.3667 -0.4328
  158DOPC    HA18992   5.647   8.123   9.700 -0.1084 -0.2912 -0.8302
  158DOPC    HB18993   5.595   7.970   9.774 -1.4555  1.0664 -0.2886
  158DOPC    C218994   5.608   7.963   9.558  0.0137  0.4024 -0.1107
  158DOPC    HS18995   5.630   7.854   9.554  0.0648  0.4519 -1.6955
  158DOPC   O2118996   5.681   8.039   9.460 -0.2582  0.2220  0.3126
  158DOPC   C2118997   5.739   7.979   9.355  0.4027 -0.5538 -0.1518
  158DOPC   O2218998   5.738   7.860   9.334 -0.3070 -0.0873  0.1020
  158DOPC   C2218999   5.810   8.084   9.269  0.3467  0.0636  0.1590
  158DOPC   H2R19000   5.881   8.027   9.204 -0.2517 -1.0075  0.4188
  158DOPC   H2S19001   5.869   8.155   9.330  1.0718  1.7458 -2.3568
  158DOPC    C319002   5.450   7.986   9.544 -0.2860 -0.1697 -0.6213
  158DOPC    HX19003   5.428   8.087   9.587  0.1151 -0.3382 -0.0080
  158DOPC    HY19004   5.393   7.928   9.620  0.3087  0.8895  0.6746
  158DOPC   O3119005   5.397   7.982   9.415 -0.0878  0.1579  0.3067
  158DOPC   C3119006   5.379   7.853   9.361 -0.3245  0.2124  0.3957
  158DOPC   O3219007   5.395   7.755   9.424 -0.4627 -0.3709 -0.1971
  158DOPC   C3219008   5.339   7.863   9.213  0.0361 -0.2342 -0.7160
  158DOPC   H2X19009   5.267   7.947   9.204 -2.0428 -1.8385 -0.1257
  158DOPC   H2Y19010   5.430   7.888   9.154  0.8267 -0.8687  0.2074
  158DOPC   C2319011   5.718   8.175   9.171 -0.7635  0.1748 -0.0365
  158DOPC   H3R19012   5.768   8.269   9.141 -1.7723  0.7598  0.0562
  158DOPC   H3S19013   5.627   8.217   9.219  0.5145  1.7079  1.1240
  158DOPC   C2419014   5.673   8.094   9.049 -0.3104  0.7247 -0.7226
  158DOPC   H4R19015   5.608   8.010   9.083 -0.8889  0.8569 -1.5030
  158DOPC   H4S19016   5.767   8.054   9.005  0.8557  2.8794 -0.3052
  158DOPC   C2519017   5.606   8.174   8.944  0.5640  0.2384  0.9687
  158DOPC   H5R19018   5.602   8.110   8.853 -0.9380  2.3933 -0.5892
  158DOPC   H5S19019   5.662   8.265   8.914  0.3440  0.4422  1.1804
  158DOPC   C2619020   5.461   8.194   8.988 -0.4900  0.3233  0.2193
  158DOPC   H6R19021   5.463   8.289   9.047 -0.6517  0.5943 -0.2095
  158DOPC   H6S19022   5.427   8.109   9.051  1.4158 -0.3653  0.3895
  158DOPC   C2719023   5.365   8.217   8.873  0.1584 -0.0596  0.2846
  158DOPC   H7R19024   5.327   8.118   8.841 -0.2331 -0.6537  2.4054
  158DOPC   H7S19025   5.413   8.279   8.794  0.0174 -1.4767 -0.9482
  158DOPC   C2819026   5.241   8.290   8.930  0.2390 -0.5381  0.0938
  158DOPC   H8R19027   5.185   8.328   8.842 -0.9180 -2.8089 -0.2239
  158DOPC   H8S19028   5.272   8.379   8.989  0.7298 -1.6943  1.6434
  158DOPC   C2919029   5.152   8.209   9.017  0.0292  0.9315 -0.3599
  158DOPC   H9R19030   5.187   8.187   9.119 -2.2457 -0.8423  0.1149
  158DOPC  C21019031   5.033   8.152   8.989  0.3611 -0.4169  0.1746
  158DOPC  H10R19032   4.982   8.086   9.060 -1.4971 -0.2014 -0.8953
  158DOPC  C21119033   4.956   8.158   8.856 -0.3944 -0.2820 -0.2020
  158DOPC  H11R19034   5.018   8.168   8.764  1.2313  3.3270  1.1015
  158DOPC  H11S19035   4.868   8.224   8.845 -0.5592 -0.4863 -0.1006
  158DOPC  C21219036   4.887   8.024   8.834 -0.2470 -0.6278 -0.2393
  158DOPC  H12R19037   4.820   8.011   8.922  0.6275  1.7730  0.8801
  158DOPC  H12S19038   4.954   7.937   8.845 -2.5157 -2.2982  1.2896
  158DOPC  C21319039   4.807   8.040   8.701  1.1053  0.1002 -0.2811
  158DOPC  H13R19040   4.867   8.075   8.615 -0.1972  3.3090 -0.0158
  158DOPC  H13S19041   4.737   8.125   8.714 -0.2019 -1.1578  1.2479
  158DOPC  C21419042   4.731   7.916   8.658 -0.1604  0.2855 -0.4356
  158DOPC  H14R19043   4.715   7.855   8.750 -1.0313  0.5635 -0.3871
  158DOPC  H14S19044   4.794   7.871   8.579 -0.3878 -1.2842  0.2432
  158DOPC  C21519045   4.594   7.955   8.605 -0.5068  0.6943 -0.4803
  158DOPC  H15R19046   4.598   8.042   8.536  0.4758  1.1904  0.1963
  158DOPC  H15S19047   4.534   7.998   8.688  0.0781  0.7984 -0.1103
  158DOPC  C21619048   4.541   7.832   8.526  0.6499 -0.4140 -0.6917
  158DOPC  H16R19049   4.517   7.751   8.598 -0.5251  0.3276 -0.2235
  158DOPC  H16S19050   4.620   7.805   8.453  0.6775 -1.5393 -0.2564
  158DOPC  C21719051   4.402   7.855   8.449 -0.4983 -0.6669 -0.1038
  158DOPC  H17R19052   4.382   7.768   8.383 -2.7977 -0.1282 -0.1980
  158DOPC  H17S19053   4.416   7.948   8.389 -1.9590  0.5249  1.3212
  158DOPC  C21819054   4.285   7.887   8.538  0.4263 -0.1104 -1.1694
  158DOPC  H18R19055   4.279   7.832   8.634 -1.3202  4.9271  1.9817
  158DOPC  H18S19056   4.191   7.861   8.484  1.9020 -0.2125 -3.8584
  158DOPC  H18T19057   4.286   7.994   8.569  0.4094  0.2805 -2.4386
  158DOPC   C3319058   5.284   7.732   9.155  0.1911  0.4203  0.4020
  158DOPC   H3X19059   5.224   7.678   9.231  1.7636 -0.5740  0.9842
  158DOPC   H3Y19060   5.365   7.662   9.128  0.4270  0.2856  1.4362
  158DOPC   C3419061   5.214   7.743   9.017 -0.1961 -0.3452 -0.2014
  158DOPC   H4X19062   5.134   7.820   9.027  0.8756  0.6917  0.7044
  158DOPC   H4Y19063   5.161   7.650   8.989 -0.1660 -0.2024 -0.7343
  158DOPC   C3519064   5.305   7.797   8.910  0.2636  0.2458 -0.6592
  158DOPC   H5X19065   5.388   7.726   8.890  0.5200 -0.3445  2.0376
  158DOPC   H5Y19066   5.339   7.899   8.938  0.6478 -0.2291  0.6822
  158DOPC   C3619067   5.233   7.808   8.772 -0.2317  0.0075 -0.0693
  158DOPC   H6X19068   5.186   7.710   8.753 -1.3915  0.6962 -0.8813
  158DOPC   H6Y19069   5.157   7.889   8.770  1.2546  1.5444 -4.0734
  158DOPC   C3719070   5.325   7.849   8.656  0.0522 -0.0182  0.2317
  158DOPC   H7X19071   5.374   7.947   8.677  0.0871 -0.3969  2.0999
  158DOPC   H7Y19072   5.403   7.770   8.648 -2.8593 -3.1434  0.6393
  158DOPC   C3819073   5.248   7.867   8.518  0.9643  0.2620 -0.0747
  158DOPC   H8X19074   5.311   7.937   8.458 -0.9768  0.9500 -1.3984
  158DOPC   H8Y19075   5.147   7.912   8.529  0.0347 -2.0173  1.3271
  158DOPC   C3919076   5.225   7.744   8.436 -0.6224 -0.7462  0.5301
  158DOPC   H9X19077   5.155   7.668   8.472 -0.7967 -0.2383  1.2895
  158DOPC  C31019078   5.274   7.728   8.311  0.2443  0.2887 -0.5259
  158DOPC  H10X19079   5.230   7.647   8.252 -1.2275  1.0843 -0.5710
  158DOPC  C31119080   5.356   7.820   8.229  0.2334  0.5875  0.2297
  158DOPC  H11X19081   5.427   7.761   8.167 -0.4273  0.3928 -0.3561
  158DOPC  H11Y19082   5.425   7.880   8.292  2.0681 -0.5744 -0.6113
  158DOPC  C31219083   5.276   7.918   8.142 -0.8363 -0.7188 -0.7582
  158DOPC  H12X19084   5.338   8.000   8.100  0.8402 -1.0433  0.9420
  158DOPC  H12Y19085   5.196   7.965   8.204  0.4110 -0.5700  0.7932
  158DOPC  C31319086   5.207   7.843   8.026  0.1589  0.4943 -0.6310
  158DOPC  H13X19087   5.165   7.750   8.070 -0.7844  0.9754 -0.5072
  158DOPC  H13Y19088   5.120   7.903   7.994  0.0074  0.6393  0.0365
  158DOPC  C31419089   5.305   7.791   7.930  0.1968  0.8659 -0.0108
  158DOPC  H14X19090   5.379   7.866   7.894  0.9700  0.4749  0.7362
  158DOPC  H14Y19091   5.365   7.710   7.976 -1.7023  0.2111  1.4216
  158DOPC  C31519092   5.224   7.726   7.809 -0.5545  0.4951 -0.0466
  158DOPC  H15X19093   5.149   7.658   7.855  0.2279 -0.0430  0.4623
  158DOPC  H15Y19094   5.295   7.662   7.753 -0.7047 -0.2406  0.5833
  158DOPC  C31619095   5.165   7.837   7.719 -0.4055  0.0855  0.1652
  158DOPC  H16X19096   5.081   7.890   7.769 -0.8441 -1.7766  1.5056
  158DOPC  H16Y19097   5.248   7.909   7.703  0.5943 -1.3263 -1.2930
  158DOPC  C31719098   5.095   7.783   7.589 -0.4846  0.4831 -0.2720
  158DOPC  H17X19099   5.018   7.707   7.615  1.0631 -1.0908 -0.0899
  158DOPC  H17Y19100   5.050   7.872   7.539 -3.6383  0.9808  3.0244
  158DOPC  C31819101   5.189   7.724   7.483  0.1395 -0.3894 -0.6128
  158DOPC  H18X19102   5.239   7.805   7.426  2.3641 -0.7944  0.6494
  158DOPC  H18Y19103   5.267   7.658   7.528 -2.2265 -2.1836  1.1315
  158DOPC  H18Z19104   5.118   7.669   7.418 -4.0278 -0.5155  3.4899
  159DOPC     N19105   8.157   3.177   9.702 -0.1411 -0.3154  0.4484
  159DOPC   C1219106   8.135   3.115   9.565  0.7214  0.1206  0.1073
  159DOPC  H12A19107   8.186   3.182   9.498  0.9821  0.0547  0.2379
  159DOPC  H12B19108   8.030   3.111   9.540  0.5729  1.6176  0.3893
  159DOPC   C1319109   8.073   3.299   9.732 -0.3784 -0.0128  0.7365
  159DOPC  H13A19110   7.969   3.268   9.728 -0.0303 -1.5006  2.2578
  159DOPC  H13B19111   8.076   3.332   9.834  0.8641  0.9444  0.4200
  159DOPC  H13C19112   8.095   3.381   9.666  1.0373 -0.0448  1.1497
  159DOPC   C1419113   8.306   3.208   9.690  1.3152  0.7190 -0.0649
  159DOPC  H14A19114   8.363   3.117   9.676 -0.4959 -0.6463  0.9788
  159DOPC  H14B19115   8.317   3.265   9.600  0.5608 -1.1455 -1.3931
  159DOPC  H14C19116   8.344   3.273   9.768  1.4873 -0.7308  1.1146
  159DOPC   C1519117   8.137   3.080   9.811  0.5243 -0.3584 -0.4555
  159DOPC  H15A19118   8.194   2.989   9.797 -1.1046 -1.4733 -0.1576
  159DOPC  H15B19119   8.036   3.042   9.816  0.1727  0.6993  1.7121
  159DOPC  H15C19120   8.163   3.126   9.905 -1.1245  0.8843 -0.5636
  159DOPC   C1119121   8.197   2.973   9.541  0.1578 -0.2257  0.1235
  159DOPC  H11A19122   8.216   2.955   9.433 -0.6436  1.4721 -0.3469
  159DOPC  H11B19123   8.296   2.956   9.587  0.9518  1.3277 -0.9337
  159DOPC     P19124   7.972   2.827   9.500  0.0464  0.3303  0.0360
  159DOPC   O1319125   7.891   2.950   9.476 -0.1428  0.1053 -0.0256
  159DOPC   O1419126   7.902   2.708   9.557  0.3916 -0.1873  0.1513
  159DOPC   O1219127   8.098   2.871   9.588  0.2438  0.4256  0.1125
  159DOPC   O1119128   8.044   2.767   9.372 -0.1187 -0.0382 -0.2229
  159DOPC    C119129   8.039   2.846   9.253 -0.3883  0.3309 -0.2547
  159DOPC    HA19130   8.118   2.801   9.189  0.5122 -0.7229  1.5206
  159DOPC    HB19131   8.055   2.955   9.265  0.2224  0.2458 -0.2411
  159DOPC    C219132   7.906   2.833   9.171 -0.7107 -1.2188 -0.2650
  159DOPC    HS19133   7.820   2.874   9.229 -0.1504  2.1444 -1.5964
  159DOPC   O2119134   7.886   2.697   9.131 -0.4193 -0.1610  0.8182
  159DOPC   C2119135   7.777   2.639   9.143 -0.2388  0.7615  0.4856
  159DOPC   O2219136   7.673   2.679   9.190 -0.2074 -0.5859 -0.3693
  159DOPC   C2219137   7.807   2.487   9.116  0.1736  0.2376 -0.5255
  159DOPC   H2R19138   7.798   2.438   9.215 -1.6051  1.5151 -0.0040
  159DOPC   H2S19139   7.900   2.468   9.058 -0.2702 -0.9956 -0.8502
  159DOPC    C319140   7.910   2.927   9.049 -0.8740 -0.0980 -0.0165
  159DOPC    HX19141   8.005   2.907   8.995 -0.9734  1.9778 -1.1014
  159DOPC    HY19142   7.924   3.032   9.083  1.7123  0.0116 -1.1832
  159DOPC   O3119143   7.791   2.913   8.963 -0.3708 -0.0751 -0.3500
  159DOPC   C3119144   7.696   3.005   8.986  0.7406  0.2490  0.0848
  159DOPC   O3219145   7.692   3.082   9.077  0.2765  0.4953 -0.4420
  159DOPC   C3219146   7.600   3.008   8.864 -0.2359 -0.8909 -0.5598
  159DOPC   H2X19147   7.579   2.906   8.826 -1.2168 -1.0731  0.4340
  159DOPC   H2Y19148   7.508   3.058   8.900  0.0144 -1.6869  1.2725
  159DOPC   C2319149   7.693   2.431   9.026 -0.3111  0.2386 -0.0717
  159DOPC   H3R19150   7.592   2.461   9.061 -0.6895 -0.0102 -0.8936
  159DOPC   H3S19151   7.699   2.321   9.044 -0.0045  0.3707  0.6242
  159DOPC   C2419152   7.722   2.434   8.874 -0.2413 -0.4653  0.1886
  159DOPC   H4R19153   7.669   2.346   8.832  0.7494 -0.3389 -1.3687
  159DOPC   H4S19154   7.829   2.421   8.851 -0.1041 -2.6994  1.7279
  159DOPC   C2519155   7.677   2.559   8.796 -0.3845  0.1135 -0.0879
  159DOPC   H5R19156   7.710   2.553   8.690 -0.9147  1.2166 -0.3284
  159DOPC   H5S19157   7.733   2.648   8.833 -0.9368 -0.0919  1.3110
  159DOPC   C2619158   7.528   2.604   8.803  0.0757 -0.7226  0.2679
  159DOPC   H6R19159   7.513   2.697   8.743 -3.3430 -1.4900 -0.2469
  159DOPC   H6S19160   7.506   2.626   8.909 -0.6301  1.3071 -0.2559
  159DOPC   C2719161   7.420   2.511   8.750  0.2029  0.1496  0.1260
  159DOPC   H7R19162   7.380   2.441   8.827 -0.5617 -0.1874 -0.5573
  159DOPC   H7S19163   7.463   2.443   8.674 -1.4796 -0.5911 -0.2069
  159DOPC   C2819164   7.292   2.578   8.716  0.3625  0.8136  1.1512
  159DOPC   H8R19165   7.310   2.660   8.643 -2.9881 -0.1115 -0.9205
  159DOPC   H8S19166   7.252   2.625   8.808  1.8205  1.7265  1.3593
  159DOPC   C2919167   7.193   2.480   8.650 -0.3522 -0.2335 -0.1633
  159DOPC   H9R19168   7.161   2.403   8.721 -2.4379 -0.0960 -0.8600
  159DOPC  C21019169   7.142   2.483   8.523 -0.0261  0.0522  0.0302
  159DOPC  H10R19170   7.058   2.416   8.501  1.5771 -2.1155  0.1704
  159DOPC  C21119171   7.171   2.585   8.419 -0.2797 -0.6078  0.9191
  159DOPC  H11R19172   7.203   2.541   8.322  1.2622  1.4987  0.4067
  159DOPC  H11S19173   7.264   2.635   8.451 -0.4668 -0.0990  0.6879
  159DOPC  C21219174   7.045   2.668   8.392  0.2403 -0.4421  0.2845
  159DOPC  H12R19175   7.074   2.743   8.315  1.1836 -2.5758 -1.5604
  159DOPC  H12S19176   6.994   2.715   8.479 -1.8493 -0.2677 -0.9555
  159DOPC  C21319177   6.940   2.595   8.308  0.7934 -0.1754 -0.5429
  159DOPC  H13R19178   6.861   2.667   8.278 -0.5540 -0.8181  1.2207
  159DOPC  H13S19179   6.896   2.518   8.376  0.1030  0.6882  0.0129
  159DOPC  C21419180   6.981   2.526   8.176 -0.2767  0.3434 -0.4008
  159DOPC  H14R19181   6.884   2.489   8.136 -1.5754  0.7222  2.1679
  159DOPC  H14S19182   7.045   2.438   8.200 -0.3313  0.1164 -1.0693
  159DOPC  C21519183   7.054   2.611   8.067  0.0236  0.2977 -0.1147
  159DOPC  H15R19184   7.152   2.651   8.101 -0.3633  3.4383 -2.3003
  159DOPC  H15S19185   6.985   2.696   8.052 -2.3893 -1.6093 -0.5481
  159DOPC  C21619186   7.078   2.534   7.929 -0.3065 -0.4020  0.1523
  159DOPC  H16R19187   6.992   2.464   7.917 -0.1533 -0.6665  0.5836
  159DOPC  H16S19188   7.168   2.471   7.948  1.2206  1.7502  0.3723
  159DOPC  C21719189   7.101   2.621   7.805  0.5932  0.8351  0.1529
  159DOPC  H17R19190   7.201   2.669   7.815 -0.4719  3.0921  0.7021
  159DOPC  H17S19191   7.020   2.697   7.800 -0.1562  0.0587  0.4548
  159DOPC  C21819192   7.108   2.532   7.680 -0.1258  0.1409 -0.2998
  159DOPC  H18R19193   7.035   2.449   7.673 -0.1764 -0.4302  4.1825
  159DOPC  H18S19194   7.200   2.470   7.671  0.1824  0.6868 -1.0470
  159DOPC  H18T19195   7.105   2.594   7.588  0.0359 -0.9735 -1.0673
  159DOPC   C3319196   7.664   3.089   8.744 -0.5680 -0.1595 -1.1196
  159DOPC   H3X19197   7.697   3.190   8.775 -2.0920  0.0766 -0.1779
  159DOPC   H3Y19198   7.580   3.110   8.675  1.3296  1.1676 -3.1979
  159DOPC   C3419199   7.776   3.008   8.668  0.0635  0.0883  0.0769
  159DOPC   H4X19200   7.739   2.906   8.644  1.9181 -0.6353  0.1048
  159DOPC   H4Y19201   7.855   3.002   8.746  0.4523  0.6657 -0.2732
  159DOPC   C3519202   7.833   3.078   8.547  0.3441 -0.0564 -0.2970
  159DOPC   H5X19203   7.755   3.120   8.479 -0.4194 -1.8326 -0.5664
  159DOPC   H5Y19204   7.897   3.007   8.491  2.2127  0.8270  0.6524
  159DOPC   C3619205   7.927   3.197   8.585  0.8354  0.6410  0.5857
  159DOPC   H6X19206   7.866   3.265   8.649  0.8321  0.5677  0.6604
  159DOPC   H6Y19207   8.011   3.175   8.653  1.4489  0.9482 -0.0554
  159DOPC   C3719208   7.996   3.267   8.463  0.0482  0.1751 -0.6231
  159DOPC   H7X19209   8.089   3.216   8.431  0.4261  0.7481 -0.4537
  159DOPC   H7Y19210   7.920   3.273   8.382 -2.8885 -2.9187  1.5995
  159DOPC   C3819211   8.037   3.406   8.503 -0.4487 -0.5645  0.5970
  159DOPC   H8X19212   8.107   3.389   8.588  0.2311 -0.5078  0.0565
  159DOPC   H8Y19213   7.949   3.456   8.549 -1.7359 -0.1845 -2.0885
  159DOPC   C3919214   8.104   3.497   8.400 -0.2522 -0.1653  0.0315
  159DOPC   H9X19215   8.211   3.518   8.413 -0.1181 -1.4431  1.2447
  159DOPC  C31019216   8.042   3.548   8.295  0.3336 -0.4179 -0.0864
  159DOPC  H10X19217   8.093   3.620   8.228 -0.9399  2.7194  2.0798
  159DOPC  C31119218   7.894   3.540   8.264  0.0123  0.0727 -0.8384
  159DOPC  H11X19219   7.854   3.643   8.262  1.2239  0.5753 -0.3163
  159DOPC  H11Y19220   7.839   3.503   8.353  1.0256 -0.3930 -0.3856
  159DOPC  C31219221   7.862   3.460   8.133  0.3204  0.4279  0.1145
  159DOPC  H12X19222   7.889   3.353   8.148 -0.8765  0.4157  2.7903
  159DOPC  H12Y19223   7.925   3.496   8.049 -0.0718  0.3653 -0.2065
  159DOPC  C31319224   7.718   3.472   8.073  0.2303 -0.0157 -0.0655
  159DOPC  H13X19225   7.699   3.580   8.061  1.1849  0.0031 -1.6020
  159DOPC  H13Y19226   7.720   3.432   7.970  0.0333  0.0303 -0.0882
  159DOPC  C31419227   7.613   3.391   8.152  0.4873 -0.4349 -0.3063
  159DOPC  H14X19228   7.609   3.430   8.255 -0.2986 -0.9046 -0.1514
  159DOPC  H14Y19229   7.523   3.412   8.090  0.0239 -0.2618  0.4194
  159DOPC  C31519230   7.634   3.240   8.150 -0.6520 -0.5613  0.3625
  159DOPC  H15X19231   7.737   3.204   8.168  0.0660  0.6538 -1.0888
  159DOPC  H15Y19232   7.612   3.201   8.048 -1.4299 -2.7136  1.3008
  159DOPC  C31619233   7.547   3.174   8.257  0.1077 -0.2277 -0.1828
  159DOPC  H16X19234   7.595   3.077   8.280  1.3510  0.8286  1.9683
  159DOPC  H16Y19235   7.542   3.227   8.354 -0.7201 -1.4515  0.4712
  159DOPC  C31719236   7.398   3.140   8.208  0.2931  0.0383 -0.1098
  159DOPC  H17X19237   7.348   3.234   8.176 -0.2909  0.0591  0.8371
  159DOPC  H17Y19238   7.407   3.067   8.125  0.8033 -0.1678  0.1231
  159DOPC  C31819239   7.306   3.077   8.316  0.4866 -0.2752 -0.0435
  159DOPC  H18X19240   7.337   2.974   8.346  0.7602 -0.4722 -0.9812
  159DOPC  H18Y19241   7.304   3.147   8.402  0.1917  0.8927 -0.9860
  159DOPC  H18Z19242   7.202   3.070   8.279 -0.1723 -1.2131  1.8755
  160DOPC     N19243   0.477   8.315   9.963 -0.1705  0.7312  0.1446
  160DOPC   C1219244   0.615   8.246   9.953 -0.3272  0.4658  0.1602
  160DOPC  H12A19245   0.600   8.142   9.929 -1.2751  0.5519  0.3468
  160DOPC  H12B19246   0.652   8.242  10.055 -0.4710  0.6535  0.2200
  160DOPC   C1319247   0.409   8.304   9.838  0.5476  0.5303  0.5889
  160DOPC  H13A19248   0.365   8.206   9.830  1.2381  0.0882  1.9784
  160DOPC  H13B19249   0.318   8.362   9.834 -0.1179 -0.5357 -1.6273
  160DOPC  H13C19250   0.476   8.314   9.754  0.5134 -1.7761  0.2237
  160DOPC   C1419251   0.482   8.459   9.999  0.8256 -0.5309 -0.2758
  160DOPC  H14A19252   0.527   8.472  10.097  1.8984 -1.3560 -0.6421
  160DOPC  H14B19253   0.543   8.503   9.922  0.2631  1.1230  0.1811
  160DOPC  H14C19254   0.381   8.496   9.994  0.9623 -0.2024 -0.6142
  160DOPC   C1519255   0.390   8.238  10.053  0.3581  0.0054  0.0622
  160DOPC  H15A19256   0.297   8.279  10.089 -0.4442 -2.6239  1.1910
  160DOPC  H15B19257   0.440   8.225  10.148 -3.0614  0.7566  2.1055
  160DOPC  H15C19258   0.379   8.139  10.012  1.3848 -0.1347  0.0930
  160DOPC   C1119259   0.722   8.305   9.865 -0.1363 -0.2952  0.6471
  160DOPC  H11A19260   0.731   8.414   9.882 -1.7066  0.1965 -1.3352
  160DOPC  H11B19261   0.818   8.256   9.894 -0.5113 -1.4259  0.0609
  160DOPC     P19262   0.728   8.142   9.663  0.2092  0.0574  0.1479
  160DOPC   O1319263   0.680   8.148   9.526  0.1926 -0.3449  0.3274
  160DOPC   O1419264   0.665   8.034   9.744  0.5440 -0.6499  0.6263
  160DOPC   O1219265   0.701   8.287   9.727 -0.1967  0.3189  0.4259
  160DOPC   O1119266   0.887   8.147   9.664 -1.1313  0.0496 -0.1298
  160DOPC    C119267   0.962   8.263   9.634  0.4259 -0.2396 -0.3569
  160DOPC    HA19268   1.067   8.249   9.669  0.2904 -0.8050 -0.1707
  160DOPC    HB19269   0.922   8.352   9.687 -0.7340  0.3321 -2.1000
  160DOPC    C219270   0.971   8.290   9.482 -0.1263  0.0614  0.4054
  160DOPC    HS19271   0.874   8.341   9.461  0.1577  0.8780  0.9925
  160DOPC   O2119272   0.988   8.168   9.400  0.5696 -0.3084  0.1296
  160DOPC   C2119273   0.909   8.160   9.288 -0.4526  0.3614  0.1817
  160DOPC   O2219274   0.817   8.236   9.251 -0.3594 -0.5273  0.5136
  160DOPC   C2219275   0.954   8.036   9.211  0.1052  0.1174  0.8249
  160DOPC   H2R19276   0.863   7.994   9.162  0.4690  1.2983 -0.9588
  160DOPC   H2S19277   0.993   7.964   9.286 -1.8360 -2.9818 -0.9310
  160DOPC    C319278   1.079   8.404   9.450  0.3548  0.1930  0.0852
  160DOPC    HX19279   1.181   8.361   9.462  0.7295  0.9857 -0.1754
  160DOPC    HY19280   1.083   8.487   9.524  1.0397  0.6233 -0.4278
  160DOPC   O3119281   1.063   8.470   9.320 -1.0998  0.1724 -0.3627
  160DOPC   C3119282   1.149   8.568   9.305  0.3003  0.3368 -0.7084
  160DOPC   O3219283   1.244   8.587   9.380 -0.0834  0.2496  0.2374
  160DOPC   C3219284   1.108   8.655   9.180 -0.2155 -0.5530  0.1378
  160DOPC   H2X19285   1.045   8.593   9.112  0.4253  0.9269 -1.9353
  160DOPC   H2Y19286   1.053   8.744   9.218 -1.0855 -0.2405 -1.7157
  160DOPC   C2319287   1.064   8.068   9.107 -0.0866 -0.8361  0.7108
  160DOPC   H3R19288   1.029   8.136   9.026 -0.2225 -1.3900  0.2949
  160DOPC   H3S19289   1.084   7.969   9.059 -1.2877 -0.9712  0.4584
  160DOPC   C2419290   1.188   8.121   9.170 -0.0160  0.0414  0.0826
  160DOPC   H4R19291   1.216   8.054   9.253 -1.8065 -0.8576  0.0069
  160DOPC   H4S19292   1.170   8.226   9.204  1.8824  1.2018 -2.1909
  160DOPC   C2519293   1.308   8.115   9.076 -0.1378 -0.1867 -0.2718
  160DOPC   H5R19294   1.288   8.184   8.992 -1.0816 -1.2986 -0.9896
  160DOPC   H5S19295   1.310   8.013   9.033  2.8149 -1.6323  2.8196
  160DOPC   C2619296   1.446   8.143   9.142 -0.2431  0.2211  0.2789
  160DOPC   H6R19297   1.510   8.177   9.057  2.8732 -2.9813  1.1183
  160DOPC   H6S19298   1.487   8.052   9.191 -0.4420  1.0014  1.9649
  160DOPC   C2719299   1.445   8.264   9.235  0.4574  0.2153 -0.4930
  160DOPC   H7R19300   1.379   8.246   9.323 -3.6620 -2.9724 -3.8230
  160DOPC   H7S19301   1.405   8.351   9.179 -0.6266  0.8270  1.1479
  160DOPC   C2819302   1.586   8.292   9.283  0.2458 -0.1746  0.3475
  160DOPC   H8R19303   1.633   8.205   9.334  1.7484 -0.6501 -1.7342
  160DOPC   H8S19304   1.582   8.376   9.355 -0.7390  0.5345 -0.5140
  160DOPC   C2919305   1.672   8.356   9.173  0.3453  0.0321  0.8023
  160DOPC   H9R19306   1.659   8.463   9.150 -1.3466 -0.4021 -0.4095
  160DOPC  C21019307   1.774   8.296   9.098  0.8399 -0.0138  0.2777
  160DOPC  H10R19308   1.835   8.361   9.033 -0.0600  0.2700 -0.2883
  160DOPC  C21119309   1.816   8.155   9.106  0.1130  0.5386 -0.3782
  160DOPC  H11R19310   1.784   8.115   9.205 -1.8018  3.6655  0.4038
  160DOPC  H11S19311   1.926   8.144   9.115  0.2576 -0.1568 -2.4524
  160DOPC  C21219312   1.786   8.056   8.986 -0.1054  0.6219 -0.1764
  160DOPC  H12R19313   1.676   8.052   8.972  0.0133 -2.4047 -1.1336
  160DOPC  H12S19314   1.816   7.956   9.024 -1.3621  0.3842  0.2222
  160DOPC  C21319315   1.863   8.089   8.858 -0.5294  0.2405 -0.0332
  160DOPC  H13R19316   1.972   8.088   8.881 -0.5365  1.2092  0.0490
  160DOPC  H13S19317   1.826   8.188   8.824  1.3345  0.5198 -1.3883
  160DOPC  C21419318   1.833   7.977   8.760 -0.0828  0.3182  0.0156
  160DOPC  H14R19319   1.722   7.979   8.751  0.0566 -1.0030 -4.6897
  160DOPC  H14S19320   1.853   7.876   8.802  0.1899 -0.1225 -1.1290
  160DOPC  C21519321   1.906   7.986   8.625  0.4387 -0.2102 -0.7087
  160DOPC  H15R19322   2.012   7.992   8.655  0.4318 -1.2518 -0.4151
  160DOPC  H15S19323   1.881   8.077   8.566 -2.7861 -0.1390  0.5534
  160DOPC  C21619324   1.880   7.869   8.529 -0.2876 -0.0826 -0.9625
  160DOPC  H16R19325   1.770   7.861   8.522 -0.1967 -1.6953 -0.7848
  160DOPC  H16S19326   1.917   7.776   8.576 -2.0605 -0.3887 -0.0890
  160DOPC  C21719327   1.919   7.900   8.380  0.4053 -0.3233 -0.6073
  160DOPC  H17R19328   2.027   7.918   8.362  0.7364  1.8412  2.6716
  160DOPC  H17S19329   1.883   8.002   8.352  0.2378 -0.2259 -0.0557
  160DOPC  C21819330   1.873   7.801   8.274  0.4983  0.5587  0.1805
  160DOPC  H18R19331   1.895   7.829   8.169 -1.8885 -0.3469 -0.6213
  160DOPC  H18S19332   1.762   7.795   8.278  0.3899 -0.0714 -2.3204
  160DOPC  H18T19333   1.914   7.700   8.294  0.2426  0.5984  0.9710
  160DOPC   C3319334   1.235   8.705   9.109 -0.0085  0.1191 -0.0010
  160DOPC   H3X19335   1.315   8.729   9.182 -1.6282  2.0517  1.2600
  160DOPC   H3Y19336   1.211   8.802   9.059 -0.7872 -0.3030 -0.4597
  160DOPC   C3419337   1.283   8.608   9.000 -0.7558 -0.8536  0.5283
  160DOPC   H4X19338   1.217   8.570   8.919  0.2063 -0.7174 -0.3451
  160DOPC   H4Y19339   1.330   8.520   9.049  2.2647 -0.0084 -0.5962
  160DOPC   C3519340   1.405   8.677   8.923 -0.2987 -0.4117 -0.7238
  160DOPC   H5X19341   1.472   8.718   9.001 -1.1479  3.3009 -1.7644
  160DOPC   H5Y19342   1.376   8.768   8.866 -3.0597 -0.8716 -0.2083
  160DOPC   C3619343   1.483   8.597   8.815 -0.2714 -0.0979  0.1841
  160DOPC   H6X19344   1.403   8.542   8.760  0.0770  1.4341 -1.9881
  160DOPC   H6Y19345   1.520   8.675   8.746 -2.2888  0.0051 -0.8574
  160DOPC   C3719346   1.598   8.499   8.860  0.3614  0.2615  0.1042
  160DOPC   H7X19347   1.666   8.552   8.930  0.4956  0.6889 -0.3432
  160DOPC   H7Y19348   1.549   8.411   8.906  0.6018 -0.7894 -1.5681
  160DOPC   C3819349   1.701   8.462   8.742  0.1355 -0.1416 -0.9701
  160DOPC   H8X19350   1.793   8.425   8.792  0.1746  2.3610  1.0442
  160DOPC   H8Y19351   1.731   8.554   8.686  0.7024 -0.9552 -2.0365
  160DOPC   C3919352   1.646   8.361   8.652  0.7579 -0.5932 -0.2372
  160DOPC   H9X19353   1.615   8.264   8.693  4.3037 -3.0648 -2.8106
  160DOPC  C31019354   1.643   8.378   8.517 -0.0457  0.1655  0.2188
  160DOPC  H10X19355   1.591   8.299   8.461  0.9773 -0.1076 -0.3711
  160DOPC  C31119356   1.713   8.496   8.437  1.0100 -0.0339 -0.4149
  160DOPC  H11X19357   1.670   8.595   8.460 -0.1057 -0.5333 -0.3146
  160DOPC  H11Y19358   1.673   8.475   8.335 -2.3132  0.9872  0.5607
  160DOPC  C31219359   1.870   8.499   8.453  0.6641 -1.0973 -0.8041
  160DOPC  H12X19360   1.912   8.403   8.415  0.6747 -2.0538  1.4999
  160DOPC  H12Y19361   1.915   8.509   8.554  3.6801  1.6544 -2.2212
  160DOPC  C31319362   1.935   8.609   8.371 -0.1933  0.4761 -1.0530
  160DOPC  H13X19363   1.924   8.699   8.436 -0.7351  0.0607 -0.5593
  160DOPC  H13Y19364   2.043   8.584   8.365 -0.3807 -0.3150 -1.2565
  160DOPC  C31419365   1.875   8.655   8.234  0.1946  0.1066 -0.3527
  160DOPC  H14X19366   1.866   8.563   8.171 -1.5009  0.1790 -0.2517
  160DOPC  H14Y19367   1.772   8.684   8.263  0.0846 -2.4016  2.1946
  160DOPC  C31519368   1.954   8.759   8.173 -0.4094  0.2178  0.1818
  160DOPC  H15X19369   2.042   8.719   8.118 -0.2935  1.3805 -0.5128
  160DOPC  H15Y19370   1.990   8.842   8.237  1.5246 -1.0910  0.8762
  160DOPC  C31619371   1.876   8.829   8.067 -0.7282 -0.4276  0.5910
  160DOPC  H16X19372   1.828   8.748   8.009 -1.0401 -0.4212  0.8339
  160DOPC  H16Y19373   1.790   8.886   8.110 -0.2132  1.6201 -0.9121
  160DOPC  C31719374   1.964   8.924   7.982 -0.3298 -0.2300 -0.1672
  160DOPC  H17X19375   2.028   8.979   8.054 -0.7219  1.1134 -0.8149
  160DOPC  H17Y19376   2.020   8.857   7.913 -0.0017  0.2400 -0.3693
  160DOPC  C31819377   1.884   9.031   7.908 -0.0678  0.8063  0.4919
  160DOPC  H18X19378   1.796   8.978   7.866  1.4852 -1.6975  0.1809
  160DOPC  H18Y19379   1.844   9.118   7.964 -0.4675  0.5479  0.6080
  160DOPC  H18Z19380   1.941   9.073   7.822  2.6634 -0.7437  1.4138
  161DOPC     N19381   2.565   0.587   9.446  0.3498 -0.2226 -0.1511
  161DOPC   C1219382   2.653   0.691   9.376 -0.5867  0.0930  0.0235
  161DOPC  H12A19383   2.755   0.659   9.394 -0.5783 -0.2795 -0.6272
  161DOPC  H12B19384   2.646   0.782   9.433  1.1973 -0.6749  1.5824
  161DOPC   C1319385   2.594   0.457   9.381 -0.3530  0.1808  0.6900
  161DOPC  H13A19386   2.694   0.423   9.403 -0.9282 -2.0510  0.0691
  161DOPC  H13B19387   2.534   0.375   9.416 -0.5943 -0.0657 -0.2798
  161DOPC  H13C19388   2.566   0.460   9.277  1.2546 -0.4715  0.2139
  161DOPC   C1419389   2.425   0.624   9.439 -0.1646 -0.0083 -0.3275
  161DOPC  H14A19390   2.412   0.721   9.483 -0.2592 -0.3590  0.4409
  161DOPC  H14B19391   2.394   0.631   9.336 -1.5284  1.8319  0.1610
  161DOPC  H14C19392   2.366   0.558   9.501  0.4347  0.2212  0.4955
  161DOPC   C1519393   2.614   0.583   9.589  0.2600 -0.0032 -0.0439
  161DOPC  H15A19394   2.603   0.678   9.638  1.5951  0.4778 -0.6266
  161DOPC  H15B19395   2.717   0.557   9.605  0.1064 -0.4824  0.2081
  161DOPC  H15C19396   2.566   0.513   9.656  0.2601  1.1119  1.1664
  161DOPC   C1119397   2.629   0.730   9.229  0.1079  0.0562  1.0583
  161DOPC  H11A19398   2.721   0.771   9.181 -1.3392 -0.4307 -2.4848
  161DOPC  H11B19399   2.603   0.641   9.168  1.4925 -0.2203  0.8568
  161DOPC     P19400   2.546   0.971   9.297 -0.3656 -0.2472 -0.0525
  161DOPC   O1319401   2.679   0.981   9.367 -0.6269  0.0237  0.4558
  161DOPC   O1419402   2.431   0.998   9.382  0.1762  0.8069  0.1663
  161DOPC   O1219403   2.527   0.829   9.220  0.0203 -0.3791 -0.4428
  161DOPC   O1119404   2.539   1.076   9.185 -0.1221 -0.5934  0.9111
  161DOPC    C119405   2.556   1.043   9.042 -0.2307  0.1735 -0.0685
  161DOPC    HA19406   2.480   1.106   8.990  1.1718  0.2507 -2.1380
  161DOPC    HB19407   2.527   0.938   9.016 -1.1182  1.1811 -3.7971
  161DOPC    C219408   2.704   1.078   9.002 -0.1705  0.1618  0.4069
  161DOPC    HS19409   2.772   1.069   9.090 -0.5160  0.9260  0.7621
  161DOPC   O2119410   2.704   1.199   8.934  0.4006 -0.4774  0.0815
  161DOPC   C2119411   2.742   1.307   9.005 -0.4230  0.3957  0.0112
  161DOPC   O2219412   2.752   1.310   9.123  0.1076 -0.2300 -0.5357
  161DOPC   C2219413   2.773   1.424   8.908 -0.2197  0.5996  0.8034
  161DOPC   H2R19414   2.685   1.491   8.898 -1.5924 -0.8241  2.7227
  161DOPC   H2S19415   2.808   1.376   8.814  3.9920  1.9871  1.4218
  161DOPC    C319416   2.760   0.982   8.893 -0.6291  0.1719 -0.3423
  161DOPC    HX19417   2.705   1.007   8.800 -3.3833 -0.2250  1.0649
  161DOPC    HY19418   2.733   0.879   8.924 -1.6819  1.4492  3.6194
  161DOPC   O3119419   2.902   0.993   8.867 -0.1208  0.1046 -0.3642
  161DOPC   C3119420   2.989   0.908   8.922  0.5006  0.5478  0.3284
  161DOPC   O3219421   2.956   0.819   9.001  0.1897 -0.4792 -0.2711
  161DOPC   C3219422   3.130   0.936   8.877 -0.3822  0.3643 -0.2430
  161DOPC   H2X19423   3.123   0.962   8.769  0.2799  2.7623  0.2305
  161DOPC   H2Y19424   3.148   1.031   8.932  0.0329  0.5965 -0.7777
  161DOPC   C2319425   2.892   1.518   8.958 -0.6527  0.1577 -0.4274
  161DOPC   H3R19426   2.912   1.514   9.067  1.3640  0.5788 -0.7401
  161DOPC   H3S19427   2.878   1.626   8.933  2.0922  0.8448  0.5956
  161DOPC   C2419428   3.022   1.480   8.893  0.1957  0.2057  0.5616
  161DOPC   H4R19429   3.021   1.477   8.782  1.5250 -2.0029  0.5539
  161DOPC   H4S19430   3.043   1.375   8.921 -1.7423 -0.6631 -1.0063
  161DOPC   C2519431   3.145   1.556   8.955 -0.8366 -0.2766  0.1174
  161DOPC   H5R19432   3.145   1.553   9.066  1.7892 -1.0711  0.1779
  161DOPC   H5S19433   3.138   1.666   8.937  2.5613 -0.2585 -2.1982
  161DOPC   C2619434   3.281   1.512   8.900 -0.0987  0.1563 -0.0303
  161DOPC   H6R19435   3.364   1.560   8.956  0.4176 -1.2663  0.4535
  161DOPC   H6S19436   3.292   1.529   8.790 -1.4362 -1.6593 -0.4839
  161DOPC   C2719437   3.309   1.361   8.923 -0.2660  0.3438 -0.4271
  161DOPC   H7R19438   3.241   1.304   8.856  0.8250  0.7345 -1.9036
  161DOPC   H7S19439   3.278   1.343   9.028  0.7709 -2.3608 -0.5063
  161DOPC   C2819440   3.459   1.313   8.893 -0.0511 -0.7048  0.1746
  161DOPC   H8R19441   3.520   1.377   8.962 -0.6823 -0.4412  0.5038
  161DOPC   H8S19442   3.480   1.353   8.792 -1.0465 -0.6380 -0.0158
  161DOPC   C2919443   3.483   1.170   8.915  0.0876  0.2928 -0.9866
  161DOPC   H9R19444   3.431   1.129   9.002 -0.6900  2.5466 -0.3396
  161DOPC  C21019445   3.554   1.090   8.839  0.3882  0.4592  0.6966
  161DOPC  H10R19446   3.555   0.982   8.860  1.4591 -0.3744 -2.9291
  161DOPC  C21119447   3.629   1.115   8.714 -0.1404  0.0722  0.1120
  161DOPC  H11R19448   3.563   1.153   8.633 -1.3409 -0.8427  0.6358
  161DOPC  H11S19449   3.676   1.019   8.686  1.6585  1.1956 -0.9459
  161DOPC  C21219450   3.740   1.210   8.727 -0.5485 -0.2476  0.2218
  161DOPC  H12R19451   3.784   1.202   8.829  2.2127  1.7090 -0.6937
  161DOPC  H12S19452   3.702   1.314   8.719 -1.1428 -0.4731  0.1034
  161DOPC  C21319453   3.842   1.200   8.608 -0.0137  0.0336 -0.2476
  161DOPC  H13R19454   3.774   1.186   8.521  1.3810 -2.4328 -1.0308
  161DOPC  H13S19455   3.905   1.109   8.620 -1.7167 -0.9225  2.0381
  161DOPC  C21419456   3.942   1.313   8.586 -0.4362  0.2919  0.4804
  161DOPC  H14R19457   4.009   1.337   8.671 -0.1675  1.1850  0.0354
  161DOPC  H14S19458   3.878   1.405   8.583  1.1102  1.5376  2.6008
  161DOPC  C21519459   4.014   1.296   8.453 -0.3885 -0.0840 -0.5031
  161DOPC  H15R19460   4.074   1.390   8.448 -1.2720  0.5043 -0.1765
  161DOPC  H15S19461   3.938   1.287   8.373  0.4028 -0.5364 -1.2247
  161DOPC  C21619462   4.111   1.176   8.446  0.5817  0.2368 -0.4425
  161DOPC  H16R19463   4.057   1.082   8.423  0.2994  0.1251  0.6380
  161DOPC  H16S19464   4.150   1.151   8.547 -0.1941 -1.3164 -0.4982
  161DOPC  C21719465   4.223   1.185   8.346  0.4146 -0.3330 -0.4087
  161DOPC  H17R19466   4.297   1.108   8.377 -0.2863 -1.3232 -1.1328
  161DOPC  H17S19467   4.256   1.289   8.370  0.6664 -0.4184 -0.3785
  161DOPC  C21819468   4.185   1.193   8.198 -0.0219 -0.0959 -0.1929
  161DOPC  H18R19469   4.277   1.212   8.140  0.0742  0.3932  0.1132
  161DOPC  H18S19470   4.112   1.276   8.178  0.2493  0.6248  1.6300
  161DOPC  H18T19471   4.136   1.096   8.173  3.1373 -2.4882  2.1197
  161DOPC   C3319472   3.234   0.819   8.904  0.0154 -0.0636  0.1937
  161DOPC   H3X19473   3.217   0.768   9.001  1.0826  1.2736  1.1065
  161DOPC   H3Y19474   3.336   0.863   8.901 -0.1556  0.5501  2.0871
  161DOPC   C3419475   3.217   0.718   8.787  0.7434 -0.6592  0.2443
  161DOPC   H4X19476   3.209   0.783   8.697  0.6821 -1.1320 -0.0950
  161DOPC   H4Y19477   3.120   0.670   8.814  0.0422  0.9634  0.7114
  161DOPC   C3519478   3.335   0.622   8.766  0.8875 -0.3368  0.2596
  161DOPC   H5X19479   3.435   0.668   8.760 -0.5467  2.8457 -2.9316
  161DOPC   H5Y19480   3.315   0.560   8.676 -1.9337 -2.0240  1.8824
  161DOPC   C3619481   3.336   0.512   8.875 -0.2672 -0.7065 -0.1600
  161DOPC   H6X19482   3.313   0.561   8.972 -1.6398  0.8418 -1.2274
  161DOPC   H6Y19483   3.254   0.441   8.850 -1.5890  1.0324 -0.9000
  161DOPC   C3719484   3.474   0.445   8.886  0.3982  0.1597 -0.7127
  161DOPC   H7X19485   3.548   0.528   8.877 -1.5768  1.7999 -2.8414
  161DOPC   H7Y19486   3.474   0.398   8.987  1.7437  1.7438  0.0778
  161DOPC   C3819487   3.514   0.331   8.788  0.2455 -0.9191 -0.1235
  161DOPC   H8X19488   3.514   0.369   8.684 -0.7944 -1.0273 -0.1682
  161DOPC   H8Y19489   3.439   0.249   8.784  0.1548 -0.9371  1.3080
  161DOPC   C3919490   3.644   0.254   8.822 -0.0941  0.0737 -0.2113
  161DOPC   H9X19491   3.630   0.205   8.919  0.2686  1.4382  0.5622
  161DOPC  C31019492   3.768   0.250   8.758 -0.0700  0.2195 -0.3722
  161DOPC  H10X19493   3.840   0.169   8.780 -1.3112 -1.6927 -2.7951
  161DOPC  C31119494   3.806   0.330   8.635  0.3539  0.1581 -0.0875
  161DOPC  H11X19495   3.877   0.408   8.670 -0.5610  0.2871  1.5518
  161DOPC  H11Y19496   3.715   0.366   8.584 -0.4704 -2.0767 -0.3186
  161DOPC  C31219497   3.865   0.234   8.536  0.1913  0.2161 -0.1841
  161DOPC  H12X19498   3.791   0.177   8.477 -0.6038  0.4069  0.6155
  161DOPC  H12Y19499   3.927   0.152   8.578 -0.0036 -2.4797 -4.5455
  161DOPC  C31319500   3.969   0.304   8.442  0.1868  0.2073 -0.6042
  161DOPC  H13X19501   4.044   0.340   8.516  0.5981 -2.8300  0.6139
  161DOPC  H13Y19502   4.021   0.233   8.374  1.2738  0.3095  0.0914
  161DOPC  C31419503   3.930   0.423   8.345  0.2628  0.7167 -0.7312
  161DOPC  H14X19504   3.865   0.386   8.263  1.1802  1.7136 -1.9601
  161DOPC  H14Y19505   3.858   0.486   8.401 -0.1686 -0.2269 -0.2076
  161DOPC  C31519506   4.058   0.495   8.293  0.5163 -0.2297  0.6541
  161DOPC  H15X19507   4.114   0.421   8.232 -3.4718 -1.5365 -1.8110
  161DOPC  H15Y19508   4.109   0.541   8.381 -1.5536 -1.0528  2.3625
  161DOPC  C31619509   4.033   0.614   8.196 -0.4515  0.6640  0.0746
  161DOPC  H16X19510   3.954   0.577   8.128  1.7346 -2.2614 -1.0903
  161DOPC  H16Y19511   3.993   0.708   8.241 -1.4058  0.5122 -0.4271
  161DOPC  C31719512   4.149   0.647   8.102 -0.0588 -0.4039 -0.0173
  161DOPC  H17X19513   4.232   0.692   8.161  0.0301  0.8218 -1.0397
  161DOPC  H17Y19514   4.181   0.549   8.059  1.3879 -0.0673  0.2362
  161DOPC  C31819515   4.107   0.741   7.986 -0.7376  0.3095  0.0946
  161DOPC  H18X19516   4.056   0.681   7.907 -2.3597  1.3694  0.2879
  161DOPC  H18Y19517   4.035   0.818   8.021  0.1937  0.6385  1.3576
  161DOPC  H18Z19518   4.197   0.798   7.954 -0.0082 -0.3833  0.8966
  162DOPC     N19519   0.130   7.164   9.750 -0.6930  0.2879  0.4195
  162DOPC   C1219520   0.220   7.186   9.627 -0.1450  0.3741 -0.6843
  162DOPC  H12A19521   0.321   7.187   9.666 -0.3976  1.4641  0.0076
  162DOPC  H12B19522   0.208   7.287   9.590  1.7178  1.8560  2.2841
  162DOPC   C1319523   0.140   7.295   9.826 -0.9357  0.8626  0.4261
  162DOPC  H13A19524   0.142   7.383   9.763  0.1101  1.7611  1.6592
  162DOPC  H13B19525   0.076   7.312   9.911  0.6032  1.6149  1.4689
  162DOPC  H13C19526   0.238   7.305   9.868  0.1132 -0.0629 -1.6257
  162DOPC   C1419527   0.179   7.054   9.843  0.1958  0.2184 -0.0682
  162DOPC  H14A19528   0.190   6.960   9.791  1.6175 -0.9131  2.1105
  162DOPC  H14B19529   0.269   7.074   9.900 -0.3552  0.8750  0.5966
  162DOPC  H14C19530   0.094   7.038   9.908  1.0295  0.6670  1.1657
  162DOPC   C1519531  -0.012   7.147   9.720 -1.0474  0.3846 -0.3055
  162DOPC  H15A19532  -0.065   7.110   9.807 -0.8713  0.3613 -0.2091
  162DOPC  H15B19533  -0.033   7.077   9.640 -1.2115 -0.4859  0.4850
  162DOPC  H15C19534  -0.047   7.244   9.690 -0.0380  0.8495 -0.0006
  162DOPC   C1119535   0.218   7.089   9.514  0.2210  0.2824  0.9263
  162DOPC  H11A19536   0.117   7.081   9.468  0.7936  2.1242 -0.8215
  162DOPC  H11B19537   0.280   7.135   9.435  0.3728 -0.4384  0.6191
  162DOPC     P19538   0.381   6.916   9.602 -0.3694  0.1243 -0.0846
  162DOPC   O1319539   0.365   6.808   9.704  0.5077  0.3868  0.0516
  162DOPC   O1419540   0.466   7.029   9.643 -0.0846 -0.0112 -0.1280
  162DOPC   O1219541   0.237   6.949   9.546  0.0694  0.2539 -0.0666
  162DOPC   O1119542   0.438   6.854   9.470 -0.2652  0.2105  0.5622
  162DOPC    C119543   0.418   6.881   9.331  0.1103 -0.3791 -0.7188
  162DOPC    HA19544   0.317   6.915   9.300  0.7114  1.0117 -1.2354
  162DOPC    HB19545   0.435   6.788   9.273 -0.9796 -0.6801 -0.5872
  162DOPC    C219546   0.533   6.971   9.275  1.0740 -0.0565  1.2656
  162DOPC    HS19547   0.494   7.074   9.292 -0.2199 -0.8904  3.7468
  162DOPC   O2119548   0.552   6.930   9.132  0.3741  0.0249 -0.1476
  162DOPC   C2119549   0.568   7.038   9.056  0.4368  0.5239  0.6430
  162DOPC   O2219550   0.545   7.148   9.087 -0.1233 -0.7725  0.0258
  162DOPC   C2219551   0.602   6.997   8.920 -0.9755 -0.9821  0.1818
  162DOPC   H2R19552   0.509   6.964   8.867  0.1747  0.2945 -2.8388
  162DOPC   H2S19553   0.675   6.913   8.922  0.0520 -0.0908  1.0619
  162DOPC    C319554   0.665   6.959   9.348  0.0355  0.2956 -0.0232
  162DOPC    HX19555   0.687   6.850   9.354  0.0864  0.3814  3.0402
  162DOPC    HY19556   0.663   6.988   9.456  1.6671 -2.0306  0.7153
  162DOPC   O3119557   0.759   7.030   9.276 -0.0693  0.2610 -0.3383
  162DOPC   C3119558   0.873   7.061   9.341  0.4440  0.5140  0.0426
  162DOPC   O3219559   0.900   7.014   9.451 -0.7018 -0.6506 -0.2467
  162DOPC   C3219560   0.950   7.173   9.269  0.3574  0.6321 -0.2957
  162DOPC   H2X19561   0.883   7.218   9.193  1.6145  1.7545 -0.7854
  162DOPC   H2Y19562   0.964   7.256   9.342 -0.6902  0.9882 -0.4912
  162DOPC   C2319563   0.661   7.114   8.841  0.2569  0.3731 -0.1944
  162DOPC   H3R19564   0.602   7.206   8.859  0.1276  0.1918  0.3490
  162DOPC   H3S19565   0.657   7.091   8.733  1.1115 -0.9763  0.0288
  162DOPC   C2419566   0.807   7.134   8.864  0.0594 -0.6043 -0.5252
  162DOPC   H4R19567   0.855   7.037   8.889 -2.7264 -1.3904  2.4640
  162DOPC   H4S19568   0.827   7.210   8.943  1.5694  0.0535 -1.4971
  162DOPC   C2519569   0.868   7.190   8.735  0.2020  1.3496  0.2334
  162DOPC   H5R19570   0.854   7.300   8.741 -0.6100  1.2123  1.1155
  162DOPC   H5S19571   0.828   7.138   8.645  3.7901 -3.3563  0.9569
  162DOPC   C2619572   1.020   7.185   8.728 -0.0874 -0.5659 -0.2501
  162DOPC   H6R19573   1.055   7.079   8.733 -0.7255 -0.7724 -0.1184
  162DOPC   H6S19574   1.045   7.239   8.822 -0.7650 -0.9111  0.1391
  162DOPC   C2719575   1.069   7.258   8.606 -0.0842 -0.0697  0.3450
  162DOPC   H7R19576   1.036   7.364   8.605 -3.1168 -0.9192 -1.5542
  162DOPC   H7S19577   1.014   7.209   8.524  1.6292  0.0016 -0.9103
  162DOPC   C2819578   1.217   7.246   8.578 -1.0049 -0.2513 -0.2812
  162DOPC   H8R19579   1.242   7.288   8.478  0.6776 -2.0295 -0.6950
  162DOPC   H8S19580   1.233   7.136   8.579 -0.5874 -0.1976 -0.6884
  162DOPC   C2919581   1.302   7.314   8.683  0.1143 -0.5549 -0.0512
  162DOPC   H9R19582   1.342   7.413   8.658  0.0702 -0.4227  0.3937
  162DOPC  C21019583   1.365   7.259   8.786  0.7631 -0.6401  0.1737
  162DOPC  H10R19584   1.436   7.323   8.842  0.3830  0.2856 -0.3707
  162DOPC  C21119585   1.362   7.114   8.827 -0.3874 -0.3138  0.1558
  162DOPC  H11R19586   1.274   7.063   8.782 -0.7079  1.2825 -1.1435
  162DOPC  H11S19587   1.368   7.107   8.938  2.7349  0.6966  0.1303
  162DOPC  C21219588   1.496   7.052   8.771 -0.3878  0.6298 -0.1676
  162DOPC  H12R19589   1.592   7.092   8.809  0.2779 -0.1312 -0.9941
  162DOPC  H12S19590   1.502   7.069   8.661  0.7243 -1.0220 -0.4005
  162DOPC  C21319591   1.486   6.893   8.781  0.4408  0.1701 -0.2368
  162DOPC  H13R19592   1.390   6.868   8.832  1.0137 -1.9079 -0.0932
  162DOPC  H13S19593   1.566   6.859   8.849 -1.8894 -2.3332  1.4704
  162DOPC  C21419594   1.501   6.807   8.654 -0.7665  0.1236 -0.0814
  162DOPC  H14R19595   1.438   6.843   8.570 -0.0013  1.1295 -0.2389
  162DOPC  H14S19596   1.486   6.701   8.682  1.2717  0.3577  2.1635
  162DOPC  C21519597   1.648   6.805   8.600  0.0039  0.1036 -0.6530
  162DOPC  H15R19598   1.656   6.720   8.530 -0.2033  0.1192 -0.6960
  162DOPC  H15S19599   1.722   6.767   8.674 -1.1676 -1.2517 -0.1254
  162DOPC  C21619600   1.682   6.930   8.517  0.8311  0.0187  1.2456
  162DOPC  H16R19601   1.707   7.016   8.583  0.8967  1.8596 -1.0247
  162DOPC  H16S19602   1.586   6.966   8.475  1.2925  2.7377  2.2926
  162DOPC  C21719603   1.786   6.915   8.410 -0.0271  0.2267  0.1482
  162DOPC  H17R19604   1.774   6.809   8.379  0.0887  0.5603 -1.0810
  162DOPC  H17S19605   1.887   6.922   8.456  0.0583  0.8551 -0.1265
  162DOPC  C21819606   1.773   7.017   8.292 -0.1433  0.0146 -0.1829
  162DOPC  H18R19607   1.682   7.003   8.229  1.6025 -2.8912 -2.3288
  162DOPC  H18S19608   1.857   7.008   8.220 -0.9719  3.3197 -1.7689
  162DOPC  H18T19609   1.788   7.119   8.333  0.3787 -0.0627 -0.1827
  162DOPC   C3319610   1.083   7.129   9.215 -0.6579  0.1904  0.2331
  162DOPC   H3X19611   1.146   7.074   9.288  0.2688  0.3131 -0.4438
  162DOPC   H3Y19612   1.138   7.219   9.180 -1.2225 -0.1387 -1.6137
  162DOPC   C3419613   1.058   7.029   9.101 -0.9932  0.1871 -0.0473
  162DOPC   H4X19614   1.038   7.073   9.001  0.0522 -1.9356 -1.2717
  162DOPC   H4Y19615   0.971   6.960   9.111  1.6363 -3.6635 -1.2872
  162DOPC   C3519616   1.170   6.923   9.094 -0.0084  0.9921 -0.1303
  162DOPC   H5X19617   1.169   6.868   9.191  1.0743  0.8952 -0.1655
  162DOPC   H5Y19618   1.273   6.957   9.073  1.1756 -2.3226 -0.3677
  162DOPC   C3619619   1.151   6.810   8.992 -0.3294  0.7546 -0.1753
  162DOPC   H6X19620   1.121   6.865   8.901 -3.0327  0.8236  0.6735
  162DOPC   H6Y19621   1.251   6.763   8.982 -0.5142  0.0941  0.8894
  162DOPC   C3719622   1.036   6.722   9.024 -0.3166  0.4427 -0.4370
  162DOPC   H7X19623   1.068   6.681   9.122 -0.2504  2.7140  0.5435
  162DOPC   H7Y19624   0.946   6.783   9.044 -1.2127 -0.6947 -0.8671
  162DOPC   C3819625   1.012   6.622   8.908 -0.3806  0.0770  0.0569
  162DOPC   H8X19626   0.948   6.540   8.947  0.5441 -1.6172 -1.8080
  162DOPC   H8Y19627   1.109   6.576   8.882 -1.1185 -1.0683 -0.7759
  162DOPC   C3919628   0.959   6.688   8.785 -0.2838  0.2524 -0.2623
  162DOPC   H9X19629   0.948   6.798   8.783 -1.0669  0.1730 -0.5106
  162DOPC  C31019630   0.918   6.627   8.672  0.4295  0.0739  0.2396
  162DOPC  H10X19631   0.890   6.687   8.584  2.1627 -1.1691 -1.2321
  162DOPC  C31119632   0.912   6.480   8.634 -0.1204  0.4352 -0.1769
  162DOPC  H11X19633   0.811   6.440   8.657 -0.1675  1.8727  2.5083
  162DOPC  H11Y19634   0.989   6.427   8.695  0.5702  1.4558 -0.1186
  162DOPC  C31219635   0.942   6.445   8.485  0.4784  0.5409 -0.4581
  162DOPC  H12X19636   0.953   6.334   8.478 -1.0641  0.4564 -3.3592
  162DOPC  H12Y19637   1.036   6.493   8.449  1.5558  0.5488  2.1520
  162DOPC  C31319638   0.829   6.493   8.391  0.6561 -0.0825  0.3563
  162DOPC  H13X19639   0.732   6.438   8.390  0.3894  0.3888 -0.1867
  162DOPC  H13Y19640   0.793   6.590   8.430 -0.3833 -0.2941 -0.0291
  162DOPC  C31419641   0.880   6.498   8.249 -0.3878  1.0633  0.1767
  162DOPC  H14X19642   0.979   6.549   8.248  0.7640 -1.0548  0.4057
  162DOPC  H14Y19643   0.904   6.394   8.217  2.2699  2.1596 -1.7544
  162DOPC  C31519644   0.781   6.544   8.142  0.0772  0.2512 -0.1981
  162DOPC  H15X19645   0.688   6.569   8.197  0.2846 -0.6474  0.5863
  162DOPC  H15Y19646   0.755   6.457   8.078  3.1875 -2.8602  2.4177
  162DOPC  C31619647   0.833   6.672   8.067  0.5369 -0.4491 -0.4907
  162DOPC  H16X19648   0.743   6.700   8.009 -0.8796 -1.6804  1.0089
  162DOPC  H16Y19649   0.845   6.745   8.150 -0.2596 -0.3902 -0.4188
  162DOPC  C31719650   0.976   6.665   8.002  0.2926 -0.3471  0.1223
  162DOPC  H17X19651   0.992   6.762   7.951  2.0822 -1.5051 -1.6669
  162DOPC  H17Y19652   1.051   6.657   8.084  0.5464  0.4765 -0.0247
  162DOPC  C31819653   0.991   6.549   7.899  0.2281  0.0844 -0.0827
  162DOPC  H18X19654   0.966   6.446   7.932  1.6860 -0.4550 -0.5754
  162DOPC  H18Y19655   0.934   6.574   7.807  0.5038  0.2332 -0.2170
  162DOPC  H18Z19656   1.098   6.532   7.874  0.4144 -2.4568  2.0048
  163DOPC     N19657   8.192   1.820   9.292 -0.2136 -0.2404  0.4967
  163DOPC   C1219658   8.299   1.718   9.304  0.1698  0.1722 -0.4592
  163DOPC  H12A19659   8.280   1.639   9.233  0.1693  1.4369 -1.9385
  163DOPC  H12B19660   8.290   1.681   9.405 -0.9716 -0.7173 -0.8659
  163DOPC   C1319661   8.220   1.930   9.391  0.1476 -0.2803  0.4969
  163DOPC  H13A19662   8.217   1.888   9.490  1.8381 -2.1705 -0.1840
  163DOPC  H13B19663   8.316   1.975   9.370  0.3120 -0.6146  0.5366
  163DOPC  H13C19664   8.140   2.003   9.382 -0.3662 -0.7308  1.2896
  163DOPC   C1419665   8.053   1.757   9.304 -1.0959 -0.3084  0.3864
  163DOPC  H14A19666   7.976   1.832   9.301 -0.3721  0.4618  0.5798
  163DOPC  H14B19667   8.046   1.678   9.230  0.8727 -0.6762  0.5293
  163DOPC  H14C19668   8.049   1.721   9.406 -0.4890 -0.5453  0.3318
  163DOPC   C1519669   8.185   1.883   9.161 -0.4481 -0.3254  0.3394
  163DOPC  H15A19670   8.190   1.819   9.075 -2.1766  0.6151 -0.5051
  163DOPC  H15B19671   8.275   1.942   9.153 -1.0626  0.4269 -1.4272
  163DOPC  H15C19672   8.109   1.956   9.139  0.1786  0.8873  1.9585
  163DOPC   C1119673   8.450   1.756   9.276 -0.8040  0.1906 -0.1335
  163DOPC  H11A19674   8.512   1.667   9.300  0.2703  0.9350 -0.0372
  163DOPC  H11B19675   8.448   1.777   9.166 -2.6093 -1.4806 -0.4599
  163DOPC     P19676   8.607   1.957   9.325 -0.5380 -0.4289  0.3909
  163DOPC   O1319677   8.742   1.903   9.362  0.0550 -0.1366 -0.9720
  163DOPC   O1419678   8.571   2.096   9.365  0.0118 -0.6502 -0.0762
  163DOPC   O1219679   8.496   1.861   9.359  0.0127  0.5799  0.1297
  163DOPC   O1119680   8.602   1.962   9.171  0.3181 -0.1804 -0.1892
  163DOPC    C119681   8.715   1.935   9.089  0.0155 -0.1070 -0.1155
  163DOPC    HA19682   8.777   1.851   9.127  0.3017 -0.2184 -0.8153
  163DOPC    HB19683   8.775   2.026   9.068  0.1447 -0.0508  0.4734
  163DOPC    C219684   8.670   1.881   8.951  0.0558 -0.2924 -0.1745
  163DOPC    HS19685   8.610   1.788   8.966  0.6598 -0.6552  0.0143
  163DOPC   O2119686   8.782   1.865   8.861  0.5232 -0.1087  0.5021
  163DOPC   C2119687   8.766   1.768   8.773  0.1752 -0.1492  0.1103
  163DOPC   O2219688   8.684   1.678   8.765 -0.1292 -0.0694 -0.2220
  163DOPC   C2219689   8.881   1.791   8.675  0.7762  0.0845  0.0187
  163DOPC   H2R19690   8.969   1.786   8.743  0.8486  0.1861 -0.0667
  163DOPC   H2S19691   8.858   1.891   8.634  0.6385  0.3174  0.6567
  163DOPC    C319692   8.574   1.977   8.882  0.3883  0.8100 -0.0723
  163DOPC    HX19693   8.628   2.072   8.859  1.9082  0.7776  2.8149
  163DOPC    HY19694   8.500   2.017   8.954 -0.7454 -1.9620  0.4172
  163DOPC   O3119695   8.512   1.918   8.762 -0.1358 -0.0272 -0.2170
  163DOPC   C3119696   8.412   1.828   8.792 -0.2203 -0.6774  0.0117
  163DOPC   O3219697   8.368   1.811   8.906 -0.0669 -0.2834  0.6083
  163DOPC   C3219698   8.358   1.766   8.663  0.0524  0.8739 -0.6828
  163DOPC   H2X19699   8.274   1.836   8.641 -2.0551 -1.3485 -0.0978
  163DOPC   H2Y19700   8.434   1.771   8.582  0.2161  2.1806 -0.4740
  163DOPC   C2319701   8.894   1.679   8.565  0.2520 -0.0800  0.0244
  163DOPC   H3R19702   8.793   1.644   8.532  0.6510 -1.0339 -0.2159
  163DOPC   H3S19703   8.944   1.584   8.592 -0.0102 -0.8091 -1.8403
  163DOPC   C2419704   8.961   1.727   8.436 -0.4231  0.3627 -0.8755
  163DOPC   H4R19705   9.058   1.772   8.465  0.1552 -0.7055 -1.1509
  163DOPC   H4S19706   8.904   1.812   8.391  0.5687  0.4897 -1.9339
  163DOPC   C2519707   8.977   1.624   8.324  0.2800 -0.0075  0.1414
  163DOPC   H5R19708   8.887   1.559   8.314 -0.9832  1.6391  0.3727
  163DOPC   H5S19709   9.065   1.559   8.343  0.7169  0.0790 -1.4439
  163DOPC   C2619710   9.007   1.677   8.187  0.3235  0.6202  1.1035
  163DOPC   H6R19711   9.102   1.734   8.185  0.6290  0.3821  4.1967
  163DOPC   H6S19712   8.924   1.742   8.152 -1.3042 -0.4594  2.7883
  163DOPC   C2719713   9.013   1.570   8.070  0.0605 -0.1502 -0.3078
  163DOPC   H7R19714   8.909   1.553   8.034 -0.5729  0.4705  1.1063
  163DOPC   H7S19715   9.055   1.474   8.106  1.0437  0.6026  0.6619
  163DOPC   C2819716   9.096   1.625   7.960  0.6068 -0.1053  0.6769
  163DOPC   H8R19717   9.198   1.653   7.994  1.1206 -1.4758  0.3540
  163DOPC   H8S19718   9.058   1.720   7.917  1.0439  0.3760  1.3284
  163DOPC   C2919719   9.123   1.532   7.854  0.0255  0.6882  0.4396
  163DOPC   H9R19720   9.219   1.477   7.860 -0.4987 -0.4273 -0.9070
  163DOPC  C21019721   9.038   1.507   7.748  0.0510  0.6339 -0.2486
  163DOPC  H10R19722   9.064   1.433   7.671  3.6519 -1.2158  2.4591
  163DOPC  C21119723   8.908   1.580   7.720  0.1277  0.5715  0.2305
  163DOPC  H11R19724   8.890   1.649   7.805  3.0192  0.4901  1.0153
  163DOPC  H11S19725   8.817   1.516   7.724  0.0718  0.6896  0.9621
  163DOPC  C21219726   8.932   1.678   7.603 -0.1773  0.4940 -0.6126
  163DOPC  H12R19727   8.949   1.613   7.515  2.4199 -1.3840  1.1339
  163DOPC  H12S19728   9.026   1.736   7.614  1.4692 -2.4629  2.8727
  163DOPC  C21319729   8.808   1.758   7.566  0.4309 -0.1338  0.8145
  163DOPC  H13R19730   8.717   1.697   7.551  0.3560  0.1859 -0.0773
  163DOPC  H13S19731   8.826   1.791   7.462  0.1286  0.3264  0.9087
  163DOPC  C21419732   8.792   1.883   7.640 -0.4334  0.0469  0.4478
  163DOPC  H14R19733   8.782   1.868   7.749  0.3363  1.1435  0.6820
  163DOPC  H14S19734   8.690   1.917   7.614 -1.6747 -3.0715  0.7631
  163DOPC  C21519735   8.902   1.980   7.614 -0.2535  0.5619 -0.3543
  163DOPC  H15R19736   8.920   1.992   7.505  1.9440 -0.3435 -0.1552
  163DOPC  H15S19737   8.999   1.940   7.652  0.8744  2.1998 -1.3932
  163DOPC  C21619738   8.862   2.114   7.665 -0.2540 -1.6385  0.8070
  163DOPC  H16R19739   8.756   2.130   7.637 -0.2602  0.8584  1.9114
  163DOPC  H16S19740   8.925   2.193   7.620  0.4975 -1.5811  1.9103
  163DOPC  C21719741   8.874   2.125   7.817  0.7973 -0.8568 -0.5625
  163DOPC  H17R19742   8.973   2.082   7.845  0.6245 -2.0327 -1.6818
  163DOPC  H17S19743   8.798   2.058   7.862 -0.0383  0.6497  0.3297
  163DOPC  C21819744   8.855   2.265   7.881  0.7557 -0.1793  0.9061
  163DOPC  H18R19745   8.765   2.307   7.830  0.5909 -0.4711  0.9541
  163DOPC  H18S19746   8.936   2.339   7.869  0.1627  0.4527  0.7166
  163DOPC  H18T19747   8.826   2.254   7.988 -0.2568 -1.3056  0.5457
  163DOPC   C3319748   8.283   1.633   8.675  0.5214 -0.2908  0.5147
  163DOPC   H3X19749   8.235   1.634   8.775  1.1760  2.0535  0.8573
  163DOPC   H3Y19750   8.349   1.543   8.670 -0.3628 -0.9416  0.2348
  163DOPC   C3419751   8.172   1.617   8.565 -0.6816  0.0382 -0.2436
  163DOPC   H4X19752   8.189   1.690   8.483 -0.6632  1.2946  0.8380
  163DOPC   H4Y19753   8.073   1.631   8.613  0.3515 -0.2545  2.1190
  163DOPC   C3519754   8.183   1.484   8.485  0.5253  0.1971  0.0667
  163DOPC   H5X19755   8.216   1.398   8.549  2.0337  1.7888  1.5257
  163DOPC   H5Y19756   8.257   1.485   8.403 -0.1549  0.4260 -0.5544
  163DOPC   C3619757   8.043   1.446   8.442 -0.0181  0.7340  0.5610
  163DOPC   H6X19758   7.989   1.454   8.539 -0.8904  0.9763  0.0646
  163DOPC   H6Y19759   8.002   1.518   8.368 -1.4485  3.0877  3.4139
  163DOPC   C3719760   8.028   1.303   8.388 -0.7969  0.7231  0.0850
  163DOPC   H7X19761   8.104   1.303   8.307 -0.5167 -2.4533  0.2251
  163DOPC   H7Y19762   8.058   1.228   8.465 -2.4141  0.4479  0.4736
  163DOPC   C3819763   7.893   1.260   8.322  0.2804  0.6141 -0.4657
  163DOPC   H8X19764   7.910   1.198   8.231  2.3995  0.2064  0.1546
  163DOPC   H8Y19765   7.842   1.352   8.286  3.2719  1.9094 -1.6832
  163DOPC   C3919766   7.796   1.208   8.433 -0.6674 -0.8788 -0.0587
  163DOPC   H9X19767   7.814   1.259   8.529  0.9923  1.2558 -1.3916
  163DOPC  C31019768   7.707   1.111   8.436  0.5470 -1.0736  0.6403
  163DOPC  H10X19769   7.661   1.099   8.535 -1.5524  1.3025  0.0818
  163DOPC  C31119770   7.664   1.026   8.320  0.3362 -0.3563  0.1830
  163DOPC  H11X19771   7.695   1.081   8.229 -0.1754 -0.1845  0.1090
  163DOPC  H11Y19772   7.554   1.023   8.304  0.3999  0.0584 -0.3425
  163DOPC  C31219773   7.720   0.883   8.322  0.6765 -0.2011 -0.5436
  163DOPC  H12X19774   7.667   0.835   8.407 -0.9922  2.2962 -0.0850
  163DOPC  H12Y19775   7.830   0.884   8.332  0.6890  1.2407 -0.6427
  163DOPC  C31319776   7.684   0.800   8.196 -0.2397 -0.2057 -0.0764
  163DOPC  H13X19777   7.717   0.694   8.203  2.3687  0.5329  0.0256
  163DOPC  H13Y19778   7.574   0.795   8.186 -0.2342  0.9291 -0.9377
  163DOPC  C31419779   7.747   0.863   8.070 -0.1529  0.2799 -0.1411
  163DOPC  H14X19780   7.702   0.961   8.043  1.7846  2.0623  2.5497
  163DOPC  H14Y19781   7.853   0.880   8.097  0.4013 -0.7119 -1.5839
  163DOPC  C31519782   7.725   0.764   7.957 -0.4513 -0.1820 -0.3330
  163DOPC  H15X19783   7.619   0.749   7.930  0.3218 -1.2233 -3.1843
  163DOPC  H15Y19784   7.761   0.663   7.985 -1.3930 -0.2030  0.8575
  163DOPC  C31619785   7.801   0.807   7.837  0.6635 -0.2992 -0.2914
  163DOPC  H16X19786   7.764   0.745   7.752  0.2245  1.1010 -1.1520
  163DOPC  H16Y19787   7.781   0.913   7.811 -0.4700 -0.2786  0.6155
  163DOPC  C31719788   7.952   0.818   7.852 -0.2288 -0.2750 -0.5692
  163DOPC  H17X19789   7.981   0.905   7.916  0.4882  0.6829 -2.1352
  163DOPC  H17Y19790   7.994   0.726   7.898  0.5757  2.0833  3.9970
  163DOPC  C31819791   8.024   0.852   7.718 -0.0180 -0.1860 -0.3583
  163DOPC  H18X19792   7.998   0.766   7.651 -2.5746 -0.5739  1.0104
  163DOPC  H18Y19793   7.982   0.945   7.674 -0.2409  0.6043  1.4502
  163DOPC  H18Z19794   8.130   0.877   7.737 -0.5911  1.0500  1.4672
  164DOPC     N19795   1.092   0.233   9.163 -0.2626 -0.1808 -0.4773
  164DOPC   C1219796   1.246   0.223   9.156 -0.2204  0.5475  0.3421
  164DOPC  H12A19797   1.283   0.229   9.257  1.4948 -3.3681  0.1458
  164DOPC  H12B19798   1.285   0.312   9.109  0.6157  0.0659  0.0997
  164DOPC   C1319799   1.034   0.133   9.258 -0.4637 -0.0429 -0.0653
  164DOPC  H13A19800   0.927   0.136   9.257 -0.4278  1.5710 -0.5565
  164DOPC  H13B19801   1.065   0.033   9.231  1.6972  0.7923 -0.9409
  164DOPC  H13C19802   1.065   0.142   9.362  2.2736 -2.2573 -0.5525
  164DOPC   C1419803   1.037   0.218   9.026  0.5306  0.2177  0.7925
  164DOPC  H14A19804   1.062   0.120   8.987  1.6114  0.5479  0.6223
  164DOPC  H14B19805   0.929   0.211   9.036  0.6092 -1.0541  0.9411
  164DOPC  H14C19806   1.074   0.291   8.956 -0.2998  0.3942  0.5199
  164DOPC   C1519807   1.059   0.375   9.216  0.5129  0.3219 -0.7466
  164DOPC  H15A19808   1.086   0.391   9.319  0.8164 -0.9137 -0.6184
  164DOPC  H15B19809   0.953   0.398   9.215  0.4191 -0.1010 -1.1799
  164DOPC  H15C19810   1.113   0.452   9.163  0.5324 -1.3280 -3.2794
  164DOPC   C1119811   1.315   0.101   9.086 -0.5378  0.0701  0.6058
  164DOPC  H11A19812   1.327   0.117   8.977  0.8494 -1.3047  0.5183
  164DOPC  H11B19813   1.421   0.117   9.116  0.0956  1.1703 -1.9476
  164DOPC     P19814   1.307  -0.097   9.248 -0.5701 -0.4147  0.2518
  164DOPC   O1319815   1.234  -0.226   9.273 -0.0548  0.1435  0.2813
  164DOPC   O1419816   1.298   0.000   9.359 -1.3571 -0.1296  0.8949
  164DOPC   O1219817   1.257  -0.032   9.114  0.4218  0.1312  0.1206
  164DOPC   O1119818   1.460  -0.120   9.211 -0.0625 -0.0989 -0.3001
  164DOPC    C119819   1.508  -0.216   9.121  0.2316 -0.3417 -0.1955
  164DOPC    HA19820   1.467  -0.207   9.018 -2.0716 -0.3258  0.6586
  164DOPC    HB19821   1.493  -0.321   9.155  4.5209 -0.2895  2.6197
  164DOPC    C219822   1.660  -0.216   9.112  0.7484  0.5011 -1.0084
  164DOPC    HS19823   1.696  -0.268   9.204 -0.6804 -0.4322 -0.9460
  164DOPC   O2119824   1.703  -0.075   9.109 -0.1709 -0.1383  0.1207
  164DOPC   C2119825   1.831  -0.065   9.152 -0.6783 -0.1973  0.9433
  164DOPC   O2219826   1.894  -0.157   9.209  0.1941  0.3151  0.3790
  164DOPC   C2219827   1.882   0.071   9.106  0.3110  0.4094 -0.2092
  164DOPC   H2R19828   1.904   0.129   9.199  0.2878  2.2688 -1.3087
  164DOPC   H2S19829   1.801   0.134   9.062  0.2836  1.0434  0.7156
  164DOPC    C319830   1.710  -0.295   8.986  0.1041 -0.0635  0.0845
  164DOPC    HX19831   1.696  -0.402   9.012  1.0219 -0.5933 -1.4168
  164DOPC    HY19832   1.818  -0.266   8.986  0.0526  0.1245  0.7614
  164DOPC   O3119833   1.646  -0.260   8.860 -0.1394 -0.5605 -0.6341
  164DOPC   C3119834   1.709  -0.319   8.756 -1.1515  0.2326 -0.9105
  164DOPC   O3219835   1.797  -0.405   8.768  0.0043 -0.1461  0.2406
  164DOPC   C3219836   1.672  -0.253   8.630 -0.3414 -0.5791 -0.3005
  164DOPC   H2X19837   1.566  -0.270   8.603 -0.6613 -1.2888  1.2883
  164DOPC   H2Y19838   1.680  -0.145   8.656  2.1190 -1.1457  1.7038
  164DOPC   C2319839   1.998   0.074   9.009  0.1753 -0.6297 -0.6267
  164DOPC   H3R19840   2.074  -0.001   9.038  1.2909  0.1898 -1.3820
  164DOPC   H3S19841   2.047   0.173   9.022 -0.7864 -0.2418  0.1747
  164DOPC   C2419842   1.946   0.045   8.866 -0.1249  0.0813  0.6146
  164DOPC   H4R19843   1.897  -0.055   8.867  0.2942 -0.1790 -1.2073
  164DOPC   H4S19844   2.025   0.017   8.793 -0.0356  0.4091  0.5856
  164DOPC   C2519845   1.846   0.144   8.810 -0.2883  0.3473 -0.2939
  164DOPC   H5R19846   1.882   0.249   8.822 -0.7263  0.9172 -3.2609
  164DOPC   H5S19847   1.750   0.133   8.865  0.1325 -0.9975  0.2105
  164DOPC   C2619848   1.830   0.130   8.660  0.2764  0.6573 -0.0822
  164DOPC   H6R19849   1.790   0.032   8.624  1.8821  0.1806 -0.6394
  164DOPC   H6S19850   1.933   0.134   8.618  1.0573  0.7593  1.7783
  164DOPC   C2719851   1.739   0.243   8.607 -0.0874  0.8891  0.4539
  164DOPC   H7R19852   1.791   0.336   8.640  0.6519  0.7234 -0.2193
  164DOPC   H7S19853   1.639   0.240   8.655 -0.6265  2.9693 -0.4251
  164DOPC   C2819854   1.713   0.238   8.454 -0.2735 -0.0458 -0.1289
  164DOPC   H8R19855   1.643   0.153   8.439 -1.4904  0.6731  1.1748
  164DOPC   H8S19856   1.816   0.229   8.414  0.0774  0.5848  0.5928
  164DOPC   C2919857   1.659   0.371   8.412 -0.1679  0.7191  0.1113
  164DOPC   H9R19858   1.571   0.393   8.474 -0.7338 -0.2411 -0.3238
  164DOPC  C21019859   1.721   0.461   8.327  0.2996 -1.2039  0.5861
  164DOPC  H10R19860   1.671   0.558   8.312  0.3595 -1.3966 -1.0826
  164DOPC  C21119861   1.845   0.451   8.241  0.0693  0.3680 -0.6593
  164DOPC  H11R19862   1.829   0.498   8.142  1.5475  2.0255 -0.1664
  164DOPC  H11S19863   1.888   0.348   8.237 -0.6924  0.0044  0.1253
  164DOPC  C21219864   1.967   0.536   8.295 -0.1643  0.8191  0.1512
  164DOPC  H12R19865   1.935   0.643   8.294 -1.6789  0.3780 -1.0765
  164DOPC  H12S19866   2.044   0.510   8.219  2.6990 -0.9997  3.3614
  164DOPC  C21319867   2.016   0.491   8.440 -0.4002 -0.1287  0.8759
  164DOPC  H13R19868   2.020   0.380   8.434 -2.0855 -0.2162  0.8950
  164DOPC  H13S19869   1.936   0.506   8.515 -0.7618 -0.5907  0.5843
  164DOPC  C21419870   2.147   0.560   8.482  0.2920  1.3927  0.0821
  164DOPC  H14R19871   2.127   0.618   8.574  0.5796  1.2556  0.2338
  164DOPC  H14S19872   2.202   0.631   8.416  2.5164  0.8298  1.2050
  164DOPC  C21519873   2.263   0.458   8.507  0.2969  0.4628  0.2071
  164DOPC  H15R19874   2.250   0.377   8.581  3.4583 -1.8598 -1.4950
  164DOPC  H15S19875   2.349   0.517   8.546  1.2034 -0.2547 -0.6479
  164DOPC  C21619876   2.313   0.403   8.377 -0.1853 -0.0394 -0.4423
  164DOPC  H16R19877   2.301   0.480   8.298 -3.8719 -0.5807 -0.5706
  164DOPC  H16S19878   2.244   0.323   8.343 -2.3563  0.6972  1.9457
  164DOPC  C21719879   2.467   0.370   8.381 -0.4614 -0.5959 -0.0897
  164DOPC  H17R19880   2.484   0.277   8.440  0.7094  0.3464  1.1198
  164DOPC  H17S19881   2.525   0.453   8.426  1.6022 -1.3404 -1.2358
  164DOPC  C21819882   2.517   0.338   8.240  0.0869  0.5512 -0.1472
  164DOPC  H18R19883   2.626   0.316   8.243  0.2916  1.5811  0.8099
  164DOPC  H18S19884   2.502   0.425   8.172  1.1308 -0.7215 -2.0771
  164DOPC  H18T19885   2.464   0.252   8.194  1.6677 -0.6360  0.1712
  164DOPC   C3319886   1.754  -0.284   8.503  0.1661 -0.3099 -1.1153
  164DOPC   H3X19887   1.720  -0.386   8.473 -0.4067 -0.7627  0.8916
  164DOPC   H3Y19888   1.861  -0.280   8.533  0.1907  2.2695 -1.3185
  164DOPC   C3419889   1.723  -0.187   8.394 -0.3252 -0.4703  0.1408
  164DOPC   H4X19890   1.794  -0.210   8.312 -1.0787 -2.1367 -0.0849
  164DOPC   H4Y19891   1.735  -0.084   8.434 -0.5003  0.0035 -1.0014
  164DOPC   C3519892   1.577  -0.184   8.342  0.1368  0.1366 -0.3383
  164DOPC   H5X19893   1.563  -0.112   8.258 -1.5894 -1.1367 -1.2148
  164DOPC   H5Y19894   1.508  -0.145   8.420  0.1573 -2.0956  0.8559
  164DOPC   C3619895   1.504  -0.323   8.322 -0.2869 -0.3150  0.2515
  164DOPC   H6X19896   1.545  -0.375   8.232  0.7752 -0.1922  0.6512
  164DOPC   H6Y19897   1.528  -0.386   8.410  3.0103 -0.4962 -0.6448
  164DOPC   C3719898   1.357  -0.303   8.314  0.2778 -0.1422  0.0150
  164DOPC   H7X19899   1.316  -0.272   8.412  1.6071 -1.2025  0.9288
  164DOPC   H7Y19900   1.329  -0.221   8.244 -0.9397  0.2551  0.9219
  164DOPC   C3819901   1.274  -0.429   8.274  0.3607  0.0390 -0.0462
  164DOPC   H8X19902   1.313  -0.515   8.334  0.7196 -0.6652 -1.2524
  164DOPC   H8Y19903   1.294  -0.445   8.166 -0.4288  0.5352 -0.2667
  164DOPC   C3919904   1.125  -0.403   8.301  0.0533 -0.1765 -0.2401
  164DOPC   H9X19905   1.094  -0.305   8.263 -3.0224 -0.6290  0.8110
  164DOPC  C31019906   1.036  -0.478   8.372  0.1760 -0.9753  0.8955
  164DOPC  H10X19907   0.932  -0.444   8.368 -0.0749 -1.7615  0.6109
  164DOPC  C31119908   1.061  -0.619   8.409  0.5336  0.0334 -0.3595
  164DOPC  H11X19909   1.050  -0.630   8.519 -1.7493  0.7207 -0.4617
  164DOPC  H11Y19910   1.163  -0.651   8.379  0.8470  1.0024 -0.3556
  164DOPC  C31219911   0.966  -0.713   8.339  0.1633  0.3219 -0.8433
  164DOPC  H12X19912   1.003  -0.817   8.337  0.8667  0.5543 -0.2496
  164DOPC  H12Y19913   0.969  -0.681   8.233 -1.4181  3.3330 -0.0914
  164DOPC  C31319914   0.817  -0.701   8.399 -0.4110  0.6508 -0.2276
  164DOPC  H13X19915   0.827  -0.730   8.506 -1.4603 -1.9249 -0.7501
  164DOPC  H13Y19916   0.784  -0.596   8.411 -0.3106  0.6653 -0.0793
  164DOPC  C31419917   0.708  -0.782   8.321 -0.6897  0.8069 -0.8760
  164DOPC  H14X19918   0.738  -0.889   8.318  0.7954  1.1367  0.8516
  164DOPC  H14Y19919   0.716  -0.760   8.212 -0.0426  2.0644 -0.5928
  164DOPC  C31519920   0.560  -0.762   8.368 -0.8504 -0.3487 -0.4820
  164DOPC  H15X19921   0.484  -0.784   8.290 -0.6961 -0.7140 -0.5285
  164DOPC  H15Y19922   0.547  -0.654   8.392 -2.3752 -0.5934 -0.1352
  164DOPC  C31619923   0.519  -0.838   8.489  0.3615 -0.1592 -0.5319
  164DOPC  H16X19924   0.569  -0.937   8.476 -0.7188 -0.5249 -2.2277
  164DOPC  H16Y19925   0.560  -0.782   8.576 -1.1159 -0.2501  0.2465
  164DOPC  C31719926   0.374  -0.867   8.504  0.4454 -0.5057 -0.2560
  164DOPC  H17X19927   0.345  -0.903   8.403 -0.6338 -0.3437 -0.0174
  164DOPC  H17Y19928   0.349  -0.951   8.573 -2.3930  0.8017  0.4389
  164DOPC  C31819929   0.289  -0.750   8.550  0.3976  0.1275  0.5081
  164DOPC  H18X19930   0.199  -0.793   8.599  1.2642 -0.1772  1.8834
  164DOPC  H18Y19931   0.337  -0.692   8.631 -1.6383  0.5251  1.4991
  164DOPC  H18Z19932   0.268  -0.682   8.464 -1.0114  2.0216  2.2527
  165DOPC     N19933   6.022   1.027   9.752  0.1054 -0.2291  0.5202
  165DOPC   C1219934   5.975   0.893   9.709 -0.1493  0.0459 -0.0863
  165DOPC  H12A19935   5.874   0.913   9.675  0.4012  0.1771 -1.7377
  165DOPC  H12B19936   5.968   0.827   9.794 -0.8070 -2.1545 -1.7589
  165DOPC   C1319937   6.032   1.111   9.628 -0.2964 -0.6121 -0.2898
  165DOPC  H13A19938   6.082   1.061   9.546 -0.6161 -0.3927 -0.6190
  165DOPC  H13B19939   5.936   1.138   9.589 -1.0407 -1.7302  0.6997
  165DOPC  H13C19940   6.096   1.197   9.637  3.2844 -3.1237  0.4987
  165DOPC   C1419941   6.153   1.006   9.818  0.6375 -0.4471 -0.4171
  165DOPC  H14A19942   6.199   1.102   9.834 -0.3724 -0.4199  3.1854
  165DOPC  H14B19943   6.139   0.963   9.916  1.6624  2.4898  1.1172
  165DOPC  H14C19944   6.214   0.944   9.754 -0.4924  0.3686 -2.3724
  165DOPC   C1519945   5.929   1.096   9.848 -0.9232 -0.5637 -0.1296
  165DOPC  H15A19946   5.826   1.094   9.814 -1.3150  0.3334  0.9770
  165DOPC  H15B19947   5.961   1.196   9.870 -1.1134 -0.8882  1.7307
  165DOPC  H15C19948   5.925   1.051   9.946  0.5817  0.6172  0.5131
  165DOPC   C1119949   6.062   0.810   9.613 -0.5074  0.6544  0.1303
  165DOPC  H11A19950   6.156   0.781   9.665  0.7830  1.2547 -1.7400
  165DOPC  H11B19951   6.003   0.718   9.594 -2.4183  1.5768  1.2717
  165DOPC     P19952   6.223   0.834   9.411 -0.5710 -0.5551  0.1212
  165DOPC   O1319953   6.260   0.692   9.410 -0.1891 -0.1224  0.5367
  165DOPC   O1419954   6.329   0.929   9.459  0.5201  0.7634  0.6685
  165DOPC   O1219955   6.084   0.872   9.481 -0.3506  0.4788 -0.1065
  165DOPC   O1119956   6.186   0.868   9.255 -0.0650  0.3650 -0.2068
  165DOPC    C119957   6.083   0.789   9.190 -0.5584 -0.3333  0.3139
  165DOPC    HA19958   6.003   0.859   9.158 -1.3823 -2.1345 -1.8922
  165DOPC    HB19959   6.045   0.706   9.253  0.9572 -1.2474  0.0714
  165DOPC    C219960   6.133   0.730   9.051  0.5857 -0.5592 -0.4635
  165DOPC    HS19961   6.220   0.661   9.063  0.5090 -0.4528  0.8852
  165DOPC   O2119962   6.168   0.833   8.957 -0.1671 -0.0396 -0.5394
  165DOPC   C2119963   6.295   0.879   8.980  0.3204 -0.1993 -0.1556
  165DOPC   O2219964   6.372   0.827   9.058 -0.2813 -0.1203 -0.6184
  165DOPC   C2219965   6.322   1.003   8.903  0.1817  0.2510 -0.7987
  165DOPC   H2R19966   6.269   1.079   8.964 -1.0767 -3.2245  2.8621
  165DOPC   H2S19967   6.274   0.997   8.802  1.0312 -0.5174 -1.1687
  165DOPC    C319968   6.017   0.643   8.988  0.2655  0.7735 -0.0810
  165DOPC    HX19969   5.926   0.699   9.019 -0.4865 -0.9082  0.9203
  165DOPC    HY19970   6.025   0.547   9.043  1.0601 -1.6484 -4.0642
  165DOPC   O3119971   6.014   0.624   8.852  0.1064 -0.3275 -0.4232
  165DOPC   C3119972   6.113   0.542   8.806 -0.1453 -0.4155 -1.2397
  165DOPC   O3219973   6.206   0.498   8.867  0.3821 -0.9527  0.2906
  165DOPC   C3219974   6.103   0.526   8.653 -0.0423  0.1824 -0.1033
  165DOPC   H2X19975   6.038   0.437   8.638 -1.4314  1.1063  0.2055
  165DOPC   H2Y19976   6.049   0.613   8.611  2.2649  1.3058 -0.9186
  165DOPC   C2319977   6.478   1.022   8.893 -0.3294  0.0779  0.6243
  165DOPC   H3R19978   6.534   0.937   8.849 -1.9056 -0.0872 -1.1846
  165DOPC   H3S19979   6.519   1.046   8.993  0.3174  0.3637  0.2937
  165DOPC   C2419980   6.501   1.150   8.805 -0.3886 -0.7119 -0.3373
  165DOPC   H4R19981   6.451   1.233   8.859  2.3387  2.5399 -2.3780
  165DOPC   H4S19982   6.449   1.147   8.706  0.3272  0.6639 -0.7753
  165DOPC   C2519983   6.646   1.197   8.774  0.1017  0.4615  0.3183
  165DOPC   H5R19984   6.704   1.124   8.712  3.1080  2.8796  0.0542
  165DOPC   H5S19985   6.704   1.206   8.868 -0.2894  0.5060  0.5536
  165DOPC   C2619986   6.653   1.334   8.714  0.7109 -0.1022 -0.1787
  165DOPC   H6R19987   6.602   1.397   8.791  0.1564  0.4641 -0.9969
  165DOPC   H6S19988   6.594   1.318   8.622  1.1830 -1.2248 -0.3022
  165DOPC   C2719989   6.793   1.378   8.690  0.4603  0.0111 -0.6165
  165DOPC   H7R19990   6.771   1.467   8.627 -0.2873 -0.1182 -0.5453
  165DOPC   H7S19991   6.836   1.293   8.633 -1.5131 -0.3396 -1.7002
  165DOPC   C2819992   6.869   1.427   8.813 -0.1896 -0.3458  0.0025
  165DOPC   H8R19993   6.894   1.339   8.876  0.1775 -0.7863 -0.7500
  165DOPC   H8S19994   6.808   1.498   8.873  0.2381  0.1669 -0.1608
  165DOPC   C2919995   7.003   1.496   8.768  0.3730 -0.1396 -0.4579
  165DOPC   H9R19996   7.081   1.421   8.753 -0.1878 -0.9863  0.7105
  165DOPC  C21019997   7.013   1.631   8.751  0.1062  0.1367  0.4495
  165DOPC  H10R19998   7.116   1.668   8.737  0.4839 -0.1275  2.2636
  165DOPC  C21119999   6.899   1.732   8.762 -0.3985  0.0017 -0.2187
  165DOPC  H11R20000   6.797   1.689   8.755  0.0392 -1.4599  1.6166
  165DOPC  H11S20001   6.910   1.798   8.673 -1.3871 -1.3528 -1.3909
  165DOPC  C21220002   6.898   1.808   8.899  0.4558 -0.4969 -0.0420
  165DOPC  H12R20003   6.983   1.878   8.913 -0.7084  1.0972 -0.5882
  165DOPC  H12S20004   6.903   1.720   8.967  0.3352 -2.6811 -2.6830
  165DOPC  C21320005   6.765   1.890   8.933  0.0881 -0.0203  1.0551
  165DOPC  H13R20006   6.765   1.933   9.035  0.3933 -2.1933  2.0268
  165DOPC  H13S20007   6.681   1.818   8.920  0.4383 -0.4069  0.8978
  165DOPC  C21420008   6.752   2.006   8.837 -0.4268 -0.6888  0.1771
  165DOPC  H14R20009   6.717   1.969   8.738  0.2288  1.7253 -1.0170
  165DOPC  H14S20010   6.842   2.068   8.819 -0.4114 -0.9565 -0.7062
  165DOPC  C21520011   6.635   2.100   8.871  0.4987  0.6813 -0.0976
  165DOPC  H15R20012   6.631   2.165   8.781  1.4259  1.3010  0.2888
  165DOPC  H15S20013   6.662   2.162   8.959  1.1088  0.4439 -0.1105
  165DOPC  C21620014   6.500   2.029   8.881 -0.6433 -0.2482 -0.2112
  165DOPC  H16R20015   6.498   1.956   8.965 -1.8618  0.2677  0.2234
  165DOPC  H16S20016   6.473   1.974   8.789 -1.1164 -0.8816  0.2945
  165DOPC  C21720017   6.387   2.139   8.888 -0.2276  0.5436  0.3053
  165DOPC  H17R20018   6.385   2.185   8.786  0.7829 -2.1244 -1.0239
  165DOPC  H17S20019   6.415   2.201   8.975 -2.9294 -0.0439  1.6951
  165DOPC  C21820020   6.257   2.075   8.927 -0.1200  0.3432  0.4242
  165DOPC  H18R20021   6.215   2.015   8.843 -0.9963 -0.5305  1.4582
  165DOPC  H18S20022   6.174   2.146   8.941 -1.3787 -1.1556  0.8015
  165DOPC  H18T20023   6.249   2.007   9.014 -0.3930 -1.9655 -1.3007
  165DOPC   C3320024   6.231   0.531   8.570  0.0734 -0.0286 -0.0731
  165DOPC   H3X20025   6.208   0.528   8.461  0.8012  4.8621 -0.5668
  165DOPC   H3Y20026   6.282   0.435   8.594  1.4521  0.9460  0.9999
  165DOPC   C3420027   6.324   0.655   8.590  0.4037 -0.1556  1.1049
  165DOPC   H4X20028   6.406   0.637   8.517  0.5990  1.1857  0.9573
  165DOPC   H4Y20029   6.360   0.671   8.694  0.9956 -2.4864  1.3147
  165DOPC   C3520030   6.258   0.788   8.540  0.3806 -0.2243  0.3088
  165DOPC   H5X20031   6.210   0.833   8.629 -1.5496 -2.0423  0.2640
  165DOPC   H5Y20032   6.186   0.773   8.457  0.4795 -3.0679  0.6464
  165DOPC   C3620033   6.367   0.886   8.492 -0.5294  0.1873 -0.6239
  165DOPC   H6X20034   6.415   0.924   8.585 -0.2476  0.9306 -1.0591
  165DOPC   H6Y20035   6.440   0.832   8.429 -0.5928 -0.7755  0.1181
  165DOPC   C3720036   6.304   0.994   8.402 -0.2407 -0.4763 -1.1616
  165DOPC   H7X20037   6.224   1.040   8.463  0.4603 -0.8641  0.0871
  165DOPC   H7Y20038   6.257   0.941   8.317  0.1434 -1.7803 -0.5829
  165DOPC   C3820039   6.396   1.105   8.349 -0.1328 -0.1492  0.0747
  165DOPC   H8X20040   6.426   1.164   8.439  2.2377 -0.1715 -0.6466
  165DOPC   H8Y20041   6.326   1.169   8.290 -0.5734  0.2871  1.0414
  165DOPC   C3920042   6.523   1.074   8.269 -0.5867 -0.4805 -0.3438
  165DOPC   H9X20043   6.604   1.027   8.326 -2.2133  0.0270  2.5854
  165DOPC  C31020044   6.533   1.097   8.137 -0.2815 -0.1329  0.2678
  165DOPC  H10X20045   6.631   1.078   8.090 -1.0676  0.9852 -1.9802
  165DOPC  C31120046   6.443   1.157   8.029  0.6634 -0.4842 -0.0569
  165DOPC  H11X20047   6.353   1.204   8.074 -2.5694 -4.5828 -1.6247
  165DOPC  H11Y20048   6.391   1.077   7.972  1.2687  0.6311 -2.2829
  165DOPC  C31220049   6.521   1.251   7.919 -0.0843 -0.9834 -0.0915
  165DOPC  H12X20050   6.593   1.319   7.970  0.6367 -1.0357 -1.0124
  165DOPC  H12Y20051   6.437   1.303   7.868 -2.1758 -2.4224  1.6937
  165DOPC  C31320052   6.612   1.170   7.821  0.2143  0.3475 -0.1650
  165DOPC  H13X20053   6.671   1.098   7.882 -1.5562  0.9263  2.3875
  165DOPC  H13Y20054   6.539   1.124   7.751  0.3423 -1.9775  1.1139
  165DOPC  C31420055   6.720   1.250   7.741  1.0294  0.5856 -0.5243
  165DOPC  H14X20056   6.666   1.327   7.683  2.2258  0.9775 -1.1598
  165DOPC  H14Y20057   6.794   1.302   7.805  1.2009  0.5720 -0.7101
  165DOPC  C31520058   6.790   1.167   7.636 -0.5915  0.2188  0.6696
  165DOPC  H15X20059   6.859   1.235   7.581  1.7686 -0.7393  2.2875
  165DOPC  H15Y20060   6.724   1.114   7.564  0.1175  0.7009 -0.3686
  165DOPC  C31620061   6.889   1.064   7.694 -0.4724  0.2802  0.2290
  165DOPC  H16X20062   6.948   1.120   7.770 -0.3868  0.0571  0.3293
  165DOPC  H16Y20063   6.839   0.981   7.750 -1.2774  1.1042  0.7686
  165DOPC  C31720064   6.979   1.003   7.576 -0.7600 -0.1091  0.5498
  165DOPC  H17X20065   7.021   1.076   7.503 -1.0190 -0.8083 -0.3093
  165DOPC  H17Y20066   7.070   0.951   7.613 -1.0092 -0.6139  0.4622
  165DOPC  C31820067   6.902   0.897   7.488  0.0631 -0.1754 -0.3518
  165DOPC  H18X20068   6.808   0.939   7.446  0.1048  2.1320  1.6546
  165DOPC  H18Y20069   6.973   0.875   7.405  0.9167 -2.1479  0.8220
  165DOPC  H18Z20070   6.875   0.801   7.537 -1.1723 -0.1538 -0.9456
  166DOPC     N20071   7.952   0.912   9.223 -0.2423 -0.1490  0.5204
  166DOPC   C1220072   7.806   0.898   9.179 -0.0565  0.4504 -0.0493
  166DOPC  H12A20073   7.785   0.792   9.172 -0.1318  0.4481  0.2132
  166DOPC  H12B20074   7.791   0.937   9.080 -0.3659 -0.1355 -0.2357
  166DOPC   C1320075   7.996   1.053   9.222  0.1668 -0.0835 -0.5940
  166DOPC  H13A20076   7.969   1.101   9.129  1.8109  0.2566 -0.9312
  166DOPC  H13B20077   7.959   1.100   9.311  0.4247 -1.3214  0.1798
  166DOPC  H13C20078   8.103   1.059   9.237 -0.0407  0.5773  0.7494
  166DOPC   C1420079   8.043   0.826   9.136  0.1943  1.1698  0.2974
  166DOPC  H14A20080   8.029   0.720   9.152  3.1758  0.5603 -0.4829
  166DOPC  H14B20081   8.017   0.843   9.032  3.2370 -0.8192 -0.9480
  166DOPC  H14C20082   8.148   0.842   9.152  0.6108 -1.4325  0.7427
  166DOPC   C1520083   7.966   0.862   9.366  0.1682  0.7963 -0.2946
  166DOPC  H15A20084   7.890   0.906   9.429 -3.8672 -2.4036 -2.3682
  166DOPC  H15B20085   8.065   0.879   9.406 -0.3115 -1.1679  1.9855
  166DOPC  H15C20086   7.946   0.756   9.373 -2.1728  1.2535  1.3888
  166DOPC   C1120087   7.702   0.956   9.273 -0.0581 -0.3127  0.5113
  166DOPC  H11A20088   7.601   0.950   9.228  0.7548 -1.7790 -1.2687
  166DOPC  H11B20089   7.701   0.911   9.374 -1.3571  0.1812  0.7317
  166DOPC     P20090   7.649   1.213   9.262  0.0151 -0.4422  0.0173
  166DOPC   O1320091   7.718   1.341   9.290 -0.3169 -0.2861  0.0522
  166DOPC   O1420092   7.519   1.197   9.334  0.1611  0.7951  0.0304
  166DOPC   O1220093   7.738   1.090   9.304 -0.4536 -0.0655  1.0040
  166DOPC   O1120094   7.616   1.195   9.107 -0.1834  0.4788  0.0397
  166DOPC    C120095   7.712   1.224   9.014 -0.6253 -0.5424  0.4949
  166DOPC    HA20096   7.759   1.130   8.980  0.3335 -0.2076  0.8363
  166DOPC    HB20097   7.800   1.281   9.053 -0.0171 -1.1776  0.0691
  166DOPC    C220098   7.660   1.309   8.893 -0.9092  0.5501 -0.6543
  166DOPC    HS20099   7.647   1.410   8.938  0.4082  0.5459 -0.2136
  166DOPC   O2120100   7.537   1.247   8.843 -0.8901  0.1859  0.7701
  166DOPC   C2120101   7.463   1.331   8.782  0.7773  0.0235  0.1617
  166DOPC   O2220102   7.472   1.454   8.786 -0.5044 -0.1630 -0.5464
  166DOPC   C2220103   7.362   1.256   8.705  0.2456  0.0829  0.3573
  166DOPC   H2R20104   7.279   1.223   8.772  0.4079 -0.7100  0.1840
  166DOPC   H2S20105   7.405   1.164   8.659 -1.9379  0.4925 -2.8308
  166DOPC    C320106   7.770   1.313   8.788 -0.4071  0.0618  0.4284
  166DOPC    HX20107   7.772   1.211   8.744 -2.1781  0.8195 -1.5743
  166DOPC    HY20108   7.871   1.316   8.834  0.4490 -0.1753 -1.3610
  166DOPC   O3120109   7.753   1.413   8.682  0.1850  0.0409  0.2527
  166DOPC   C3120110   7.814   1.523   8.712  1.2078 -0.3348  0.1396
  166DOPC   O3220111   7.880   1.551   8.810 -0.5795  0.1501 -0.0192
  166DOPC   C3220112   7.766   1.628   8.609 -0.9370  0.4484 -0.0617
  166DOPC   H2X20113   7.807   1.601   8.509 -0.4469  2.4048 -0.4301
  166DOPC   H2Y20114   7.655   1.633   8.596 -0.7888 -1.0315 -2.6237
  166DOPC   C2320115   7.292   1.344   8.590  0.2609  0.8476 -0.0341
  166DOPC   H3R20116   7.270   1.447   8.625  0.6740  1.9580 -2.8190
  166DOPC   H3S20117   7.194   1.307   8.551 -0.4936  3.0073 -0.3326
  166DOPC   C2420118   7.360   1.361   8.452  0.5067  0.2787 -0.4218
  166DOPC   H4R20119   7.286   1.414   8.388 -0.0310 -1.8019 -1.6242
  166DOPC   H4S20120   7.382   1.259   8.413 -2.3242 -0.5915  0.0021
  166DOPC   C2520121   7.484   1.454   8.454 -0.4408 -0.1350 -1.1356
  166DOPC   H5R20122   7.551   1.404   8.526 -0.8662 -0.5491 -1.0247
  166DOPC   H5S20123   7.453   1.556   8.485 -3.1403 -1.4774  1.0556
  166DOPC   C2620124   7.542   1.454   8.309  0.1394  0.3725  0.1020
  166DOPC   H6R20125   7.450   1.477   8.251 -0.4849 -0.3540  0.7746
  166DOPC   H6S20126   7.583   1.356   8.277 -0.8305  0.2469 -0.7913
  166DOPC   C2720127   7.645   1.566   8.279 -0.0240 -0.5107  0.0215
  166DOPC   H7R20128   7.737   1.530   8.331  1.7078  0.8562 -1.9426
  166DOPC   H7S20129   7.610   1.661   8.325  0.3033 -1.7373  3.0781
  166DOPC   C2820130   7.696   1.587   8.142  0.1679  0.2494  0.6046
  166DOPC   H8R20131   7.616   1.622   8.074  0.5711  2.2404  1.1036
  166DOPC   H8S20132   7.724   1.485   8.106 -1.6036  0.1602 -0.6714
  166DOPC   C2920133   7.804   1.694   8.118  0.5401  0.0796 -0.4455
  166DOPC   H9R20134   7.763   1.796   8.127  1.7342  0.5078  0.4606
  166DOPC  C21020135   7.936   1.670   8.085  0.1100 -0.3541  0.5470
  166DOPC  H10R20136   8.002   1.755   8.060 -1.0693  1.3559  2.7904
  166DOPC  C21120137   7.998   1.541   8.051  0.0526 -0.2856 -0.7631
  166DOPC  H11R20138   7.975   1.454   8.115  2.4809  0.2339  0.9669
  166DOPC  H11S20139   8.106   1.557   8.072 -0.0081 -1.5870  0.6519
  166DOPC  C21220140   7.972   1.484   7.910  0.1385 -0.5815 -0.2189
  166DOPC  H12R20141   8.007   1.558   7.835  0.4308 -0.5810 -0.0824
  166DOPC  H12S20142   7.862   1.470   7.900  0.0638  0.7129 -1.5104
  166DOPC  C21320143   8.031   1.348   7.887 -0.6843  0.2936  0.8088
  166DOPC  H13R20144   8.001   1.311   7.787  0.6064  0.0582  0.4829
  166DOPC  H13S20145   7.997   1.278   7.966 -0.8932  0.3855  0.8008
  166DOPC  C21420146   8.189   1.363   7.883 -0.5862  0.3742 -0.1423
  166DOPC  H14R20147   8.230   1.386   7.983  2.2392  2.4349 -1.6163
  166DOPC  H14S20148   8.220   1.451   7.823 -0.5334  0.4654  0.0182
  166DOPC  C21520149   8.275   1.238   7.839  0.4993 -0.0367 -0.3038
  166DOPC  H15R20150   8.382   1.266   7.833  0.4690  0.3746  0.8374
  166DOPC  H15S20151   8.229   1.208   7.742  0.0292 -0.0744 -0.0718
  166DOPC  C21620152   8.270   1.127   7.951 -0.1282 -0.5966  0.8758
  166DOPC  H16R20153   8.165   1.096   7.968  0.4384 -2.5905  0.9928
  166DOPC  H16S20154   8.316   1.181   8.036 -0.3943 -1.5556  1.6522
  166DOPC  C21720155   8.347   0.996   7.916 -0.1161 -0.0627 -0.3931
  166DOPC  H17R20156   8.453   1.031   7.910 -0.9385  2.4785 -1.4959
  166DOPC  H17S20157   8.321   0.938   7.824 -0.2673  0.0985 -0.4514
  166DOPC  C21820158   8.337   0.900   8.032 -0.5761  0.0148 -0.2023
  166DOPC  H18R20159   8.357   0.795   8.005 -1.5127 -0.3079  0.3202
  166DOPC  H18S20160   8.230   0.895   8.061 -0.7668 -0.7756 -1.0126
  166DOPC  H18T20161   8.386   0.928   8.128 -2.4168 -2.1420  1.4925
  166DOPC   C3320162   7.828   1.764   8.648 -0.1595  0.8221  0.0471
  166DOPC   H3X20163   7.933   1.764   8.683 -0.0276 -0.7571 -0.3047
  166DOPC   H3Y20164   7.762   1.807   8.727 -0.8465 -1.3682  0.7249
  166DOPC   C3420165   7.815   1.862   8.530 -0.4261  0.2125 -0.2349
  166DOPC   H4X20166   7.718   1.824   8.493  0.1575 -1.7267  0.0864
  166DOPC   H4Y20167   7.899   1.838   8.462  0.0791  1.4021 -0.0575
  166DOPC   C3520168   7.810   2.013   8.572  0.7749  0.1380  0.2270
  166DOPC   H5X20169   7.903   2.043   8.624  1.3030  0.5250 -0.8946
  166DOPC   H5Y20170   7.735   2.023   8.653 -1.2889  1.4713 -1.6931
  166DOPC   C3620171   7.771   2.104   8.457 -0.4399  0.3562  0.2510
  166DOPC   H6X20172   7.846   2.088   8.377 -0.9313  0.0017 -0.1417
  166DOPC   H6Y20173   7.673   2.082   8.409  0.7226  0.7122 -2.4524
  166DOPC   C3720174   7.779   2.253   8.472  0.4504  0.1225 -0.0383
  166DOPC   H7X20175   7.713   2.289   8.553  1.7718  0.9938  0.6896
  166DOPC   H7Y20176   7.882   2.276   8.509 -0.1522  2.4496  0.3713
  166DOPC   C3820177   7.746   2.324   8.345 -0.0373  0.3577  0.9777
  166DOPC   H8X20178   7.701   2.250   8.275  0.9785  0.7219 -0.0957
  166DOPC   H8Y20179   7.844   2.353   8.302  1.4942 -2.0036  2.6188
  166DOPC   C3920180   7.655   2.442   8.366 -0.3104 -0.4470 -0.4378
  166DOPC   H9X20181   7.698   2.538   8.399  2.4775 -2.0537  0.9249
  166DOPC  C31020182   7.522   2.453   8.342 -0.3036  0.2009 -0.0843
  166DOPC  H10X20183   7.460   2.535   8.379 -0.5577  0.3696 -0.8633
  166DOPC  C31120184   7.438   2.353   8.275 -0.0735 -0.1178 -0.5835
  166DOPC  H11X20185   7.330   2.358   8.299  0.3498  1.1482  1.2676
  166DOPC  H11Y20186   7.457   2.252   8.318 -0.1363 -0.0393 -0.3719
  166DOPC  C31220187   7.464   2.349   8.120 -0.7168  0.0933 -0.4398
  166DOPC  H12X20188   7.571   2.373   8.101 -0.2416 -0.9136  0.7583
  166DOPC  H12Y20189   7.403   2.428   8.072 -1.4728 -0.8165 -1.0143
  166DOPC  C31320190   7.429   2.220   8.053 -0.5077 -0.4400  0.8542
  166DOPC  H13X20191   7.463   2.220   7.948  1.1835  1.4019  1.3342
  166DOPC  H13Y20192   7.471   2.135   8.111  1.7987  0.0987  0.0689
  166DOPC  C31420193   7.274   2.198   8.043 -0.3082  0.3127 -0.8952
  166DOPC  H14X20194   7.215   2.224   8.134  0.5247  2.3892 -0.8973
  166DOPC  H14Y20195   7.236   2.255   7.956  1.5653  0.2697 -1.7762
  166DOPC  C31520196   7.240   2.050   8.021 -0.4107  0.1361  0.0105
  166DOPC  H15X20197   7.135   2.020   8.041 -0.4223 -1.4079 -2.0384
  166DOPC  H15Y20198   7.312   1.987   8.078  0.9179 -0.1057 -1.8097
  166DOPC  C31620199   7.266   2.022   7.873 -0.5250  0.5221 -0.0728
  166DOPC  H16X20200   7.191   2.077   7.811 -0.4540  1.1968  0.4321
  166DOPC  H16Y20201   7.369   2.052   7.844 -1.4225  2.5822 -1.4284
  166DOPC  C31720202   7.247   1.874   7.838 -0.0950 -0.5096  0.6891
  166DOPC  H17X20203   7.139   1.847   7.838 -0.5030  0.5343 -3.0476
  166DOPC  H17Y20204   7.278   1.857   7.733  3.4497  0.3444  1.4534
  166DOPC  C31820205   7.338   1.777   7.917 -0.2026 -0.3921 -0.1291
  166DOPC  H18X20206   7.330   1.677   7.870 -2.6378 -0.8674  1.1088
  166DOPC  H18Y20207   7.440   1.819   7.928 -0.3294 -0.3602  1.0463
  166DOPC  H18Z20208   7.301   1.761   8.021  0.5659  1.1906  0.4169
  167DOPC     N20209   7.272   1.587   9.153  0.7914 -0.1760  0.5432
  167DOPC   C1220210   7.311   1.739   9.140 -0.0051  0.0028 -0.0937
  167DOPC  H12A20211   7.226   1.800   9.112  1.2365  1.2723 -1.1946
  167DOPC  H12B20212   7.379   1.756   9.058  0.1574  1.8401  0.3972
  167DOPC   C1320213   7.168   1.560   9.255  0.5527 -0.5225 -0.3897
  167DOPC  H13A20214   7.084   1.624   9.231 -0.4267 -1.7127 -0.2405
  167DOPC  H13B20215   7.137   1.458   9.238  0.4329 -0.5108 -0.2400
  167DOPC  H13C20216   7.209   1.564   9.354  1.7632 -1.7734 -0.8068
  167DOPC   C1420217   7.396   1.512   9.191 -0.1569 -0.5042 -0.3516
  167DOPC  H14A20218   7.369   1.408   9.199 -1.3607 -0.3081 -1.5737
  167DOPC  H14B20219   7.480   1.533   9.127  1.4637  0.5295  1.9910
  167DOPC  H14C20220   7.424   1.553   9.287  2.6904  0.3805 -1.4757
  167DOPC   C1520221   7.222   1.537   9.019 -0.3878 -0.3198  0.4290
  167DOPC  H15A20222   7.195   1.433   9.023 -0.5835 -0.3494 -1.1732
  167DOPC  H15B20223   7.306   1.547   8.952  1.3516 -1.4123  2.3175
  167DOPC  H15C20224   7.139   1.598   8.987 -0.1276  1.3867  2.7293
  167DOPC   C1120225   7.372   1.803   9.271 -0.7615  0.5300 -0.1687
  167DOPC  H11A20226   7.380   1.910   9.243 -0.1148  0.2895 -0.9231
  167DOPC  H11B20227   7.299   1.794   9.355 -0.7351 -1.3249 -0.3122
  167DOPC     P20228   7.629   1.770   9.242 -0.1114 -0.5228  0.0050
  167DOPC   O1320229   7.625   1.697   9.114  0.4329 -0.5872 -0.0562
  167DOPC   O1420230   7.739   1.741   9.336 -0.3259 -0.4107  0.4653
  167DOPC   O1220231   7.499   1.751   9.319  0.2085  0.7054 -0.3989
  167DOPC   O1120232   7.629   1.928   9.203 -0.0380  0.3993 -0.1698
  167DOPC    C120233   7.743   1.974   9.145 -0.2649 -0.3260  0.4554
  167DOPC    HA20234   7.832   1.909   9.161  1.3132  0.9849 -2.2334
  167DOPC    HB20235   7.764   2.071   9.193 -1.4367  0.5533 -0.7374
  167DOPC    C220236   7.719   1.993   8.988  0.4260 -0.6096  0.3111
  167DOPC    HS20237   7.749   1.897   8.942 -1.1609 -1.2468  0.5735
  167DOPC   O2120238   7.800   2.093   8.934 -0.2072 -0.4513  0.0677
  167DOPC   C2120239   7.927   2.064   8.922 -0.1629 -0.6546  0.2128
  167DOPC   O2220240   7.981   1.957   8.944  0.1402  0.5325  0.3417
  167DOPC   C2220241   7.994   2.186   8.860 -0.3621 -0.4973  0.2936
  167DOPC   H2R20242   8.007   2.267   8.935 -2.0258  1.6769 -1.6097
  167DOPC   H2S20243   7.925   2.216   8.778 -1.1438 -1.6399  0.5227
  167DOPC    C320244   7.576   2.024   8.949  0.7546 -0.3278 -0.4937
  167DOPC    HX20245   7.542   2.119   8.997 -1.3531 -0.5210 -1.4828
  167DOPC    HY20246   7.511   1.942   8.987 -1.5584  0.8800 -1.5826
  167DOPC   O3120247   7.553   2.043   8.806 -0.1617 -0.3684 -0.3906
  167DOPC   C3120248   7.434   2.079   8.772 -0.0472 -0.0803 -0.0116
  167DOPC   O3220249   7.348   2.123   8.849  0.0386 -0.0821  0.3587
  167DOPC   C3220250   7.408   2.080   8.622 -0.2045 -0.7060  0.0257
  167DOPC   H2X20251   7.426   2.183   8.584 -2.3407 -0.1861  0.3131
  167DOPC   H2Y20252   7.481   2.012   8.573 -1.6274 -1.3558 -1.2998
  167DOPC   C2320253   8.139   2.152   8.810  0.5989  0.1836  0.3680
  167DOPC   H3R20254   8.138   2.109   8.707 -0.0885 -0.0862  0.4814
  167DOPC   H3S20255   8.194   2.091   8.885 -1.8468 -2.5889  0.0618
  167DOPC   C2420256   8.220   2.285   8.787 -0.0386 -0.0583 -0.4692
  167DOPC   H4R20257   8.222   2.337   8.886 -3.3965 -0.2085 -0.2107
  167DOPC   H4S20258   8.154   2.354   8.730 -1.1760 -1.0722 -0.3981
  167DOPC   C2520259   8.356   2.273   8.716 -0.2949 -0.3018  0.2269
  167DOPC   H5R20260   8.342   2.216   8.622 -2.0067  1.5349 -0.7035
  167DOPC   H5S20261   8.424   2.209   8.777  1.3948  0.5213 -0.7133
  167DOPC   C2620262   8.410   2.417   8.688  0.4497 -0.7833 -0.5147
  167DOPC   H6R20263   8.339   2.491   8.729  0.4992 -0.0540 -1.7004
  167DOPC   H6S20264   8.423   2.433   8.579  0.7065  1.6360 -0.1787
  167DOPC   C2720265   8.550   2.449   8.749 -0.1150  0.1016 -0.1207
  167DOPC   H7R20266   8.635   2.394   8.705  0.5243  1.9314 -1.3074
  167DOPC   H7S20267   8.540   2.421   8.856  0.7837 -2.4196 -0.6385
  167DOPC   C2820268   8.602   2.594   8.734  0.5062  0.0280 -0.0893
  167DOPC   H8R20269   8.537   2.669   8.784  1.0291  0.8136 -0.5803
  167DOPC   H8S20270   8.598   2.600   8.623 -0.3085 -0.5459 -0.1062
  167DOPC   C2920271   8.742   2.608   8.781 -0.3668 -0.2422  0.3319
  167DOPC   H9R20272   8.755   2.580   8.887 -1.7319  2.0867  1.2028
  167DOPC  C21020273   8.851   2.647   8.711  0.5515  0.2412  1.0619
  167DOPC  H10R20274   8.947   2.658   8.762  2.4921  1.8680 -2.5916
  167DOPC  C21120275   8.856   2.697   8.563  0.1792 -0.0430 -0.3041
  167DOPC  H11R20276   8.768   2.650   8.514 -1.1394 -0.0816  1.9406
  167DOPC  H11S20277   8.954   2.655   8.532  0.3633 -1.1337  1.6304
  167DOPC  C21220278   8.858   2.845   8.532 -0.2887  0.2101  0.0849
  167DOPC  H12R20279   8.964   2.877   8.537 -0.9272  2.7475 -0.8605
  167DOPC  H12S20280   8.850   2.868   8.424  1.2574 -2.2649 -0.6268
  167DOPC  C21320281   8.780   2.937   8.626  0.2298  0.7934  0.0272
  167DOPC  H13R20282   8.786   2.899   8.730  0.2944  0.7376  0.0027
  167DOPC  H13S20283   8.674   2.935   8.593  0.1502  0.5948  0.2886
  167DOPC  C21420284   8.817   3.091   8.623  0.0885 -1.3990 -0.3174
  167DOPC  H14R20285   8.828   3.132   8.520  3.5559 -0.1019  0.4493
  167DOPC  H14S20286   8.921   3.095   8.661 -0.2371  1.4931  0.4825
  167DOPC  C21520287   8.728   3.178   8.707 -0.0799 -0.3742  0.3454
  167DOPC  H15R20288   8.739   3.130   8.806  1.3922 -1.4742 -0.3063
  167DOPC  H15S20289   8.629   3.146   8.669 -0.3163 -0.9211  1.3927
  167DOPC  C21620290   8.754   3.328   8.702 -0.0584  0.1189  0.3264
  167DOPC  H16R20291   8.771   3.346   8.594  2.4388 -0.6563  0.5254
  167DOPC  H16S20292   8.848   3.355   8.754 -0.4714  0.0271  1.1341
  167DOPC  C21720293   8.648   3.404   8.774 -0.4474 -0.8369  0.6779
  167DOPC  H17R20294   8.542   3.390   8.744  0.3023  0.0020 -2.9187
  167DOPC  H17S20295   8.677   3.508   8.747  2.0745 -1.5563  0.3125
  167DOPC  C21820296   8.662   3.399   8.920 -0.0572 -0.4646  0.5095
  167DOPC  H18R20297   8.609   3.308   8.957  0.7160 -1.1797 -0.0998
  167DOPC  H18S20298   8.627   3.491   8.971 -1.2903  0.1821 -1.4041
  167DOPC  H18T20299   8.771   3.388   8.938  0.2340 -1.7189 -1.6489
  167DOPC   C3320300   7.265   2.056   8.574  0.6272  0.2433  1.0709
  167DOPC   H3X20301   7.190   2.118   8.626 -1.5905 -1.4782  0.0823
  167DOPC   H3Y20302   7.244   1.949   8.596 -2.0306  0.6986  1.0066
  167DOPC   C3420303   7.236   2.092   8.431  0.2261 -0.0977 -0.2493
  167DOPC   H4X20304   7.325   2.068   8.369 -0.4723 -0.0167 -1.2994
  167DOPC   H4Y20305   7.217   2.202   8.427  1.4875  0.4189  3.7744
  167DOPC   C3520306   7.117   2.026   8.366 -0.5929 -0.1843  0.1270
  167DOPC   H5X20307   7.146   1.918   8.361  1.1837  0.2891 -0.4516
  167DOPC   H5Y20308   7.089   2.066   8.266  2.2714  1.6593 -0.0206
  167DOPC   C3620309   6.994   2.031   8.458 -0.8260 -0.4006  0.0299
  167DOPC   H6X20310   7.028   1.997   8.559  0.9841 -0.3918 -0.5382
  167DOPC   H6Y20311   6.962   2.137   8.460 -0.3239 -0.1997  3.0993
  167DOPC   C3720312   6.874   1.949   8.416 -0.2875 -0.1396 -0.7399
  167DOPC   H7X20313   6.904   1.843   8.428  0.3872  0.2394  1.1846
  167DOPC   H7Y20314   6.795   1.977   8.489  0.1453  0.2852 -0.4268
  167DOPC   C3820315   6.821   1.967   8.262 -0.7573 -0.0793 -0.3022
  167DOPC   H8X20316   6.747   1.886   8.245  0.8920 -1.2918 -2.1280
  167DOPC   H8Y20317   6.903   1.954   8.188 -0.5499  3.3721 -0.8367
  167DOPC   C3920318   6.762   2.102   8.255  0.5407 -0.1504 -0.5918
  167DOPC   H9X20319   6.686   2.118   8.333  0.7136 -0.9631 -0.2438
  167DOPC  C31020320   6.785   2.196   8.159  0.0387 -0.2362 -0.3357
  167DOPC  H10X20321   6.716   2.281   8.151 -1.6385 -1.7310 -3.1295
  167DOPC  C31120322   6.868   2.171   8.039 -0.2345 -0.0385  0.0611
  167DOPC  H11X20323   6.961   2.112   8.054  0.9976  1.8523  0.2227
  167DOPC  H11Y20324   6.895   2.267   7.991 -1.5082 -0.0889 -0.7989
  167DOPC  C31220325   6.799   2.083   7.932  0.0475 -0.1351  0.5806
  167DOPC  H12X20326   6.701   2.123   7.900 -0.5482 -1.9534  0.0294
  167DOPC  H12Y20327   6.782   1.978   7.964 -0.1800 -0.6297 -1.1142
  167DOPC  C31320328   6.882   2.063   7.798  0.9178  0.8795 -0.5512
  167DOPC  H13X20329   6.983   2.037   7.835 -0.6711 -0.7163  3.1740
  167DOPC  H13Y20330   6.844   1.971   7.750  2.0812  1.5411 -2.8720
  167DOPC  C31420331   6.878   2.177   7.699 -0.1692 -0.6591 -0.6685
  167DOPC  H14X20332   6.774   2.203   7.671  0.3180  1.7491 -0.4857
  167DOPC  H14Y20333   6.909   2.270   7.752 -1.6610  0.4002 -1.5575
  167DOPC  C31520334   6.951   2.153   7.571 -0.4400 -0.0971 -0.0626
  167DOPC  H15X20335   7.040   2.090   7.591  0.3935  1.0134 -0.1986
  167DOPC  H15Y20336   6.981   2.246   7.517  3.0983 -0.8710  0.3226
  167DOPC  C31620337   6.863   2.078   7.476  0.3174 -0.2115 -0.7286
  167DOPC  H16X20338   6.836   1.984   7.530 -3.0497  1.2569  0.4261
  167DOPC  H16Y20339   6.774   2.141   7.457  0.3116  0.1791  0.5133
  167DOPC  C31720340   6.934   2.041   7.346  0.4163  0.5818 -0.1675
  167DOPC  H17X20341   6.990   2.125   7.299 -0.3499  0.0179 -2.1584
  167DOPC  H17Y20342   7.018   1.973   7.372 -0.3998 -0.5117 -0.3370
  167DOPC  C31820343   6.850   1.969   7.239  0.2681  0.2362 -0.2565
  167DOPC  H18X20344   6.835   1.862   7.264 -1.3055  0.4620 -0.0770
  167DOPC  H18Y20345   6.756   2.028   7.225  0.2209  0.4383  0.8711
  167DOPC  H18Z20346   6.901   1.965   7.140  1.6864  0.1405  0.4560
  168DOPC     N20347   1.697   1.705   9.530 -0.2078 -0.3386  0.6242
  168DOPC   C1220348   1.817   1.707   9.425  1.0002  0.5621 -0.2137
  168DOPC  H12A20349   1.899   1.653   9.470  0.9347  1.7660  1.4444
  168DOPC  H12B20350   1.853   1.808   9.417  0.1709  0.7306 -2.2905
  168DOPC   C1320351   1.648   1.568   9.549 -0.3079  0.1386 -0.3244
  168DOPC  H13A20352   1.586   1.562   9.637 -1.1833  0.0385 -0.9364
  168DOPC  H13B20353   1.594   1.522   9.468  0.9035  1.4969 -1.9682
  168DOPC  H13C20354   1.736   1.508   9.564 -0.3776 -0.8724 -3.2937
  168DOPC   C1420355   1.577   1.789   9.493  0.2197 -0.1133 -0.5412
  168DOPC  H14A20356   1.497   1.786   9.565  1.0530 -0.4914  0.3974
  168DOPC  H14B20357   1.593   1.895   9.481 -1.0675  0.0799 -0.6004
  168DOPC  H14C20358   1.539   1.759   9.397 -1.4507 -0.7373  0.2835
  168DOPC   C1520359   1.771   1.756   9.651  0.4809 -1.1408 -0.2963
  168DOPC  H15A20360   1.822   1.852   9.649  1.4419 -1.4398  2.9235
  168DOPC  H15B20361   1.831   1.676   9.692 -0.1922 -2.4040 -1.7043
  168DOPC  H15C20362   1.692   1.764   9.724  0.2488  0.0314 -0.6454
  168DOPC   C1120363   1.785   1.664   9.280  0.2125  0.9867 -0.2905
  168DOPC  H11A20364   1.696   1.725   9.252 -0.1236  0.5637 -0.1672
  168DOPC  H11B20365   1.865   1.701   9.212 -0.5894  0.6681 -1.4417
  168DOPC     P20366   1.882   1.428   9.254  0.2952  0.0030  0.2385
  168DOPC   O1320367   1.842   1.302   9.320  0.1570 -0.0320  0.4058
  168DOPC   O1420368   2.003   1.494   9.308  0.2845 -0.0897 -0.1127
  168DOPC   O1220369   1.752   1.522   9.268 -0.4398 -0.3143  0.2195
  168DOPC   O1120370   1.897   1.412   9.098  0.7365  0.1082 -0.3236
  168DOPC    C120371   1.797   1.341   9.021  0.2919  0.2340 -0.1722
  168DOPC    HA20372   1.817   1.358   8.913  2.3201  0.1514  0.1603
  168DOPC    HB20373   1.696   1.385   9.041  0.0849 -0.6751  0.9008
  168DOPC    C220374   1.804   1.188   9.046 -0.0105 -0.2283  0.0753
  168DOPC    HS20375   1.744   1.162   9.136 -1.3260  2.4840  0.0965
  168DOPC   O2120376   1.940   1.151   9.060 -0.1355  0.1784  0.6311
  168DOPC   C2120377   1.964   1.049   9.136  0.1140  0.3374  0.0134
  168DOPC   O2220378   1.888   0.987   9.212  0.6628  0.4390  0.4670
  168DOPC   C2220379   2.119   1.025   9.134 -0.3367 -0.5467 -0.3027
  168DOPC   H2R20380   2.141   0.956   9.218 -0.6663  0.0867  0.3141
  168DOPC   H2S20381   2.179   1.110   9.172 -0.3565 -0.6864  0.0450
  168DOPC    C320382   1.734   1.114   8.933  0.9361  0.4807  0.6034
  168DOPC    HX20383   1.715   1.007   8.956 -0.1529  0.5193 -0.0442
  168DOPC    HY20384   1.808   1.104   8.850  0.8031 -1.0415  0.6456
  168DOPC   O3120385   1.611   1.181   8.887 -0.0355  0.4523 -0.2650
  168DOPC   C3120386   1.504   1.161   8.968 -0.0524  0.3782  0.0662
  168DOPC   O3220387   1.494   1.085   9.060  0.2279  0.0470 -0.3406
  168DOPC   C3220388   1.396   1.247   8.917  0.2717 -1.0891 -0.3831
  168DOPC   H2X20389   1.421   1.354   8.935 -0.1490 -1.2641  1.5224
  168DOPC   H2Y20390   1.377   1.242   8.808 -2.6389  1.9054 -0.1743
  168DOPC   C2320391   2.178   0.978   9.003  0.0827 -0.0756  0.1618
  168DOPC   H3R20392   2.287   0.999   8.998 -0.0335  0.3631 -0.9062
  168DOPC   H3S20393   2.125   1.038   8.926  1.9310  1.9490  0.3907
  168DOPC   C2420394   2.152   0.829   8.969 -0.0696 -0.0193 -0.6863
  168DOPC   H4R20395   2.207   0.813   8.873  0.4400 -1.3703 -0.1899
  168DOPC   H4S20396   2.045   0.803   8.954 -0.2173 -0.2788  0.7542
  168DOPC   C2520397   2.211   0.732   9.075 -0.0260  0.5864 -0.2160
  168DOPC   H5R20398   2.155   0.753   9.169 -2.4086 -2.2398 -0.8230
  168DOPC   H5S20399   2.317   0.756   9.096 -0.3475  0.2836  2.0304
  168DOPC   C2620400   2.193   0.584   9.049 -0.2337  0.3431  0.7018
  168DOPC   H6R20401   2.085   0.567   9.027  0.1996  0.0070 -1.3576
  168DOPC   H6S20402   2.218   0.522   9.138  0.8841 -2.6064 -1.5117
  168DOPC   C2720403   2.281   0.537   8.934  0.3761  0.3047 -0.4526
  168DOPC   H7R20404   2.381   0.562   8.976  1.1814 -0.8822 -1.6009
  168DOPC   H7S20405   2.267   0.599   8.844  0.7844  0.2728 -0.5401
  168DOPC   C2820406   2.268   0.388   8.896  0.4470 -0.4827  0.2670
  168DOPC   H8R20407   2.301   0.368   8.792  0.2451 -0.7466  0.2533
  168DOPC   H8S20408   2.160   0.364   8.888  0.4043 -0.9105  1.9443
  168DOPC   C2920409   2.328   0.288   8.992 -0.2024  0.3405 -0.1988
  168DOPC   H9R20410   2.272   0.261   9.083 -0.1232 -1.8415 -0.7350
  168DOPC  C21020411   2.443   0.228   8.967 -1.0318 -0.6162 -0.0064
  168DOPC  H10R20412   2.483   0.155   9.039  2.9484  0.5584 -0.7690
  168DOPC  C21120413   2.539   0.260   8.853  0.7876 -0.3784 -0.1787
  168DOPC  H11R20414   2.641   0.265   8.896  0.4727 -2.5458  0.9199
  168DOPC  H11S20415   2.517   0.361   8.811  1.3806 -0.2487 -0.1884
  168DOPC  C21220416   2.554   0.156   8.743 -0.6828  0.4485  0.4332
  168DOPC  H12R20417   2.462   0.165   8.680 -0.6390 -1.6129  0.0137
  168DOPC  H12S20418   2.541   0.056   8.789 -1.1532 -0.2924 -1.2071
  168DOPC  C21320419   2.684   0.171   8.655  0.7254  0.1651 -0.2144
  168DOPC  H13R20420   2.769   0.164   8.725  0.0543  0.8644  0.6843
  168DOPC  H13S20421   2.676   0.271   8.607  0.6097  0.7511  0.9980
  168DOPC  C21420422   2.696   0.071   8.537 -0.1716  0.0839 -0.8480
  168DOPC  H14R20423   2.616   0.072   8.461 -0.3685  1.2569 -0.6481
  168DOPC  H14S20424   2.706  -0.033   8.575  0.4222  0.3638 -0.2132
  168DOPC  C21520425   2.822   0.110   8.462 -0.1064 -0.2648 -0.4575
  168DOPC  H15R20426   2.898   0.147   8.534 -2.8598  0.9529  2.0717
  168DOPC  H15S20427   2.795   0.205   8.410  0.2590 -1.2947 -2.6325
  168DOPC  C21620428   2.863   0.009   8.365  0.1502  0.1006  0.2352
  168DOPC  H16R20429   2.803   0.022   8.272  0.1665  0.7962  0.3159
  168DOPC  H16S20430   2.844  -0.091   8.409  2.1666 -0.2765  0.3585
  168DOPC  C21720431   3.013   0.030   8.325 -0.1400 -0.1541 -0.1756
  168DOPC  H17R20432   3.071   0.020   8.419 -1.9387 -2.9082  0.7826
  168DOPC  H17S20433   3.030   0.131   8.282 -2.1005  2.0444  3.6076
  168DOPC  C21820434   3.066  -0.078   8.221  0.1123 -1.1489  0.1410
  168DOPC  H18R20435   3.167  -0.041   8.190  0.1823 -0.8830  0.6891
  168DOPC  H18S20436   2.993  -0.087   8.138 -0.5271  0.7994  0.4460
  168DOPC  H18T20437   3.086  -0.175   8.272  1.3310 -1.6888 -1.2728
  168DOPC   C3320438   1.268   1.227   9.000  0.6382  0.7650 -0.1753
  168DOPC   H3X20439   1.290   1.252   9.105 -0.2065 -1.0607  0.4911
  168DOPC   H3Y20440   1.223   1.126   8.982  2.7039 -0.0747 -0.9543
  168DOPC   C3420441   1.152   1.318   8.956 -0.4698 -0.5710 -0.3965
  168DOPC   H4X20442   1.135   1.297   8.848  2.1229  1.0961 -1.2277
  168DOPC   H4Y20443   1.178   1.426   8.959 -1.3409 -0.3262 -1.1601
  168DOPC   C3520444   1.025   1.297   9.031 -0.2621 -0.0940 -0.4115
  168DOPC   H5X20445   1.033   1.315   9.141  0.9349 -3.7903  0.2242
  168DOPC   H5Y20446   1.000   1.189   9.034 -0.3589 -0.1778 -2.7558
  168DOPC   C3620447   0.907   1.372   8.966 -0.2986 -0.1909 -0.6099
  168DOPC   H6X20448   0.919   1.482   8.955 -3.9352  0.3663 -0.1966
  168DOPC   H6Y20449   0.906   1.346   8.858  3.4943  0.4844 -0.9657
  168DOPC   C3720450   0.781   1.353   9.043 -0.1176  0.0508  1.1456
  168DOPC   H7X20451   0.762   1.254   9.089 -1.3799 -0.3124 -0.0816
  168DOPC   H7Y20452   0.782   1.429   9.124  0.1042  1.4848 -0.1453
  168DOPC   C3820453   0.660   1.381   8.956 -0.2885 -0.1770  0.7515
  168DOPC   H8X20454   0.563   1.366   9.007  0.3576 -3.1068  1.3162
  168DOPC   H8Y20455   0.665   1.303   8.877 -1.5493  1.1230 -0.6781
  168DOPC   C3920456   0.656   1.513   8.896  1.1541 -0.6571 -0.6121
  168DOPC   H9X20457   0.680   1.592   8.969 -0.7285 -0.9885  0.4292
  168DOPC  C31020458   0.623   1.558   8.771  0.0527  0.7379 -0.4014
  168DOPC  H10X20459   0.639   1.663   8.744  1.8530  0.0544 -2.3121
  168DOPC  C31120460   0.568   1.471   8.659 -0.5707 -0.9102  0.2715
  168DOPC  H11X20461   0.470   1.515   8.632  0.3308  1.1540  0.1002
  168DOPC  H11Y20462   0.544   1.371   8.700  0.8300 -0.7604  1.5393
  168DOPC  C31220463   0.662   1.448   8.535 -0.6025 -0.4167 -0.2770
  168DOPC  H12X20464   0.752   1.388   8.558  0.1772  1.5208  2.1494
  168DOPC  H12Y20465   0.691   1.550   8.503  0.6355 -0.9094 -0.7622
  168DOPC  C31320466   0.587   1.387   8.412  0.7409 -0.5485  0.3296
  168DOPC  H13X20467   0.509   1.310   8.430  0.2874  0.2038  1.7539
  168DOPC  H13Y20468   0.530   1.475   8.374 -0.8083 -1.7703 -0.2657
  168DOPC  C31420469   0.689   1.355   8.302 -0.4019  0.3585 -0.4119
  168DOPC  H14X20470   0.739   1.441   8.251  1.5060  0.0882  0.8889
  168DOPC  H14Y20471   0.776   1.303   8.348 -0.7580  0.0545 -0.0798
  168DOPC  C31520472   0.634   1.260   8.197 -0.2437 -0.7319  0.7757
  168DOPC  H15X20473   0.559   1.306   8.130  1.7569  0.3834 -0.8081
  168DOPC  H15Y20474   0.572   1.182   8.247 -1.6121 -1.7040 -2.2504
  168DOPC  C31620475   0.739   1.203   8.106  0.2624 -0.0905 -0.5939
  168DOPC  H16X20476   0.799   1.128   8.162 -0.7132 -1.3636 -1.2058
  168DOPC  H16Y20477   0.684   1.137   8.035 -2.7639  2.6157 -1.0164
  168DOPC  C31720478   0.827   1.309   8.036  0.4377 -0.3391 -0.8723
  168DOPC  H17X20479   0.763   1.374   7.973  2.6565  0.9424 -1.9416
  168DOPC  H17Y20480   0.866   1.378   8.115  1.8248 -1.7674 -0.2492
  168DOPC  C31820481   0.937   1.250   7.948  0.4000 -0.0421  0.6471
  168DOPC  H18X20482   1.013   1.331   7.933 -0.4792  0.7598  0.4495
  168DOPC  H18Y20483   0.979   1.160   7.997  2.1388  1.6345  2.4690
  168DOPC  H18Z20484   0.893   1.236   7.847  0.4831  0.4650  0.5375
  169DOPC     N20485   8.922   0.204   9.220 -0.3831 -0.1485  0.0772
  169DOPC   C1220486   8.906   0.297   9.101 -0.1616  0.1661  0.5473
  169DOPC  H12A20487   8.872   0.395   9.132 -0.2730  0.6561 -1.0010
  169DOPC  H12B20488   8.822   0.266   9.039  0.0796  0.4512  0.0713
  169DOPC   C1320489   8.960   0.067   9.194  0.0326  0.8077  0.7113
  169DOPC  H13A20490   8.890   0.007   9.138  0.1089  0.8296  0.5915
  169DOPC  H13B20491   9.053   0.059   9.140 -1.9408 -0.4281 -2.7848
  169DOPC  H13C20492   8.978   0.014   9.287  1.2330  0.3553  0.2374
  169DOPC   C1420493   8.797   0.204   9.299 -0.7493  0.1250  0.2694
  169DOPC  H14A20494   8.726   0.144   9.245  0.0004 -0.5736  0.0289
  169DOPC  H14B20495   8.800   0.165   9.399 -0.6866  0.9929  0.6179
  169DOPC  H14C20496   8.758   0.305   9.302  0.7459  0.8051 -1.2852
  169DOPC   C1520497   9.023   0.269   9.309  0.5696 -0.9098  0.4584
  169DOPC  H15A20498   9.115   0.271   9.253  0.1445  0.2610 -0.2535
  169DOPC  H15B20499   9.018   0.217   9.403 -2.3230 -0.7713  0.4657
  169DOPC  H15C20500   8.994   0.372   9.323 -0.3438 -0.8568 -1.4103
  169DOPC   C1120501   9.029   0.306   9.005  0.6096 -0.5460 -0.3833
  169DOPC  H11A20502   9.069   0.203   8.989  1.3330 -0.6185  1.6113
  169DOPC  H11B20503   8.998   0.341   8.904 -1.3688 -2.9228 -0.7048
  169DOPC     P20504   9.103   0.548   9.059 -0.2770  0.0166  0.0856
  169DOPC   O1320505   9.155   0.614   9.181 -0.1632  0.5260  0.0873
  169DOPC   O1420506   8.964   0.580   9.018  0.0655 -0.0264  0.3017
  169DOPC   O1220507   9.131   0.388   9.060  0.2744 -0.2819 -0.4074
  169DOPC   O1120508   9.190   0.583   8.939  0.2554  0.1470  0.0894
  169DOPC    C120509   9.326   0.542   8.931  0.6091 -0.4026  0.1032
  169DOPC    HA20510   9.345   0.437   8.962 -1.2600 -0.8215 -0.0312
  169DOPC    HB20511   9.389   0.608   8.994  0.8377  0.3018 -0.8388
  169DOPC    C220512   9.366   0.551   8.778 -0.3218 -0.1041  0.0125
  169DOPC    HS20513   9.468   0.511   8.765  0.6685  2.9781 -3.0015
  169DOPC   O2120514   9.358   0.687   8.732 -0.3245  0.4045 -0.0471
  169DOPC   C2120515   9.444   0.763   8.778 -0.6332 -0.1554 -0.7574
  169DOPC   O2220516   9.525   0.741   8.862 -0.2698 -0.5095  0.3267
  169DOPC   C2220517   9.416   0.896   8.709 -0.3602  0.0788  0.9536
  169DOPC   H2R20518   9.409   0.973   8.790 -0.3515  0.3632  0.6879
  169DOPC   H2S20519   9.309   0.898   8.678 -0.3713  2.5926  0.9447
  169DOPC    C320520   9.271   0.463   8.694 -0.1489  0.5358  0.0278
  169DOPC    HX20521   9.168   0.499   8.714 -1.2252 -1.5015 -1.4279
  169DOPC    HY20522   9.284   0.363   8.738  0.1569  0.6111  0.1105
  169DOPC   O3120523   9.294   0.468   8.550  0.2047 -0.3436  0.0285
  169DOPC   C3120524   9.366   0.374   8.501  0.0732 -0.0475 -0.4832
  169DOPC   O3220525   9.401   0.275   8.559  0.0181  0.2313  0.3672
  169DOPC   C3220526   9.412   0.421   8.361 -0.3689  0.0932 -0.1900
  169DOPC   H2X20527   9.352   0.511   8.335  0.6691  0.6189 -0.8404
  169DOPC   H2Y20528   9.518   0.448   8.380  0.1412 -2.4957  1.0581
  169DOPC   C2320529   9.522   0.927   8.599  0.3456 -0.3272  0.1506
  169DOPC   H3R20530   9.482   1.011   8.540  1.0211  1.3419  1.9767
  169DOPC   H3S20531   9.536   0.844   8.526 -1.5639 -2.9914  2.5717
  169DOPC   C2420532   9.654   0.954   8.664  0.0454  0.2927  0.7538
  169DOPC   H4R20533   9.702   0.857   8.691 -0.9019 -0.0596  1.2175
  169DOPC   H4S20534   9.633   1.012   8.757 -1.4567 -0.4360  0.9063
  169DOPC   C2520535   9.745   1.017   8.559  0.5961  0.8632  0.0535
  169DOPC   H5R20536   9.702   1.097   8.495 -0.0163  1.5322  1.2637
  169DOPC   H5S20537   9.774   0.931   8.494  3.4658  1.1219  0.8553
  169DOPC   C2620538   9.869   1.071   8.625 -1.0379 -0.3056 -0.8455
  169DOPC   H6R20539   9.891   1.023   8.723 -1.5945  0.9117 -0.0883
  169DOPC   H6S20540   9.870   1.180   8.646  1.7956 -0.3751 -0.2548
  169DOPC   C2720541  10.000   1.042   8.537  0.4322  0.7130 -0.3207
  169DOPC   H7R20542   9.975   1.070   8.433 -2.1723  0.9850  0.3229
  169DOPC   H7S20543  10.007   0.931   8.530  1.6631  0.7521 -0.0277
  169DOPC   C2820544  10.138   1.086   8.594  0.2130 -0.4571 -0.3651
  169DOPC   H8R20545  10.129   1.186   8.642  2.4170 -1.0994  1.5531
  169DOPC   H8S20546  10.208   1.080   8.508  0.2338  1.7162 -0.5566
  169DOPC   C2920547  10.190   0.992   8.703 -0.3766 -0.0633  0.3503
  169DOPC   H9R20548  10.110   0.954   8.767  0.2684 -0.2902  1.0322
  169DOPC  C21020549  10.317   0.966   8.736  0.2332  0.0113 -0.3954
  169DOPC  H10R20550  10.332   0.878   8.800  0.6449  0.2882 -0.1078
  169DOPC  C21120551  10.438   1.022   8.667  0.1652  0.0070 -0.8176
  169DOPC  H11R20552  10.483   1.105   8.726  0.6934  0.0576 -1.2813
  169DOPC  H11S20553  10.407   1.063   8.569 -0.8481 -1.9707 -1.3604
  169DOPC  C21220554  10.549   0.922   8.638  0.3730  0.1254 -0.2756
  169DOPC  H12R20555  10.639   0.970   8.596 -1.1759  1.4081 -2.3219
  169DOPC  H12S20556  10.515   0.847   8.563 -0.4493  0.4627 -0.2556
  169DOPC  C21320557  10.596   0.837   8.760  0.0583 -0.0232  0.7017
  169DOPC  H13R20558  10.511   0.771   8.789 -0.0624 -0.0250  0.3487
  169DOPC  H13S20559  10.625   0.900   8.847 -0.2806 -2.5311  2.7591
  169DOPC  C21420560  10.702   0.738   8.712  0.3045  0.7303 -0.0699
  169DOPC  H14R20561  10.785   0.783   8.652  0.4344  0.8529  0.2011
  169DOPC  H14S20562  10.642   0.668   8.650  0.4609 -0.6586  1.2830
  169DOPC  C21520563  10.741   0.651   8.835 -0.0444 -0.1423 -0.4309
  169DOPC  H15R20564  10.656   0.612   8.893  1.2085 -0.1780  1.4567
  169DOPC  H15S20565  10.803   0.721   8.894  1.9831 -1.7970 -0.4824
  169DOPC  C21620566  10.836   0.534   8.811  0.7830  0.2886 -0.3684
  169DOPC  H16R20567  10.936   0.564   8.773  1.2116 -0.3598  0.2077
  169DOPC  H16S20568  10.799   0.468   8.730 -1.0645  0.9096 -0.0692
  169DOPC  C21720569  10.857   0.433   8.926  0.5730  0.6324  0.0335
  169DOPC  H17R20570  10.881   0.332   8.887  0.7072  0.3934  0.7170
  169DOPC  H17S20571  10.775   0.422   9.000  1.0964 -0.3790  0.4906
  169DOPC  C21820572  10.961   0.490   9.021 -0.0436 -0.2723 -0.2529
  169DOPC  H18R20573  10.908   0.555   9.093  0.7248 -0.0447  0.1156
  169DOPC  H18S20574  11.036   0.548   8.963  0.9520 -1.6166 -0.3815
  169DOPC  H18T20575  11.006   0.412   9.087  0.0873  1.1171  1.3800
  169DOPC   C3320576   9.405   0.311   8.253  0.4845  0.3422  0.1232
  169DOPC   H3X20577   9.452   0.216   8.286 -0.1889 -0.1099 -0.1914
  169DOPC   H3Y20578   9.476   0.339   8.173 -1.1543  0.0454 -1.5065
  169DOPC   C3420579   9.267   0.302   8.193 -0.6844  0.2913 -0.3002
  169DOPC   H4X20580   9.247   0.400   8.143 -1.9063 -0.7398 -1.9685
  169DOPC   H4Y20581   9.188   0.294   8.270 -0.9368  0.1765 -0.5687
  169DOPC   C3520582   9.256   0.200   8.081 -0.2876  0.2171 -0.0820
  169DOPC   H5X20583   9.277   0.106   8.137  0.6804 -0.3997 -1.4242
  169DOPC   H5Y20584   9.335   0.208   8.003 -1.2094  3.2105 -0.8159
  169DOPC   C3620585   9.118   0.202   8.024  0.0370  0.3466 -0.4784
  169DOPC   H6X20586   9.081   0.302   7.991  0.6727  0.7213 -0.0857
  169DOPC   H6Y20587   9.132   0.144   7.930  1.5610 -1.4358  0.7928
  169DOPC   C3720588   9.016   0.135   8.120 -0.2001 -0.2694  0.0132
  169DOPC   H7X20589   9.061   0.047   8.171 -0.1166 -0.6659 -0.7331
  169DOPC   H7Y20590   8.996   0.208   8.200  0.3886 -0.1499  0.0583
  169DOPC   C3820591   8.887   0.099   8.046 -0.5546 -0.1986 -0.3056
  169DOPC   H8X20592   8.907   0.009   7.984  2.1636  0.6511 -0.8009
  169DOPC   H8Y20593   8.864   0.182   7.975  0.0612  1.9679  1.8919
  169DOPC   C3920594   8.777   0.076   8.152 -0.1786 -0.3464 -0.3471
  169DOPC   H9X20595   8.778   0.146   8.237 -1.6533 -2.5036  1.5599
  169DOPC  C31020596   8.695  -0.027   8.162 -0.3055  0.2831 -0.2597
  169DOPC  H10X20597   8.639  -0.044   8.255  1.0231  0.2264  0.5508
  169DOPC  C31120598   8.678  -0.138   8.067  0.3724  0.7257  0.0050
  169DOPC  H11X20599   8.753  -0.137   7.985  0.9560  2.6973  0.5112
  169DOPC  H11Y20600   8.579  -0.125   8.018 -0.8970 -3.0318  1.1786
  169DOPC  C31220601   8.696  -0.271   8.134  0.9680 -0.5134 -0.3737
  169DOPC  H12X20602   8.673  -0.367   8.082  2.1625 -1.9772  1.6773
  169DOPC  H12Y20603   8.625  -0.255   8.218  0.5930 -0.6411 -0.6618
  169DOPC  C31320604   8.839  -0.289   8.182 -0.7481  0.5502  0.0606
  169DOPC  H13X20605   8.909  -0.283   8.096 -1.0133 -3.0674 -0.5677
  169DOPC  H13Y20606   8.861  -0.201   8.247  0.9156 -0.0582  0.3637
  169DOPC  C31420607   8.869  -0.408   8.261 -0.4345  0.6173 -0.1528
  169DOPC  H14X20608   8.795  -0.419   8.343  0.3162  0.2299  0.4820
  169DOPC  H14Y20609   8.866  -0.488   8.184 -0.5265  2.1081 -1.7434
  169DOPC  C31520610   9.011  -0.405   8.323 -0.1328 -0.4032 -0.1992
  169DOPC  H15X20611   9.026  -0.302   8.361  1.7302 -1.0577  1.0294
  169DOPC  H15Y20612   9.094  -0.423   8.250  0.9320 -2.3520  1.3800
  169DOPC  C31620613   9.025  -0.479   8.459 -0.0102 -0.1159  0.2816
  169DOPC  H16X20614   8.945  -0.465   8.535 -1.1030 -0.2985 -0.8069
  169DOPC  H16Y20615   9.052  -0.584   8.435  1.7817  0.3053  0.3190
  169DOPC  C31720616   9.149  -0.431   8.533  0.3504  0.5794 -0.3238
  169DOPC  H17X20617   9.235  -0.436   8.462  1.1942  0.9183  0.6481
  169DOPC  H17Y20618   9.135  -0.324   8.560 -1.2364  0.6510 -1.3134
  169DOPC  C31820619   9.177  -0.510   8.661  0.3325 -0.6917 -0.5400
  169DOPC  H18X20620   9.256  -0.449   8.709  0.3913 -0.6949 -0.6316
  169DOPC  H18Y20621   9.097  -0.517   8.737  0.6451  1.3382  0.0276
  169DOPC  H18Z20622   9.219  -0.611   8.640  1.2783 -0.2591 -0.7848
  170DOPC     N20623   8.980   8.603   9.538 -0.3069  0.3016  0.6904
  170DOPC   C1220624   9.020   8.671   9.401  0.2687 -0.0137  0.3438
  170DOPC  H12A20625   9.102   8.739   9.421  1.0404 -1.5051  2.6519
  170DOPC  H12B20626   8.939   8.735   9.371  1.6361  1.2536 -0.8401
  170DOPC   C1320627   8.963   8.705   9.641  0.2354  0.4242  0.2181
  170DOPC  H13A20628   8.928   8.663   9.734 -0.9426  2.1920  0.6107
  170DOPC  H13B20629   9.057   8.751   9.663  0.6221  0.5398 -1.4826
  170DOPC  H13C20630   8.893   8.785   9.624  2.6523  2.8385  1.0151
  170DOPC   C1420631   9.081   8.512   9.578  0.6815 -0.0608  0.1488
  170DOPC  H14A20632   9.173   8.568   9.585 -0.5475  2.6620 -2.8634
  170DOPC  H14B20633   9.055   8.468   9.673 -0.3300  0.3167  0.0621
  170DOPC  H14C20634   9.085   8.441   9.497 -3.0530 -1.2078  0.7574
  170DOPC   C1520635   8.849   8.533   9.513  0.5690 -0.3833  0.1185
  170DOPC  H15A20636   8.778   8.610   9.489  2.0120  1.5609  1.7589
  170DOPC  H15B20637   8.811   8.480   9.599 -0.2084 -2.2875 -1.3159
  170DOPC  H15C20638   8.851   8.463   9.431  2.6613  0.2402 -0.4254
  170DOPC   C1120639   9.030   8.580   9.276 -0.1280  0.1100 -0.0116
  170DOPC  H11A20640   8.946   8.508   9.286  1.2645 -1.4300  0.9497
  170DOPC  H11B20641   9.007   8.633   9.181 -0.4170 -1.7911 -1.0458
  170DOPC     P20642   9.291   8.579   9.260  0.2819 -0.2300 -0.1922
  170DOPC   O1320643   9.356   8.574   9.394  0.3062  0.6759 -0.0594
  170DOPC   O1420644   9.273   8.715   9.203  0.4631 -0.3370 -0.0834
  170DOPC   O1220645   9.151   8.502   9.270  0.7213  0.4792 -0.1979
  170DOPC   O1120646   9.382   8.489   9.172  0.5049  0.4036  0.5787
  170DOPC    C120647   9.410   8.352   9.202  0.2790 -0.6121  0.7728
  170DOPC    HA20648   9.325   8.296   9.247  1.6460 -1.1789  2.8264
  170DOPC    HB20649   9.484   8.353   9.285  0.1838 -1.6904  0.8936
  170DOPC    C220650   9.480   8.287   9.082 -0.8220 -0.3099  0.3912
  170DOPC    HS20651   9.520   8.186   9.107 -2.6730 -1.7470 -1.9859
  170DOPC   O2120652   9.590   8.368   9.021  0.4076  0.2170 -0.1327
  170DOPC   C2120653   9.711   8.356   9.073 -0.3573  0.1603 -0.2672
  170DOPC   O2220654   9.748   8.308   9.178 -0.5164  0.4820 -0.1528
  170DOPC   C2220655   9.818   8.419   8.988 -0.1891  0.2633  0.0943
  170DOPC   H2R20656   9.916   8.389   9.031 -0.1822 -1.1959 -0.8449
  170DOPC   H2S20657   9.809   8.529   8.979 -1.0964  0.2825  1.0936
  170DOPC    C320658   9.383   8.270   8.964  0.4610  0.2614  1.0199
  170DOPC    HX20659   9.444   8.235   8.877 -2.6559 -0.0149 -1.2195
  170DOPC    HY20660   9.341   8.371   8.949  1.4792  0.6555  0.7108
  170DOPC   O3120661   9.279   8.172   9.000 -0.0015  0.0608 -0.3001
  170DOPC   C3120662   9.304   8.042   8.992  0.0391 -0.1311  0.2438
  170DOPC   O3220663   9.407   7.994   8.953 -0.0234  0.8303 -0.4100
  170DOPC   C3220664   9.177   7.965   9.033  0.0712 -0.2879  0.2513
  170DOPC   H2X20665   9.138   8.029   9.114 -0.0225  0.7885 -0.6119
  170DOPC   H2Y20666   9.114   7.962   8.941  0.6056 -0.4070 -0.1186
  170DOPC   C2320667   9.825   8.361   8.844 -0.0205  0.0438 -0.4866
  170DOPC   H3R20668   9.895   8.425   8.787 -0.2391  0.1756 -0.6095
  170DOPC   H3S20669   9.726   8.363   8.794 -0.3558 -0.2179  0.1502
  170DOPC   C2420670   9.882   8.221   8.846 -0.7396 -0.8780  0.3460
  170DOPC   H4R20671   9.864   8.170   8.749 -0.8453 -2.1717  1.0174
  170DOPC   H4S20672   9.830   8.163   8.925  0.6020 -1.1409  1.0614
  170DOPC   C2520673  10.035   8.223   8.863  0.4443 -0.1957 -0.1145
  170DOPC   H5R20674  10.055   8.125   8.911 -1.7243 -0.7096 -0.1710
  170DOPC   H5S20675  10.059   8.313   8.925  0.9469  0.5718 -1.3780
  170DOPC   C2620676  10.120   8.227   8.734 -0.3282 -1.0694 -0.6182
  170DOPC   H6R20677  10.105   8.322   8.677 -0.9688 -1.1461 -0.5903
  170DOPC   H6S20678  10.074   8.155   8.663  0.9374 -0.8501 -1.6994
  170DOPC   C2720679  10.266   8.203   8.761 -0.6141  0.0619 -0.0273
  170DOPC   H7R20680  10.287   8.100   8.798 -1.4572  0.4142  1.5430
  170DOPC   H7S20681  10.293   8.275   8.842 -0.2072 -1.4141  1.2098
  170DOPC   C2820682  10.345   8.242   8.638  0.2614  0.4277 -0.8992
  170DOPC   H8R20683  10.315   8.344   8.607  0.6168  1.0558  0.7429
  170DOPC   H8S20684  10.323   8.180   8.548 -1.1098  0.1849 -0.4209
  170DOPC   C2920685  10.494   8.228   8.667 -0.0173 -0.4208  0.4242
  170DOPC   H9R20686  10.550   8.318   8.694  1.2994 -1.0033 -0.2696
  170DOPC  C21020687  10.562   8.112   8.647  0.4960  0.1000  0.1307
  170DOPC  H10R20688  10.669   8.118   8.671  0.6995 -0.4183 -0.6141
  170DOPC  C21120689  10.508   7.972   8.624  0.1047 -1.1248  0.1894
  170DOPC  H11R20690  10.573   7.923   8.548  0.8562  1.1606 -0.7423
  170DOPC  H11S20691  10.402   7.976   8.590 -0.4133 -0.7772  1.7984
  170DOPC  C21220692  10.501   7.892   8.756 -0.3608  0.1260 -0.5707
  170DOPC  H12R20693  10.453   7.799   8.718  0.4527  0.7299 -3.3195
  170DOPC  H12S20694  10.450   7.945   8.839  0.1910  0.5487 -0.4921
  170DOPC  C21320695  10.641   7.854   8.804  0.1175  0.0510  0.0805
  170DOPC  H13R20696  10.639   7.846   8.915 -0.5163  1.2025  0.1733
  170DOPC  H13S20697  10.710   7.939   8.788  0.6051 -0.0881  1.3194
  170DOPC  C21420698  10.677   7.719   8.746  0.0631  0.1739  0.7136
  170DOPC  H14R20699  10.664   7.718   8.636 -0.2481  1.8200  0.7020
  170DOPC  H14S20700  10.602   7.652   8.792 -1.0057  0.1107 -1.0470
  170DOPC  C21520701  10.820   7.667   8.777 -0.3684 -0.4421  0.0258
  170DOPC  H15R20702  10.831   7.656   8.887  2.1486  1.2894  0.0409
  170DOPC  H15S20703  10.889   7.744   8.735 -0.4128 -0.9462 -0.9877
  170DOPC  C21620704  10.860   7.534   8.706  0.3362  0.0540 -0.2672
  170DOPC  H16R20705  10.780   7.458   8.710  1.6518 -1.3302  0.9559
  170DOPC  H16S20706  10.953   7.497   8.754  0.6703  2.0003  0.6735
  170DOPC  C21720707  10.888   7.554   8.561  0.0143 -0.0615 -0.2762
  170DOPC  H17R20708  10.985   7.607   8.562  0.0739 -0.1518 -0.8731
  170DOPC  H17S20709  10.822   7.627   8.509  0.5162  0.4543 -0.1912
  170DOPC  C21820710  10.901   7.428   8.471 -0.1052 -0.1596  0.6817
  170DOPC  H18R20711  10.907   7.454   8.363  2.2833 -0.3955  0.6921
  170DOPC  H18S20712  10.821   7.358   8.503 -2.2065  1.7929 -0.0657
  170DOPC  H18T20713  10.996   7.379   8.504 -1.0036 -0.3600  3.1783
  170DOPC   C3320714   9.201   7.819   9.089  0.0362 -0.3245 -0.6190
  170DOPC   H3X20715   9.104   7.796   9.138 -0.2483  0.2821 -0.8801
  170DOPC   H3Y20716   9.278   7.830   9.168 -0.2116 -0.2703 -0.3851
  170DOPC   C3420717   9.230   7.707   8.986  0.0799 -0.2438 -0.3394
  170DOPC   H4X20718   9.264   7.615   9.040  1.7975  0.4904 -0.0839
  170DOPC   H4Y20719   9.320   7.730   8.925  1.5253 -1.6507  1.1158
  170DOPC   C3520720   9.100   7.681   8.914 -0.1821  0.2401 -0.1265
  170DOPC   H5X20721   9.081   7.778   8.862  0.0428 -1.2695 -3.2099
  170DOPC   H5Y20722   9.018   7.658   8.985  0.5759 -0.5417  0.5025
  170DOPC   C3620723   9.120   7.557   8.822  1.2746  0.4063 -1.1262
  170DOPC   H6X20724   9.205   7.566   8.751  0.4358 -1.1646 -2.4015
  170DOPC   H6Y20725   9.141   7.471   8.890 -1.0887  1.0484  0.5345
  170DOPC   C3720726   8.995   7.525   8.741  0.6286  0.9209 -0.3340
  170DOPC   H7X20727   8.919   7.525   8.822  1.1811 -1.7808  0.2984
  170DOPC   H7Y20728   8.970   7.599   8.662 -1.5128  2.3250  1.5295
  170DOPC   C3820729   8.993   7.386   8.687  0.3534  0.2495 -0.3092
  170DOPC   H8X20730   8.886   7.356   8.685  0.0264  1.1688  1.6202
  170DOPC   H8Y20731   9.031   7.319   8.767 -0.2998 -2.7819 -2.3572
  170DOPC   C3920732   9.080   7.378   8.561  0.4218  0.9777 -0.3045
  170DOPC   H9X20733   9.189   7.366   8.561  0.1624 -2.7301 -0.0486
  170DOPC  C31020734   9.027   7.372   8.435 -0.0646 -0.0878 -0.0458
  170DOPC  H10X20735   9.092   7.365   8.346 -1.0488 -1.2246 -0.7096
  170DOPC  C31120736   8.882   7.388   8.392  0.3371 -0.0395  0.3201
  170DOPC  H11X20737   8.828   7.383   8.489  2.2758 -1.1084  1.4058
  170DOPC  H11Y20738   8.855   7.294   8.340  1.4521 -0.6977  0.8875
  170DOPC  C31220739   8.846   7.509   8.294 -0.0119 -0.3009 -0.3501
  170DOPC  H12X20740   8.883   7.490   8.191 -0.4660  0.0375 -0.5732
  170DOPC  H12Y20741   8.900   7.601   8.324 -1.8350  0.7188 -0.0749
  170DOPC  C31320742   8.699   7.543   8.279  0.3533  0.5822 -0.3614
  170DOPC  H13X20743   8.652   7.474   8.206  2.4582 -0.3762 -0.8822
  170DOPC  H13Y20744   8.654   7.538   8.380  3.0768  4.7833  1.3337
  170DOPC  C31420745   8.676   7.688   8.225  1.0285 -0.0946 -0.4292
  170DOPC  H14X20746   8.722   7.764   8.293  1.0047  1.2708 -1.8941
  170DOPC  H14Y20747   8.741   7.695   8.135  0.3726  0.1950 -0.8832
  170DOPC  C31520748   8.522   7.713   8.212 -0.0851 -0.5301 -0.1467
  170DOPC  H15X20749   8.484   7.736   8.314  0.3524  2.7033 -0.6125
  170DOPC  H15Y20750   8.469   7.621   8.179 -0.2104 -0.9180  1.0771
  170DOPC  C31620751   8.494   7.839   8.122  0.0180 -0.0644  0.0598
  170DOPC  H16X20752   8.593   7.876   8.087  0.5156  0.1236  1.5966
  170DOPC  H16Y20753   8.415   7.824   8.046 -1.3471 -1.3547  1.6548
  170DOPC  C31720754   8.420   7.946   8.208 -0.4172  0.1322  0.3205
  170DOPC  H17X20755   8.374   8.027   8.148 -0.5679 -2.0344 -2.7064
  170DOPC  H17Y20756   8.335   7.906   8.267 -0.8910  1.5165  0.6057
  170DOPC  C31820757   8.511   8.010   8.318 -0.2120 -0.3439 -0.1142
  170DOPC  H18X20758   8.557   7.931   8.381 -1.2092  0.2767  1.4593
  170DOPC  H18Y20759   8.591   8.076   8.277 -1.3321  1.2267  0.1286
  170DOPC  H18Z20760   8.446   8.061   8.393  1.0196 -0.5164  1.1144
  171DOPC     N20761   6.643   3.319   6.081 -0.3899 -0.1905  0.7460
  171DOPC   C1220762   6.651   3.439   5.981  0.3825 -0.2982  0.0475
  171DOPC  H12A20763   6.554   3.457   5.938  1.2200  0.5783 -1.6019
  171DOPC  H12B20764   6.716   3.411   5.900  0.4049  2.2053 -0.8916
  171DOPC   C1320765   6.781   3.261   6.101  0.1635  0.2116 -0.2361
  171DOPC  H13A20766   6.773   3.167   6.152  1.7422  1.1879  1.9670
  171DOPC  H13B20767   6.831   3.257   6.006 -0.8234  1.8225 -0.8774
  171DOPC  H13C20768   6.843   3.323   6.164  0.1557  0.2731 -0.2888
  171DOPC   C1420769   6.545   3.212   6.027 -0.8814 -0.3301  0.1573
  171DOPC  H14A20770   6.575   3.176   5.930 -1.2908 -1.3596  0.4003
  171DOPC  H14B20771   6.542   3.125   6.090  0.1572  0.5413  1.4698
  171DOPC  H14C20772   6.443   3.248   6.019 -1.4335 -1.9729 -0.5009
  171DOPC   C1520773   6.603   3.359   6.217 -0.0147  0.2437 -0.6041
  171DOPC  H15A20774   6.621   3.274   6.280 -0.5459 -0.4279 -1.3243
  171DOPC  H15B20775   6.499   3.390   6.223 -0.8594 -2.6705  1.5736
  171DOPC  H15C20776   6.665   3.442   6.246  0.4239 -0.4588  0.5127
  171DOPC   C1120777   6.720   3.569   6.024 -0.1337 -0.0288  0.0892
  171DOPC  H11A20778   6.817   3.541   6.070 -0.1996  1.2875  1.0661
  171DOPC  H11B20779   6.733   3.632   5.933  0.6074 -0.0437  0.1818
  171DOPC     P20780   6.705   3.718   6.239 -0.4232  0.0095 -0.0885
  171DOPC   O1320781   6.767   3.842   6.181  0.5925  0.4699  0.0356
  171DOPC   O1420782   6.790   3.632   6.321 -1.0562  0.4383 -0.2042
  171DOPC   O1220783   6.637   3.636   6.124  0.2037  0.0336  0.7889
  171DOPC   O1120784   6.588   3.769   6.333  0.1384 -0.8126 -0.1888
  171DOPC    C120785   6.507   3.669   6.403  0.1008  0.0855  0.6125
  171DOPC    HA20786   6.549   3.566   6.400 -0.1764  0.0075 -0.9616
  171DOPC    HB20787   6.406   3.671   6.356 -0.0969 -1.0994  0.9508
  171DOPC    C220788   6.476   3.692   6.557  0.2249  0.2711  0.2297
  171DOPC    HS20789   6.440   3.797   6.564  0.6090  0.3034  2.4094
  171DOPC   O2120790   6.600   3.667   6.631 -0.0035  0.3624  0.9613
  171DOPC   C2120791   6.702   3.751   6.612 -0.4242 -0.0663  0.0267
  171DOPC   O2220792   6.698   3.864   6.574 -0.0068  0.6087  0.5606
  171DOPC   C2220793   6.827   3.679   6.663  0.0976  0.3330  0.6925
  171DOPC   H2R20794   6.909   3.704   6.592  0.3630  0.0408  0.8998
  171DOPC   H2S20795   6.809   3.571   6.645 -0.6407  0.4313  0.8125
  171DOPC    C320796   6.356   3.604   6.615  1.1067  0.4992 -0.3669
  171DOPC    HX20797   6.381   3.499   6.590 -0.3512  0.0950 -0.2081
  171DOPC    HY20798   6.260   3.625   6.565  1.2827  0.7166 -0.6185
  171DOPC   O3120799   6.329   3.626   6.757 -0.2769 -0.1614  0.2111
  171DOPC   C3120800   6.341   3.520   6.843  0.5634 -0.7652 -0.3259
  171DOPC   O3220801   6.362   3.407   6.807 -0.3251  0.0686  0.0896
  171DOPC   C3220802   6.311   3.568   6.985  0.4314  0.3869 -0.9316
  171DOPC   H2X20803   6.390   3.624   7.039 -0.6964  0.7568  0.3897
  171DOPC   H2Y20804   6.237   3.650   6.986 -0.2631 -0.2291  0.1002
  171DOPC   C2320805   6.875   3.704   6.812  0.0748 -0.4951  0.3922
  171DOPC   H3R20806   6.915   3.806   6.831 -0.1654  0.0110 -1.5856
  171DOPC   H3S20807   6.962   3.645   6.846  0.1326  0.0601  1.2318
  171DOPC   C2420808   6.769   3.679   6.920  0.3698  0.4617 -0.1446
  171DOPC   H4R20809   6.716   3.585   6.894 -2.9495  1.4315  2.3634
  171DOPC   H4S20810   6.691   3.758   6.913 -0.3424 -0.2811 -0.7960
  171DOPC   C2520811   6.837   3.675   7.055 -0.0837 -0.5174  0.5461
  171DOPC   H5R20812   6.879   3.778   7.060  0.3197 -0.7427  2.9280
  171DOPC   H5S20813   6.915   3.596   7.060  0.8965  0.3951  0.0217
  171DOPC   C2620814   6.736   3.653   7.172  0.4729 -0.4623  0.6161
  171DOPC   H6R20815   6.675   3.567   7.139 -0.4704  0.4771 -0.1598
  171DOPC   H6S20816   6.674   3.745   7.173 -0.7501 -1.2671  0.9543
  171DOPC   C2720817   6.797   3.614   7.310 -0.2488 -0.1672 -0.6043
  171DOPC   H7R20818   6.717   3.629   7.386 -0.5456 -1.9115 -0.5138
  171DOPC   H7S20819   6.885   3.680   7.325 -1.8668  2.0020 -0.1574
  171DOPC   C2820820   6.844   3.459   7.313 -0.1942 -0.4862 -0.4685
  171DOPC   H8R20821   6.921   3.438   7.236  0.3595  2.2367 -0.7231
  171DOPC   H8S20822   6.754   3.397   7.290 -2.5033  3.0407 -1.7209
  171DOPC   C2920823   6.898   3.435   7.454  0.5516 -1.6088  0.4616
  171DOPC   H9R20824   6.845   3.354   7.506  1.0600 -1.2737  1.5076
  171DOPC  C21020825   7.024   3.477   7.489 -0.1873 -0.0684  0.2626
  171DOPC  H10R20826   7.048   3.458   7.595 -1.0932  0.7264  0.6397
  171DOPC  C21120827   7.119   3.563   7.409 -0.3014  0.3304 -0.2125
  171DOPC  H11R20828   7.110   3.670   7.439  0.1024 -0.6531  4.1195
  171DOPC  H11S20829   7.097   3.562   7.300  1.8496 -0.3028 -0.6975
  171DOPC  C21220830   7.265   3.520   7.434 -0.4074 -0.0714  0.5107
  171DOPC  H12R20831   7.268   3.410   7.448  0.5550  0.0345  1.2002
  171DOPC  H12S20832   7.313   3.561   7.526  1.2971  0.4139 -0.5492
  171DOPC  C21320833   7.349   3.555   7.313 -0.2391 -0.1189  0.2807
  171DOPC  H13R20834   7.349   3.666   7.312 -0.1444 -0.1224 -0.1408
  171DOPC  H13S20835   7.296   3.514   7.225 -1.5492 -1.4863  1.6401
  171DOPC  C21420836   7.494   3.506   7.307  0.7288  0.7646  0.0907
  171DOPC  H14R20837   7.504   3.396   7.319 -0.3032  0.7986  1.4301
  171DOPC  H14S20838   7.554   3.560   7.384  1.0287  2.3234 -1.1857
  171DOPC  C21520839   7.569   3.549   7.182  0.0976 -0.2637  0.3451
  171DOPC  H15R20840   7.568   3.660   7.181  0.8422 -0.2560 -0.2364
  171DOPC  H15S20841   7.524   3.516   7.086  1.1648  2.0548 -1.0285
  171DOPC  C21620842   7.715   3.504   7.168 -0.1740  0.4462 -0.0511
  171DOPC  H16R20843   7.711   3.394   7.182 -2.9687  0.5470  0.4403
  171DOPC  H16S20844   7.772   3.560   7.246  1.3571 -0.6794 -0.3146
  171DOPC  C21720845   7.787   3.527   7.036  0.2817  0.3214 -0.1575
  171DOPC  H17R20846   7.729   3.479   6.954  0.7291  0.0217 -0.3003
  171DOPC  H17S20847   7.893   3.494   7.037 -0.0699 -0.8780 -0.3423
  171DOPC  C21820848   7.804   3.679   7.018 -0.3826  0.2221  0.3578
  171DOPC  H18R20849   7.711   3.740   7.012  0.2628  1.3094  1.0849
  171DOPC  H18S20850   7.857   3.699   6.923 -1.4626  2.2892  0.1180
  171DOPC  H18T20851   7.874   3.726   7.090  2.0271 -0.9635 -1.0717
  171DOPC   C3320852   6.241   3.455   7.071 -0.2234  0.2192 -0.0824
  171DOPC   H3X20853   6.167   3.409   7.002 -0.9146  0.7742  0.2852
  171DOPC   H3Y20854   6.183   3.505   7.151 -0.5484  2.0390 -1.3908
  171DOPC   C3420855   6.336   3.349   7.124  0.7733  0.5681 -0.6407
  171DOPC   H4X20856   6.412   3.401   7.187 -1.7296 -0.7269  3.8882
  171DOPC   H4Y20857   6.386   3.302   7.037  0.7501  0.4332 -0.5808
  171DOPC   C3520858   6.265   3.248   7.227  0.1626  0.6051  0.4261
  171DOPC   H5X20859   6.343   3.178   7.264  0.1030 -0.2508 -1.0048
  171DOPC   H5Y20860   6.198   3.185   7.166  2.0164  1.4698 -2.7141
  171DOPC   C3620861   6.197   3.310   7.347  0.6015  0.3748  0.2765
  171DOPC   H6X20862   6.268   3.373   7.404  1.7179 -1.2891  0.7816
  171DOPC   H6Y20863   6.110   3.372   7.314  0.2918 -1.5234 -2.8503
  171DOPC   C3720864   6.151   3.202   7.441  0.2606 -0.0395 -0.3172
  171DOPC   H7X20865   6.075   3.136   7.394  1.8117 -0.1467 -2.8753
  171DOPC   H7Y20866   6.231   3.128   7.464 -1.3963 -1.8568 -0.1265
  171DOPC   C3820867   6.087   3.268   7.568 -0.0295 -0.3655  0.1148
  171DOPC   H8X20868   5.996   3.327   7.543  0.4589 -0.6998 -2.8437
  171DOPC   H8Y20869   6.164   3.339   7.606  0.6048 -1.7360  1.5150
  171DOPC   C3920870   6.066   3.174   7.684 -0.6251  0.8411 -0.1751
  171DOPC   H9X20871   6.109   3.075   7.666  0.7944  1.0936  1.5437
  171DOPC  C31020872   6.024   3.199   7.806  0.0068  0.2174 -0.6978
  171DOPC  H10X20873   5.989   3.123   7.877  0.2824  2.4740  2.0608
  171DOPC  C31120874   5.984   3.334   7.862  0.4975 -0.4496  0.1255
  171DOPC  H11X20875   5.982   3.402   7.774 -0.1246 -1.7172 -0.8771
  171DOPC  H11Y20876   6.055   3.380   7.935 -0.6437  0.1442  0.8874
  171DOPC  C31220877   5.847   3.339   7.931 -0.0524 -0.0729  0.3125
  171DOPC  H12X20878   5.780   3.272   7.873  1.5359 -1.2381 -0.2401
  171DOPC  H12Y20879   5.795   3.437   7.930 -0.0746 -0.0757 -1.3243
  171DOPC  C31320880   5.845   3.286   8.081  0.0076 -0.2670  0.9107
  171DOPC  H13X20881   5.892   3.186   8.082 -0.4739 -0.4981  0.7100
  171DOPC  H13Y20882   5.906   3.355   8.144 -0.9637  0.3256  1.2310
  171DOPC  C31420883   5.699   3.268   8.139  0.2803  0.5292 -0.3426
  171DOPC  H14X20884   5.639   3.204   8.071 -1.5261  0.9637  0.7615
  171DOPC  H14Y20885   5.714   3.203   8.228 -2.0371 -0.6863 -0.7625
  171DOPC  C31520886   5.634   3.397   8.171 -0.0766  0.3599 -1.0479
  171DOPC  H15X20887   5.643   3.471   8.089 -0.3512 -0.1045 -1.5022
  171DOPC  H15Y20888   5.690   3.445   8.254  1.0767  0.2037 -1.7133
  171DOPC  C31620889   5.486   3.386   8.214 -0.0599  0.1157 -0.0707
  171DOPC  H16X20890   5.442   3.486   8.236  3.3774  1.5988  0.6911
  171DOPC  H16Y20891   5.430   3.331   8.135  1.1728  0.5093 -1.2576
  171DOPC  C31720892   5.474   3.312   8.350 -0.4141 -0.8648  0.4248
  171DOPC  H17X20893   5.369   3.315   8.388 -0.3463  0.4176  0.5659
  171DOPC  H17Y20894   5.498   3.205   8.334 -0.6683 -0.7808 -0.5361
  171DOPC  C31820895   5.564   3.353   8.468 -0.0677 -0.0492  0.5618
  171DOPC  H18X20896   5.570   3.285   8.556  0.4864  1.1988  1.5263
  171DOPC  H18Y20897   5.669   3.371   8.436 -1.1006  1.5302 -2.3010
  171DOPC  H18Z20898   5.525   3.445   8.516  0.7174  0.5339  0.0959
  172DOPC     N20899   3.032   5.575   6.355  0.2830  0.6551  0.1529
  172DOPC   C1220900   2.950   5.469   6.428 -0.2569 -0.3372 -0.0034
  172DOPC  H12A20901   2.972   5.369   6.394 -0.8008 -1.0066  1.5320
  172DOPC  H12B20902   2.843   5.483   6.420  0.0302  1.3235 -1.6609
  172DOPC   C1320903   2.991   5.583   6.217 -0.5168 -0.5336  0.3581
  172DOPC  H13A20904   3.051   5.643   6.151 -0.7416 -0.2739  0.3867
  172DOPC  H13B20905   2.989   5.493   6.157 -0.8816  1.0494 -2.1309
  172DOPC  H13C20906   2.894   5.628   6.202 -0.5142  0.3442  2.6422
  172DOPC   C1420907   3.172   5.529   6.363  0.0009  0.3327  0.7278
  172DOPC  H14A20908   3.189   5.426   6.336  2.6890  1.0663 -0.7567
  172DOPC  H14B20909   3.241   5.586   6.303 -1.2092 -1.1167 -2.2332
  172DOPC  H14C20910   3.201   5.541   6.467  1.2749 -2.1046  0.7415
  172DOPC   C1520911   3.037   5.710   6.419 -0.3850 -0.2146 -0.0814
  172DOPC  H15A20912   3.044   5.697   6.526 -3.1532  0.7925  0.3218
  172DOPC  H15B20913   2.944   5.760   6.394  0.3784  2.0454  1.3087
  172DOPC  H15C20914   3.112   5.783   6.391  0.6700 -0.2226  2.4465
  172DOPC   C1120915   2.984   5.472   6.583  0.6869  0.3291 -1.0274
  172DOPC  H11A20916   2.940   5.377   6.623  0.3891  0.9489  0.1618
  172DOPC  H11B20917   3.091   5.454   6.607 -0.0981 -0.1626  2.8257
  172DOPC     P20918   2.777   5.568   6.705  0.3675  0.0520 -0.2442
  172DOPC   O1320919   2.701   5.462   6.632  0.3235  0.4046  0.5303
  172DOPC   O1420920   2.710   5.704   6.704 -0.7813  0.1142  0.0704
  172DOPC   O1220921   2.914   5.584   6.638 -0.1191 -0.1898  0.4266
  172DOPC   O1120922   2.807   5.528   6.855 -0.4280 -0.7288 -0.3073
  172DOPC    C120923   2.873   5.409   6.894 -0.8660  0.0966  0.3786
  172DOPC    HA20924   2.981   5.428   6.876 -0.8228  1.3209  1.6941
  172DOPC    HB20925   2.836   5.320   6.840  1.3077 -0.3182 -0.5462
  172DOPC    C220926   2.850   5.378   7.045 -0.2965  0.3416 -0.2976
  172DOPC    HS20927   2.893   5.453   7.115  0.6182 -1.0649  0.7283
  172DOPC   O2120928   2.903   5.252   7.080  0.3210  0.3605 -0.2975
  172DOPC   C2120929   3.018   5.253   7.137 -0.5311 -0.6193 -0.1772
  172DOPC   O2220930   3.096   5.350   7.145 -0.1237  0.5336 -0.3917
  172DOPC   C2220931   3.054   5.117   7.185 -0.4049 -0.2064 -0.2816
  172DOPC   H2R20932   3.154   5.083   7.152 -0.0926  0.6491 -0.2386
  172DOPC   H2S20933   2.990   5.041   7.136  0.1064 -0.4251 -0.6171
  172DOPC    C320934   2.701   5.369   7.063 -0.1301  0.0642  0.3104
  172DOPC    HX20935   2.670   5.273   7.019  1.2704  0.2781 -1.1974
  172DOPC    HY20936   2.646   5.445   7.003 -2.2941 -0.0083  2.0504
  172DOPC   O3120937   2.671   5.372   7.210 -0.0858 -0.6622 -0.6831
  172DOPC   C3120938   2.540   5.389   7.232  0.9506  0.2712  0.4657
  172DOPC   O3220939   2.456   5.401   7.140  0.0379 -0.2544  0.1170
  172DOPC   C3220940   2.508   5.390   7.382  0.2643  0.0643  0.6064
  172DOPC   H2X20941   2.485   5.494   7.412 -0.4556  0.6037 -1.5946
  172DOPC   H2Y20942   2.415   5.329   7.383 -0.2717  0.8721  0.6634
  172DOPC   C2320943   3.022   5.100   7.335  0.1211  0.1451  1.1875
  172DOPC   H3R20944   3.027   4.991   7.357 -1.9921  0.1635  1.9603
  172DOPC   H3S20945   2.918   5.126   7.365 -0.0544 -1.0004  1.6340
  172DOPC   C2420946   3.127   5.164   7.432  0.3951 -0.1608 -0.1344
  172DOPC   H4R20947   3.103   5.272   7.425  0.0114 -0.3119 -1.3667
  172DOPC   H4S20948   3.226   5.142   7.386 -0.0381  0.5189 -1.4432
  172DOPC   C2520949   3.116   5.118   7.570 -0.6366  0.0460  0.0628
  172DOPC   H5R20950   3.126   5.008   7.568 -1.4019 -0.2687  4.0889
  172DOPC   H5S20951   3.026   5.149   7.628  0.1185  0.6717  0.9224
  172DOPC   C2620952   3.240   5.159   7.643  0.8693  0.2334  0.3157
  172DOPC   H6R20953   3.254   5.268   7.630  3.2706  0.1464  1.6914
  172DOPC   H6S20954   3.330   5.109   7.603 -0.6953  0.5636 -4.1279
  172DOPC   C2720955   3.220   5.119   7.789 -0.1980  0.0696 -0.0279
  172DOPC   H7R20956   3.183   5.014   7.794  2.7578 -1.0360  1.0712
  172DOPC   H7S20957   3.135   5.180   7.827 -1.6340 -0.6318 -1.8977
  172DOPC   C2820958   3.347   5.140   7.884  0.3470  0.3140  0.0393
  172DOPC   H8R20959   3.380   5.246   7.878 -0.1881  0.5430  1.0125
  172DOPC   H8S20960   3.435   5.098   7.830  0.9000  1.5950 -0.0903
  172DOPC   C2920961   3.337   5.094   8.024 -0.2017  0.5966  0.2113
  172DOPC   H9R20962   3.343   4.985   8.035  0.1848  0.7705  2.0245
  172DOPC  C21020963   3.321   5.165   8.133 -0.4217  0.5149 -0.0250
  172DOPC  H10R20964   3.340   5.118   8.231 -0.6029  0.1285 -0.1737
  172DOPC  C21120965   3.321   5.321   8.128 -0.1170  0.4847 -0.8935
  172DOPC  H11R20966   3.240   5.353   8.197  0.3371  0.7670 -0.4859
  172DOPC  H11S20967   3.297   5.360   8.027 -2.8517 -0.2441 -0.6211
  172DOPC  C21220968   3.445   5.390   8.184  0.3088 -0.2245  0.7855
  172DOPC  H12R20969   3.529   5.367   8.115 -0.0078 -2.8569  1.1826
  172DOPC  H12S20970   3.471   5.354   8.286 -1.4968  1.3242  1.8662
  172DOPC  C21320971   3.434   5.539   8.203  0.9377 -0.1149  0.0595
  172DOPC  H13R20972   3.520   5.572   8.266  0.6829  1.3478 -0.3144
  172DOPC  H13S20973   3.330   5.550   8.239  0.9698  0.3042  0.0294
  172DOPC  C21420974   3.439   5.620   8.072  0.1374 -0.0480 -0.0531
  172DOPC  H14R20975   3.431   5.729   8.093  0.1449  0.1679 -1.1196
  172DOPC  H14S20976   3.347   5.604   8.013  0.5976  0.7148 -1.0001
  172DOPC  C21520977   3.565   5.599   7.996  0.3816 -0.4661 -0.1620
  172DOPC  H15R20978   3.577   5.490   7.979 -0.1204 -0.5497 -0.0057
  172DOPC  H15S20979   3.648   5.628   8.064 -0.0880 -1.3226  0.7935
  172DOPC  C21620980   3.573   5.679   7.866  0.5468 -0.6015  0.0528
  172DOPC  H16R20981   3.613   5.780   7.890  2.0529 -0.3723 -2.9103
  172DOPC  H16S20982   3.470   5.697   7.829  1.3761 -1.9258 -3.3418
  172DOPC  C21720983   3.648   5.615   7.752  0.8728  0.0771  0.3469
  172DOPC  H17R20984   3.629   5.686   7.669 -2.5324 -0.2894  0.6570
  172DOPC  H17S20985   3.607   5.515   7.722  1.1833 -0.1957  0.8278
  172DOPC  C21820986   3.794   5.599   7.775 -0.4262  0.2116  0.0845
  172DOPC  H18R20987   3.857   5.690   7.767  0.9125 -0.5546  1.4937
  172DOPC  H18S20988   3.828   5.512   7.715  1.9286  1.0814  0.0539
  172DOPC  H18T20989   3.812   5.565   7.879 -1.8872 -0.8253  0.0282
  172DOPC   C3320990   2.604   5.318   7.474 -0.6708 -0.5438 -0.1287
  172DOPC   H3X20991   2.700   5.374   7.469 -0.6322 -0.7042 -1.4855
  172DOPC   H3Y20992   2.629   5.216   7.440  1.2481  0.1433 -0.9251
  172DOPC   C3420993   2.552   5.312   7.617  0.2008  0.1869 -0.7269
  172DOPC   H4X20994   2.452   5.265   7.625  1.0919 -1.5390  1.0382
  172DOPC   H4Y20995   2.564   5.409   7.670 -1.3162  1.1400 -2.0332
  172DOPC   C3520996   2.635   5.217   7.698  0.5986 -0.4679  0.1646
  172DOPC   H5X20997   2.732   5.263   7.727  0.6126  0.6896 -1.5747
  172DOPC   H5Y20998   2.663   5.132   7.632  1.2418  1.1209 -1.7036
  172DOPC   C3620999   2.564   5.161   7.825 -0.3225 -0.0512 -0.0555
  172DOPC   H6X21000   2.627   5.172   7.916  0.4848 -2.3301 -0.2729
  172DOPC   H6Y21001   2.470   5.219   7.839  0.4355  1.2608 -0.2440
  172DOPC   C3721002   2.529   5.011   7.828  0.3540 -0.3037  0.0190
  172DOPC   H7X21003   2.458   4.991   7.745  0.0684  0.2063  0.1342
  172DOPC   H7Y21004   2.612   4.941   7.804 -0.8124 -1.2949 -1.2721
  172DOPC   C3821005   2.470   4.977   7.971 -0.1377  1.3244  0.5304
  172DOPC   H8X21006   2.417   5.068   8.007 -0.1034  2.3479 -1.8179
  172DOPC   H8Y21007   2.561   4.962   8.033  0.7688 -1.3410 -1.2652
  172DOPC   C3921008   2.380   4.850   7.963 -0.3045 -0.2652  0.5633
  172DOPC   H9X21009   2.292   4.862   7.897 -0.3890  0.2627  0.7602
  172DOPC  C31021010   2.419   4.731   8.006 -0.0739  0.2651  0.0898
  172DOPC  H10X21011   2.342   4.652   8.000  0.9129 -0.6603 -1.0778
  172DOPC  C31121012   2.539   4.707   8.102  0.0859 -0.6647  0.4096
  172DOPC  H11X21013   2.628   4.769   8.080 -0.1706 -0.3107  0.3634
  172DOPC  H11Y21014   2.572   4.601   8.093 -0.2720 -0.7079 -0.5930
  172DOPC  C31221015   2.498   4.745   8.238 -0.1885  0.2660  0.3761
  172DOPC  H12X21016   2.410   4.691   8.278  0.2336 -1.8519 -1.3711
  172DOPC  H12Y21017   2.475   4.854   8.238 -0.8339  0.1350  0.1142
  172DOPC  C31321018   2.615   4.717   8.338 -0.2453  0.0762 -0.4183
  172DOPC  H13X21019   2.648   4.612   8.327 -1.5320 -0.4338  0.3815
  172DOPC  H13Y21020   2.700   4.788   8.331  0.7762 -0.4593  3.8471
  172DOPC  C31421021   2.572   4.740   8.480  0.8294 -0.5549 -0.1633
  172DOPC  H14X21022   2.544   4.846   8.500 -2.3067 -1.3574  0.2170
  172DOPC  H14Y21023   2.469   4.705   8.502  0.4083 -0.0351 -1.2200
  172DOPC  C31521024   2.680   4.691   8.582 -0.2971 -0.0222  0.3013
  172DOPC  H15X21025   2.768   4.759   8.576 -1.1611  0.9806 -2.3988
  172DOPC  H15Y21026   2.710   4.588   8.555  0.2413 -0.1125  1.1874
  172DOPC  C31621027   2.624   4.691   8.723 -0.3682  0.4146  0.4728
  172DOPC  H16X21028   2.533   4.628   8.724 -0.5325  0.5293 -1.8242
  172DOPC  H16Y21029   2.699   4.657   8.798 -0.5885  0.6096  0.7835
  172DOPC  C31721030   2.595   4.826   8.786  0.2908 -0.7192 -0.3764
  172DOPC  H17X21031   2.513   4.880   8.734  0.7962  0.4063 -0.0559
  172DOPC  H17Y21032   2.561   4.811   8.890  0.9881 -0.0759 -0.0380
  172DOPC  C31821033   2.710   4.919   8.796 -1.4128  0.5608 -0.1834
  172DOPC  H18X21034   2.767   4.945   8.704 -0.1818 -0.4861  0.2377
  172DOPC  H18Y21035   2.680   5.015   8.842 -0.4108 -0.0206  1.8350
  172DOPC  H18Z21036   2.785   4.870   8.862 -1.0779  1.7515  0.3522
  173DOPC     N21037   3.256   2.264   6.298 -0.2420  0.3717  0.1769
  173DOPC   C1221038   3.306   2.303   6.432 -0.0893  0.3767  0.2200
  173DOPC  H12A21039   3.408   2.267   6.435 -0.4896 -0.9710 -1.0834
  173DOPC  H12B21040   3.243   2.247   6.499 -1.6218  1.3845 -0.3350
  173DOPC   C1321041   3.355   2.308   6.192  0.3520 -0.0861 -0.2004
  173DOPC  H13A21042   3.330   2.285   6.089 -0.0019  1.8476 -0.5971
  173DOPC  H13B21043   3.368   2.414   6.207  0.9979 -0.0487 -0.9562
  173DOPC  H13C21044   3.451   2.266   6.215 -0.4884 -2.9239 -1.4434
  173DOPC   C1421045   3.115   2.306   6.279 -0.1475 -1.0896 -0.3263
  173DOPC  H14A21046   3.093   2.305   6.173  1.1126 -0.3568 -0.6186
  173DOPC  H14B21047   3.045   2.244   6.332 -0.5240  0.0053  0.5055
  173DOPC  H14C21048   3.095   2.410   6.303  1.5078 -0.7295 -0.3611
  173DOPC   C1521049   3.265   2.115   6.285  0.2124 -0.6396 -0.0067
  173DOPC  H15A21050   3.220   2.086   6.191 -0.7843 -4.1651  1.4149
  173DOPC  H15B21051   3.215   2.060   6.363 -0.7877  1.6679  1.0625
  173DOPC  H15C21052   3.369   2.087   6.284 -0.2279 -2.3427 -0.2688
  173DOPC   C1121053   3.297   2.454   6.477  0.3324 -0.0783 -0.1561
  173DOPC  H11A21054   3.346   2.456   6.577  1.7909  0.6728 -0.8475
  173DOPC  H11B21055   3.361   2.514   6.408  1.7436 -0.7440  0.5188
  173DOPC     P21056   3.078   2.485   6.611  0.0149  0.1528  0.1050
  173DOPC   O1321057   3.082   2.342   6.644  0.2443 -0.0109 -0.4095
  173DOPC   O1421058   2.941   2.529   6.572 -0.0299  0.0673 -0.1447
  173DOPC   O1221059   3.161   2.505   6.483  0.2971  0.0188  0.1394
  173DOPC   O1121060   3.135   2.570   6.717 -1.1995 -0.7900 -0.0921
  173DOPC    C121061   3.100   2.574   6.855 -0.1277  0.3714 -0.1552
  173DOPC    HA21062   3.189   2.566   6.921  0.7869  1.6265 -1.1815
  173DOPC    HB21063   3.039   2.484   6.880 -0.0215  0.5503  0.7893
  173DOPC    C221064   3.013   2.690   6.896 -0.2575 -0.2739 -0.3909
  173DOPC    HS21065   2.923   2.698   6.832  0.4029  1.5848 -1.1243
  173DOPC   O2121066   3.088   2.811   6.874  0.0219 -0.2945 -0.3294
  173DOPC   C2121067   3.008   2.912   6.873 -0.6984  0.2738  0.0261
  173DOPC   O2221068   2.890   2.921   6.857 -0.6017  0.7013 -0.0628
  173DOPC   C2221069   3.100   3.033   6.905 -0.3034 -0.2326  0.4974
  173DOPC   H2R21070   3.198   3.016   6.855 -1.4662 -0.0970 -1.9592
  173DOPC   H2S21071   3.106   3.044   7.016 -0.0193  0.1034  0.4487
  173DOPC    C321072   2.969   2.679   7.045  0.1493 -0.4505 -0.0251
  173DOPC    HX21073   2.893   2.759   7.061  0.2828 -0.2396 -0.4577
  173DOPC    HY21074   3.047   2.695   7.122 -0.1794 -1.0092  0.4338
  173DOPC   O3121075   2.913   2.547   7.067  0.5781 -0.5526  1.0414
  173DOPC   C3121076   2.845   2.536   7.181  0.5534 -0.5746 -0.3021
  173DOPC   O3221077   2.819   2.630   7.255 -0.6053  0.9552  0.3942
  173DOPC   C3221078   2.806   2.394   7.209  0.3774  0.0356 -0.0020
  173DOPC   H2X21079   2.695   2.396   7.198  0.4303  0.4310 -0.4571
  173DOPC   H2Y21080   2.840   2.334   7.122 -1.4221 -1.4209  0.2239
  173DOPC   C2321081   3.047   3.171   6.842 -0.3056  0.1006  0.1059
  173DOPC   H3R21082   2.941   3.175   6.873 -0.6328  0.4261 -1.0196
  173DOPC   H3S21083   3.055   3.164   6.731  0.6445  0.3295  0.1461
  173DOPC   C2421084   3.135   3.290   6.876 -0.6235 -0.3196  0.1351
  173DOPC   H4R21085   3.167   3.340   6.782 -0.3664  0.1411  0.4659
  173DOPC   H4S21086   3.230   3.248   6.916  0.1938  1.3682  0.0576
  173DOPC   C2521087   3.078   3.382   6.983  0.1961 -0.2625  0.1161
  173DOPC   H5R21088   2.976   3.396   6.942  0.0343 -1.1514  0.1870
  173DOPC   H5S21089   3.133   3.477   7.003  0.7443 -0.4657 -0.4073
  173DOPC   C2621090   3.060   3.306   7.117 -0.4433  0.2454 -0.2801
  173DOPC   H6R21091   3.153   3.262   7.159  0.9056  0.9930 -2.3055
  173DOPC   H6S21092   2.986   3.225   7.098 -0.5176  0.4644 -0.9537
  173DOPC   C2721093   3.009   3.394   7.230 -0.5595  0.4718  0.1966
  173DOPC   H7R21094   2.975   3.337   7.318  1.0509 -0.1043  0.4686
  173DOPC   H7S21095   2.916   3.451   7.206 -1.9058 -1.1447  1.3907
  173DOPC   C2821096   3.112   3.493   7.272 -0.3044  0.4813  0.0082
  173DOPC   H8R21097   3.147   3.557   7.188 -1.2481  1.1185  0.0769
  173DOPC   H8S21098   3.201   3.433   7.301  1.5797  2.5102 -1.1858
  173DOPC   C2921099   3.063   3.588   7.379  0.6235 -0.2513  0.3862
  173DOPC   H9R21100   2.957   3.610   7.362  0.7362 -1.3808 -2.1964
  173DOPC  C21021101   3.128   3.614   7.491 -0.1799 -0.0297  0.1197
  173DOPC  H10R21102   3.083   3.679   7.567 -0.1581  1.6017 -1.2045
  173DOPC  C21121103   3.265   3.558   7.525  0.2762 -0.2002 -0.5605
  173DOPC  H11R21104   3.338   3.640   7.539  2.6975 -2.2277 -0.4773
  173DOPC  H11S21105   3.313   3.490   7.451 -0.7504 -0.7408 -0.7438
  173DOPC  C21221106   3.261   3.497   7.668 -0.2256 -0.3908  0.7914
  173DOPC  H12R21107   3.174   3.428   7.678 -1.2190  0.9738  2.2475
  173DOPC  H12S21108   3.236   3.579   7.739 -0.7124  0.8340 -0.7281
  173DOPC  C21321109   3.395   3.431   7.702  0.2467 -0.8029 -0.2870
  173DOPC  H13R21110   3.429   3.353   7.630 -0.5154  0.0548 -1.6170
  173DOPC  H13S21111   3.384   3.378   7.800  0.2439 -2.6021 -1.2114
  173DOPC  C21421112   3.517   3.525   7.712  0.2561 -0.1119 -0.8844
  173DOPC  H14R21113   3.499   3.602   7.790  0.2894  0.8342 -1.7928
  173DOPC  H14S21114   3.531   3.581   7.617 -0.4895 -1.1475 -1.6126
  173DOPC  C21521115   3.656   3.460   7.749 -0.5701 -0.0840 -0.4127
  173DOPC  H15R21116   3.722   3.459   7.659 -0.5484  1.1127 -0.4360
  173DOPC  H15S21117   3.641   3.355   7.782  0.4938 -0.6983 -1.7916
  173DOPC  C21621118   3.747   3.534   7.853 -0.0913  0.3282 -0.0349
  173DOPC  H16R21119   3.729   3.643   7.846 -0.7834  0.1783 -0.6888
  173DOPC  H16S21120   3.855   3.519   7.831  0.4923  0.8593  2.1648
  173DOPC  C21721121   3.720   3.496   7.998  0.6803  0.2401 -0.5233
  173DOPC  H17R21122   3.614   3.519   8.018  0.7550 -1.4767  2.2544
  173DOPC  H17S21123   3.767   3.568   8.068  1.1147  0.1070 -0.6731
  173DOPC  C21821124   3.760   3.351   8.035  0.4931 -0.0822 -0.0312
  173DOPC  H18R21125   3.863   3.332   7.997  0.9500  0.2620  1.0150
  173DOPC  H18S21126   3.687   3.278   7.993 -0.1142  1.2437 -1.4151
  173DOPC  H18T21127   3.750   3.341   8.145 -0.5577  0.9707 -0.0046
  173DOPC   C3321128   2.841   2.347   7.351  0.0331 -0.1127  0.2179
  173DOPC   H3X21129   2.805   2.416   7.431 -0.3701 -0.1822  0.1024
  173DOPC   H3Y21130   2.950   2.351   7.369  0.0032  1.5425  0.1842
  173DOPC   C3421131   2.780   2.210   7.374 -0.0977  0.4364  0.0780
  173DOPC   H4X21132   2.670   2.201   7.363 -0.2141 -0.1529  1.4779
  173DOPC   H4Y21133   2.801   2.189   7.481  0.0192  0.0872 -0.0109
  173DOPC   C3521134   2.857   2.098   7.296 -0.4421 -0.5843 -0.5432
  173DOPC   H5X21135   2.966   2.105   7.315 -0.6950 -1.7487  1.6336
  173DOPC   H5Y21136   2.847   2.115   7.187  0.2817 -1.0066 -0.6799
  173DOPC   C3621137   2.814   1.955   7.335 -0.3132 -0.2815  0.2168
  173DOPC   H6X21138   2.851   1.935   7.438 -1.0368  1.9580  0.9832
  173DOPC   H6Y21139   2.704   1.948   7.328 -0.5330  1.8417  0.8529
  173DOPC   C3721140   2.866   1.863   7.230  0.5898 -0.0666  0.1387
  173DOPC   H7X21141   2.806   1.873   7.137 -3.5565  0.7303  2.6368
  173DOPC   H7Y21142   2.971   1.889   7.206  1.3124 -1.6658  1.3612
  173DOPC   C3821143   2.846   1.719   7.267 -0.1771  0.5267  0.5333
  173DOPC   H8X21144   2.743   1.689   7.239  0.8782 -2.1776 -0.8396
  173DOPC   H8Y21145   2.864   1.700   7.375  1.4003 -1.7546 -0.0521
  173DOPC   C3921146   2.941   1.636   7.182  0.1615  0.1245  0.5878
  173DOPC   H9X21147   2.937   1.656   7.074 -1.0161 -3.0851 -0.0742
  173DOPC  C31021148   3.042   1.555   7.220 -0.1898 -0.3841 -0.0434
  173DOPC  H10X21149   3.094   1.500   7.140 -2.1439 -1.1074 -0.8624
  173DOPC  C31121150   3.084   1.535   7.361  0.0547 -0.5457 -0.4569
  173DOPC  H11X21151   3.020   1.598   7.427  1.6850  1.5212 -0.7357
  173DOPC  H11Y21152   3.190   1.568   7.360  0.4041 -1.6225 -1.6259
  173DOPC  C31221153   3.070   1.387   7.409  0.9828 -0.3137  0.4750
  173DOPC  H12X21154   3.137   1.334   7.338 -1.4420  0.6481 -2.7190
  173DOPC  H12Y21155   2.971   1.337   7.410  0.6242  0.3797  0.0679
  173DOPC  C31321156   3.132   1.376   7.558  0.5683  0.5216  0.3645
  173DOPC  H13X21157   3.238   1.408   7.560  0.5696  0.5839 -0.3574
  173DOPC  H13Y21158   3.081   1.458   7.613  0.6781  0.7329  0.1527
  173DOPC  C31421159   3.124   1.235   7.618  0.2487  0.7565  0.0329
  173DOPC  H14X21160   3.022   1.198   7.594 -0.8228  3.2636  0.3815
  173DOPC  H14Y21161   3.191   1.174   7.554  0.6106  1.3613 -0.1779
  173DOPC  C31521162   3.173   1.234   7.762  0.3854  0.7844 -0.4696
  173DOPC  H15X21163   3.144   1.133   7.798 -0.7741  1.8462  1.7695
  173DOPC  H15Y21164   3.118   1.316   7.814 -1.0873  0.2360 -1.1174
  173DOPC  C31621165   3.325   1.264   7.764 -0.1318 -0.2344  0.2012
  173DOPC  H16X21166   3.393   1.213   7.692  1.5412  3.0802 -0.7675
  173DOPC  H16Y21167   3.338   1.369   7.732  0.0701 -0.0423  0.8986
  173DOPC  C31721168   3.395   1.237   7.896 -0.1338 -0.3421 -0.5739
  173DOPC  H17X21169   3.499   1.273   7.887 -0.6012  2.0272  1.9885
  173DOPC  H17Y21170   3.355   1.306   7.974  0.1067  1.3915 -1.9030
  173DOPC  C31821171   3.388   1.095   7.938 -0.0176  0.5396 -1.0598
  173DOPC  H18X21172   3.434   1.082   8.038 -2.6268  0.0197  0.1519
  173DOPC  H18Y21173   3.284   1.065   7.964  1.1161 -1.6326  1.3867
  173DOPC  H18Z21174   3.436   1.029   7.862  1.7594 -1.1396  1.3782
  174DOPC     N21175   8.179   2.649   6.344  0.4862 -0.1647 -0.2407
  174DOPC   C1221176   8.102   2.659   6.217 -0.0831  0.1282  0.2684
  174DOPC  H12A21177   8.156   2.614   6.134  0.5241  1.0793  0.1341
  174DOPC  H12B21178   8.095   2.761   6.182 -2.2398 -0.8952 -2.6441
  174DOPC   C1321179   8.175   2.513   6.408 -0.3916  0.8511  0.4284
  174DOPC  H13A21180   8.233   2.450   6.342 -0.0505  0.7318  0.8346
  174DOPC  H13B21181   8.216   2.523   6.508 -0.3917 -0.6280  0.5949
  174DOPC  H13C21182   8.080   2.468   6.432 -1.9849  2.5765 -2.2025
  174DOPC   C1421183   8.123   2.744   6.443 -0.2852  0.1351 -0.3606
  174DOPC  H14A21184   8.016   2.734   6.455 -0.7473  1.0304 -3.1062
  174DOPC  H14B21185   8.168   2.726   6.540  1.3562  1.6669 -0.7791
  174DOPC  H14C21186   8.148   2.845   6.414 -0.9873  0.5752  0.5147
  174DOPC   C1521187   8.323   2.680   6.315 -0.3514 -0.0794  0.7693
  174DOPC  H15A21188   8.382   2.672   6.405 -1.2341  0.6655  1.4392
  174DOPC  H15B21189   8.341   2.780   6.279  2.1012 -1.2775 -1.6601
  174DOPC  H15C21190   8.359   2.603   6.249  1.0343  1.0483  0.1538
  174DOPC   C1121191   7.957   2.606   6.214 -0.6316 -0.0147 -0.3897
  174DOPC  H11A21192   7.956   2.554   6.116 -0.4887  0.6452 -0.7431
  174DOPC  H11B21193   7.932   2.527   6.288  0.2417 -0.3400 -0.4241
  174DOPC     P21194   7.716   2.688   6.198 -0.5590  0.5902 -0.3943
  174DOPC   O1321195   7.681   2.598   6.083 -0.4687 -0.4974  0.2169
  174DOPC   O1421196   7.645   2.809   6.193  0.1156 -0.0919 -0.2771
  174DOPC   O1221197   7.872   2.715   6.210  0.0263  0.6165  0.2330
  174DOPC   O1121198   7.693   2.612   6.335 -0.5056 -0.0481  0.6050
  174DOPC    C121199   7.736   2.650   6.464  0.3266  0.3972  0.1669
  174DOPC    HA21200   7.779   2.751   6.475  0.5992 -0.0110  4.3060
  174DOPC    HB21201   7.815   2.580   6.498 -0.9148 -1.3640 -0.4211
  174DOPC    C221202   7.614   2.641   6.568  0.7339  0.3238 -0.1695
  174DOPC    HS21203   7.647   2.682   6.666 -1.2166  1.7873 -0.0700
  174DOPC   O2121204   7.563   2.507   6.572 -0.2536  0.4057  0.0527
  174DOPC   C2121205   7.633   2.423   6.649  0.4587  0.4184 -0.0805
  174DOPC   O2221206   7.738   2.447   6.702  0.4330 -0.1959  0.2510
  174DOPC   C2221207   7.565   2.285   6.644 -0.3719 -0.1167  0.4033
  174DOPC   H2R21208   7.644   2.212   6.671 -0.0895  0.2201  0.4836
  174DOPC   H2S21209   7.531   2.267   6.540 -2.1221  0.5121  0.8269
  174DOPC    C321210   7.498   2.744   6.527 -0.2044 -0.3315 -0.4624
  174DOPC    HX21211   7.418   2.684   6.479  1.2326 -1.1858 -1.8861
  174DOPC    HY21212   7.537   2.817   6.453  0.3774 -1.2310 -1.0644
  174DOPC   O3121213   7.454   2.828   6.640 -0.4667 -0.1102  0.0889
  174DOPC   C3121214   7.329   2.796   6.689  0.1192 -0.2116  0.7255
  174DOPC   O3221215   7.272   2.697   6.663 -0.3402 -0.1947  0.2585
  174DOPC   C3221216   7.303   2.888   6.808 -0.3039 -0.2642 -0.2120
  174DOPC   H2X21217   7.396   2.884   6.868 -0.7367  1.5672  0.6683
  174DOPC   H2Y21218   7.281   2.989   6.766 -2.8507 -1.0220 -0.8525
  174DOPC   C2321219   7.457   2.263   6.745  0.1511 -0.5837  0.7396
  174DOPC   H3R21220   7.493   2.306   6.840  2.2731 -0.4320 -0.0781
  174DOPC   H3S21221   7.439   2.155   6.763  0.5236 -0.7787 -0.0125
  174DOPC   C2421222   7.318   2.327   6.701 -0.0345 -0.1190  0.0762
  174DOPC   H4R21223   7.295   2.301   6.595 -1.2177 -0.0141  0.2878
  174DOPC   H4S21224   7.317   2.438   6.708  0.4785 -0.0493 -0.7747
  174DOPC   C2521225   7.203   2.279   6.789  0.1751  0.6213  0.1160
  174DOPC   H5R21226   7.226   2.176   6.822 -2.1160  0.5410  1.7522
  174DOPC   H5S21227   7.108   2.271   6.730  0.2235 -0.5430  0.1708
  174DOPC   C2621228   7.169   2.371   6.912  0.0564  0.3735  0.3441
  174DOPC   H6R21229   7.081   2.324   6.960  1.3181 -1.5529  0.8692
  174DOPC   H6S21230   7.161   2.477   6.878  0.6723  0.6466  1.0244
  174DOPC   C2721231   7.284   2.377   7.015  0.2442  0.1542 -0.5083
  174DOPC   H7R21232   7.366   2.440   6.976  0.9604 -0.7992 -0.5868
  174DOPC   H7S21233   7.314   2.275   7.048 -2.2807 -0.5177 -0.0816
  174DOPC   C2821234   7.241   2.453   7.146  0.0134  0.8490  0.0172
  174DOPC   H8R21235   7.160   2.390   7.189  0.7114  0.2962  0.5325
  174DOPC   H8S21236   7.199   2.553   7.119 -1.5286 -0.0580 -1.1612
  174DOPC   C2921237   7.354   2.458   7.243  0.0949 -0.0071 -0.0188
  174DOPC   H9R21238   7.413   2.365   7.254 -1.4969 -1.0962 -0.3045
  174DOPC  C21021239   7.392   2.564   7.313  0.3749  0.7910 -0.1724
  174DOPC  H10R21240   7.481   2.547   7.375  0.7283 -0.3370 -0.9610
  174DOPC  C21121241   7.328   2.700   7.301 -0.1698 -0.6312  0.9051
  174DOPC  H11R21242   7.222   2.702   7.270 -0.2938  1.0462  1.3005
  174DOPC  H11S21243   7.389   2.765   7.234 -0.4989 -1.9133 -0.6927
  174DOPC  C21221244   7.329   2.771   7.436 -0.3265 -0.7542  0.6425
  174DOPC  H12R21245   7.437   2.795   7.446 -0.3783  0.5092 -1.3403
  174DOPC  H12S21246   7.282   2.711   7.517 -0.6567 -0.7187  0.4810
  174DOPC  C21321247   7.265   2.910   7.432 -0.5005 -0.2421  0.1234
  174DOPC  H13R21248   7.307   2.978   7.508 -0.3933  0.0717 -0.2093
  174DOPC  H13S21249   7.157   2.904   7.460 -0.4061  0.9843  0.8175
  174DOPC  C21421250   7.272   2.993   7.302 -0.4763 -0.3534  0.1599
  174DOPC  H14R21251   7.212   2.945   7.223 -0.0844  3.1991 -2.5448
  174DOPC  H14S21252   7.380   2.996   7.277 -0.2573 -0.9677  0.9714
  174DOPC  C21521253   7.209   3.133   7.325 -0.5184  0.0326  0.8859
  174DOPC  H15R21254   7.290   3.197   7.366 -1.2082  1.0238  0.7352
  174DOPC  H15S21255   7.140   3.128   7.412  0.5910 -1.6625  1.7348
  174DOPC  C21621256   7.146   3.185   7.194 -0.3275  0.2069  0.7979
  174DOPC  H16R21257   7.079   3.269   7.221 -1.7421 -0.2298 -1.0991
  174DOPC  H16S21258   7.091   3.099   7.150  0.3244  0.3150 -0.2655
  174DOPC  C21721259   7.256   3.234   7.094 -0.5902 -0.3443  0.2142
  174DOPC  H17R21260   7.313   3.144   7.063 -2.4165 -1.0727 -1.1740
  174DOPC  H17S21261   7.317   3.299   7.161 -1.4591  0.3491  0.3409
  174DOPC  C21821262   7.201   3.311   6.979 -0.3039 -0.3036 -0.8732
  174DOPC  H18R21263   7.121   3.252   6.931 -0.8322 -0.8639  0.6316
  174DOPC  H18S21264   7.281   3.335   6.906 -1.8195 -0.6873 -2.7258
  174DOPC  H18T21265   7.155   3.405   7.016 -1.6383 -0.0960 -2.9311
  174DOPC   C3321266   7.192   2.834   6.904 -0.0566  0.2675 -0.3190
  174DOPC   H3X21267   7.199   2.883   7.003 -5.3922  0.7995  0.0963
  174DOPC   H3Y21268   7.206   2.726   6.926  0.9713  0.5544  0.5121
  174DOPC   C3421269   7.042   2.851   6.858 -0.0545 -0.1816 -0.2825
  174DOPC   H4X21270   7.053   2.850   6.747 -0.1012 -1.5796 -0.2890
  174DOPC   H4Y21271   7.007   2.950   6.894  1.2569 -0.4611  1.9462
  174DOPC   C3521272   6.935   2.744   6.915 -0.4668 -0.5762  0.1782
  174DOPC   H5X21273   6.954   2.734   7.024  1.3753  0.6733  0.0083
  174DOPC   H5Y21274   6.971   2.650   6.867  1.9273  0.1318  0.4542
  174DOPC   C3621275   6.795   2.785   6.885 -0.0594 -0.0768 -0.7220
  174DOPC   H6X21276   6.780   2.886   6.928  1.4080 -0.3844  0.6402
  174DOPC   H6Y21277   6.784   2.782   6.774 -0.7662  1.8777 -0.7481
  174DOPC   C3721278   6.694   2.685   6.943  0.2459  0.4188 -0.4334
  174DOPC   H7X21279   6.684   2.610   6.861  2.4762  0.1937 -0.5871
  174DOPC   H7Y21280   6.716   2.654   7.047 -0.4167  2.3959  0.3375
  174DOPC   C3821281   6.561   2.765   6.959  0.4917  0.4476 -0.1841
  174DOPC   H8X21282   6.533   2.826   6.871 -0.9114 -0.3079 -0.2934
  174DOPC   H8Y21283   6.560   2.838   7.043 -2.5651 -0.0735  0.3422
  174DOPC   C3921284   6.450   2.659   6.988 -0.5113  0.4588  0.0122
  174DOPC   H9X21285   6.450   2.579   6.912 -0.6080 -1.4745  1.9698
  174DOPC  C31021286   6.352   2.671   7.081 -0.4390  0.5891 -0.4089
  174DOPC  H10X21287   6.275   2.593   7.076 -1.8342  1.8151  0.9905
  174DOPC  C31121288   6.331   2.794   7.165 -0.0176  0.3675 -0.0035
  174DOPC  H11X21289   6.231   2.833   7.137 -0.2296 -0.6571 -0.7043
  174DOPC  H11Y21290   6.401   2.874   7.134  1.5829 -1.0876 -0.2851
  174DOPC  C31221291   6.338   2.775   7.321 -0.6527  0.2324 -0.1075
  174DOPC  H12X21292   6.259   2.700   7.347 -1.1840 -0.1424 -2.4883
  174DOPC  H12Y21293   6.296   2.871   7.359 -2.7133 -0.3560 -0.7197
  174DOPC  C31321294   6.471   2.736   7.386  0.1258 -0.1897 -0.9404
  174DOPC  H13X21295   6.529   2.665   7.324  2.0448  1.2663 -0.9116
  174DOPC  H13Y21296   6.542   2.821   7.397  3.6017 -3.1969  2.6923
  174DOPC  C31421297   6.444   2.663   7.520 -0.0275 -0.1905  0.3245
  174DOPC  H14X21298   6.382   2.726   7.587 -2.3352 -1.1629 -0.7875
  174DOPC  H14Y21299   6.389   2.567   7.504  0.9117 -1.2518  2.9038
  174DOPC  C31521300   6.571   2.634   7.604 -0.6875  1.1736  0.0419
  174DOPC  H15X21301   6.652   2.703   7.572  0.1355 -0.7379 -2.3708
  174DOPC  H15Y21302   6.611   2.533   7.581 -1.0083  1.5406 -2.4063
  174DOPC  C31621303   6.544   2.660   7.749 -0.8534  0.1635 -0.4144
  174DOPC  H16X21304   6.492   2.758   7.754 -0.9064  0.2786 -2.4113
  174DOPC  H16Y21305   6.483   2.577   7.790  2.6021 -2.0226  0.8373
  174DOPC  C31721306   6.674   2.682   7.835 -0.3913 -0.2633 -0.4494
  174DOPC  H17X21307   6.726   2.584   7.836 -0.5859 -0.4213  2.5534
  174DOPC  H17Y21308   6.735   2.759   7.784 -1.2374  0.4736 -0.3786
  174DOPC  C31821309   6.671   2.721   7.976  0.1335  0.0399 -0.1356
  174DOPC  H18X21310   6.601   2.654   8.030 -1.0809 -0.1773 -1.8889
  174DOPC  H18Y21311   6.774   2.723   8.017 -0.3977  0.1073  1.2488
  174DOPC  H18Z21312   6.638   2.827   7.974 -1.6912 -0.5073 -1.4601
  175DOPC     N21313   4.493   6.339   6.333 -0.0749  0.1146  0.0552
  175DOPC   C1221314   4.480   6.360   6.479 -0.4804  0.0372  0.7296
  175DOPC  H12A21315   4.530   6.275   6.522 -0.1385  0.0380  0.3309
  175DOPC  H12B21316   4.377   6.348   6.510 -0.3824 -2.5787  0.2507
  175DOPC   C1321317   4.422   6.213   6.308 -0.4293  0.0804  0.1956
  175DOPC  H13A21318   4.321   6.212   6.344 -1.7421  2.0784 -3.0509
  175DOPC  H13B21319   4.403   6.202   6.202 -1.0862  2.2037  0.0655
  175DOPC  H13C21320   4.468   6.134   6.366 -0.2832  1.0721  1.4713
  175DOPC   C1421321   4.641   6.327   6.302  0.4833 -0.8012  0.5188
  175DOPC  H14A21322   4.659   6.278   6.207 -2.0939  1.8526 -1.5544
  175DOPC  H14B21323   4.694   6.420   6.312  0.2754 -0.1193 -3.1231
  175DOPC  H14C21324   4.675   6.247   6.366  0.3318 -2.0959 -0.9584
  175DOPC   C1521325   4.421   6.445   6.262 -0.0889 -0.1118 -0.1652
  175DOPC  H15A21326   4.416   6.424   6.156  0.1720  2.0614 -0.6521
  175DOPC  H15B21327   4.469   6.541   6.274 -0.8570  0.5558 -1.9430
  175DOPC  H15C21328   4.319   6.457   6.297 -0.8769 -1.7465 -1.7393
  175DOPC   C1121329   4.550   6.485   6.546  0.6268  0.4584  0.0456
  175DOPC  H11A21330   4.550   6.476   6.657  0.3770  0.9035  0.0846
  175DOPC  H11B21331   4.657   6.466   6.524  0.0738  0.0920 -2.5613
  175DOPC     P21332   4.467   6.729   6.586  0.2698  0.0468 -0.3479
  175DOPC   O1321333   4.375   6.815   6.513 -0.3987  0.5959 -0.5999
  175DOPC   O1421334   4.589   6.793   6.638 -0.1102 -0.4006 -0.2103
  175DOPC   O1221335   4.509   6.607   6.496 -0.5606  0.1162 -0.0242
  175DOPC   O1121336   4.389   6.666   6.707  0.0182 -0.3165 -0.3598
  175DOPC    C121337   4.421   6.664   6.845 -0.2080  0.6570  1.1051
  175DOPC    HA21338   4.529   6.650   6.865 -0.2149 -1.5123 -0.0880
  175DOPC    HB21339   4.362   6.580   6.887 -0.9165  0.0406 -1.0219
  175DOPC    C221340   4.363   6.788   6.919  0.1669 -0.4758  0.2838
  175DOPC    HS21341   4.263   6.801   6.873  1.1323  1.3061 -1.4411
  175DOPC   O2121342   4.446   6.900   6.893 -0.1004  0.0912  0.5468
  175DOPC   C2121343   4.402   7.017   6.914  0.7173 -0.2423  0.8524
  175DOPC   O2221344   4.282   7.046   6.942 -0.1971  0.2551  0.4276
  175DOPC   C2221345   4.522   7.120   6.916 -0.0766 -0.6410  0.4752
  175DOPC   H2R21346   4.530   7.151   6.809  0.8158 -0.1271  0.6763
  175DOPC   H2S21347   4.613   7.063   6.945 -0.6975 -1.7523  0.3108
  175DOPC    C321348   4.342   6.764   7.078 -0.1722 -0.3853  0.1010
  175DOPC    HX21349   4.276   6.838   7.127  0.3558 -1.2767  2.2594
  175DOPC    HY21350   4.440   6.768   7.131  0.5488  1.4530 -1.2786
  175DOPC   O3121351   4.305   6.630   7.108 -0.3841  0.2450 -0.3351
  175DOPC   C3121352   4.176   6.604   7.100 -0.1244  0.0369 -0.1554
  175DOPC   O3221353   4.095   6.679   7.053  0.6143 -0.1411  0.4008
  175DOPC   C3221354   4.152   6.465   7.156 -0.0887 -0.1504  0.0462
  175DOPC   H2X21355   4.187   6.390   7.081  1.3074  1.3940 -0.9315
  175DOPC   H2Y21356   4.218   6.454   7.245 -2.2698  0.9996  1.8804
  175DOPC   C2321357   4.512   7.242   7.004 -0.2089 -1.0999 -0.4079
  175DOPC   H3R21358   4.416   7.298   7.005 -0.0361 -0.7932 -0.5972
  175DOPC   H3S21359   4.586   7.319   6.970 -1.8094  0.7549  0.1108
  175DOPC   C2421360   4.543   7.195   7.149  0.1089 -0.4945 -0.1994
  175DOPC   H4R21361   4.624   7.120   7.148 -0.0400 -0.6564 -0.4983
  175DOPC   H4S21362   4.458   7.135   7.189  0.4555 -1.0602 -0.2959
  175DOPC   C2521363   4.600   7.312   7.235 -0.2243  0.1854  0.0890
  175DOPC   H5R21364   4.534   7.401   7.224 -1.7545 -0.8010  0.8916
  175DOPC   H5S21365   4.706   7.332   7.210 -0.8179  3.6890 -0.1766
  175DOPC   C2621366   4.589   7.266   7.387  0.3966 -0.1733 -0.2575
  175DOPC   H6R21367   4.483   7.233   7.395  0.7437 -2.1061 -2.5419
  175DOPC   H6S21368   4.604   7.354   7.453 -1.1334  0.2664 -0.4685
  175DOPC   C2721369   4.678   7.146   7.417 -0.2199  0.5788 -0.4873
  175DOPC   H7R21370   4.776   7.175   7.460  0.7338 -1.8881 -0.7844
  175DOPC   H7S21371   4.712   7.106   7.319  3.4052 -0.4935  1.0113
  175DOPC   C2821372   4.617   7.039   7.507  0.2146 -0.0666  0.1532
  175DOPC   H8R21373   4.560   7.087   7.589  0.1221  1.5348 -0.7925
  175DOPC   H8S21374   4.696   6.992   7.569  0.8918 -0.6528 -1.1015
  175DOPC   C2921375   4.537   6.944   7.419 -0.0153  0.6138  0.4094
  175DOPC   H9R21376   4.580   6.908   7.324 -2.5944 -0.2293 -0.5104
  175DOPC  C21021377   4.415   6.894   7.445  0.3014 -0.0231 -0.2603
  175DOPC  H10R21378   4.363   6.833   7.370  2.3705 -1.0659 -0.9247
  175DOPC  C21121379   4.328   6.937   7.562  0.4102 -0.5874  0.6747
  175DOPC  H11R21380   4.259   7.014   7.519  2.4628  0.5201 -0.8027
  175DOPC  H11S21381   4.372   6.981   7.654 -1.4801 -0.6860  1.6929
  175DOPC  C21221382   4.244   6.811   7.622 -1.0544  0.1229 -1.0127
  175DOPC  H12R21383   4.196   6.848   7.715  1.1793 -2.7937  1.5526
  175DOPC  H12S21384   4.327   6.744   7.655  1.3939  2.6068 -1.6842
  175DOPC  C21321385   4.151   6.740   7.526  0.4190 -0.6443 -0.1011
  175DOPC  H13R21386   4.107   6.648   7.569 -1.9924  0.7112  0.5134
  175DOPC  H13S21387   4.205   6.699   7.438 -0.7322 -0.8976 -0.6996
  175DOPC  C21421388   4.041   6.839   7.466 -0.0533 -0.4851 -0.2725
  175DOPC  H14R21389   4.100   6.905   7.398  2.0846 -0.8968  1.0942
  175DOPC  H14S21390   3.986   6.886   7.550 -2.4134 -3.1352 -0.2125
  175DOPC  C21521391   3.948   6.762   7.376  0.5690  0.1648 -0.5675
  175DOPC  H15R21392   3.912   6.665   7.415 -0.3536  0.1439 -1.4401
  175DOPC  H15S21393   4.002   6.725   7.286  0.3275 -2.5762  0.3277
  175DOPC  C21621394   3.821   6.831   7.323 -0.6648  0.6463 -0.4558
  175DOPC  H16R21395   3.756   6.839   7.414  1.3459  1.5570  0.9688
  175DOPC  H16S21396   3.771   6.761   7.253  0.9930  0.5468 -1.5767
  175DOPC  C21721397   3.835   6.962   7.254  1.1021 -1.1132 -0.0377
  175DOPC  H17R21398   3.886   6.946   7.156  2.6145  1.7327  0.1812
  175DOPC  H17S21399   3.900   7.034   7.306 -1.4401  1.9165 -0.7709
  175DOPC  C21821400   3.703   7.033   7.241 -0.5953 -0.4437 -0.0388
  175DOPC  H18R21401   3.623   6.981   7.184 -0.6969  0.5834 -0.8606
  175DOPC  H18S21402   3.730   7.119   7.176 -2.4595 -0.3450 -0.7227
  175DOPC  H18T21403   3.672   7.074   7.340 -1.1943  1.4619 -0.9622
  175DOPC   C3321404   4.002   6.441   7.176 -0.2701 -0.9623  0.3571
  175DOPC   H3X21405   3.945   6.444   7.081 -0.1860  0.1258  0.3270
  175DOPC   H3Y21406   3.964   6.510   7.255 -0.2208 -0.3848 -0.1128
  175DOPC   C3421407   3.972   6.296   7.217 -0.6873 -0.0251 -0.4117
  175DOPC   H4X21408   3.980   6.230   7.129 -0.5396  0.9309 -1.1315
  175DOPC   H4Y21409   3.866   6.290   7.251 -0.7021  1.3327 -0.1526
  175DOPC   C3521410   4.056   6.243   7.331 -0.8812  0.7732  0.1868
  175DOPC   H5X21411   4.165   6.238   7.312 -1.3947 -1.9533 -2.7933
  175DOPC   H5Y21412   4.028   6.140   7.361 -2.0648  1.1391  0.3786
  175DOPC   C3621413   4.031   6.325   7.463 -0.4201  0.0400  0.7221
  175DOPC   H6X21414   4.090   6.419   7.459 -0.2968 -0.0550  0.2327
  175DOPC   H6Y21415   3.924   6.353   7.476 -0.3694  0.2242  0.7485
  175DOPC   C3721416   4.093   6.245   7.581  0.6014  0.0296 -0.0189
  175DOPC   H7X21417   4.036   6.152   7.600  1.9522 -1.0924 -1.2291
  175DOPC   H7Y21418   4.195   6.217   7.548  0.8015  0.6890  0.0224
  175DOPC   C3821419   4.110   6.335   7.703 -0.1726  0.3144 -0.1245
  175DOPC   H8X21420   4.011   6.360   7.746  0.6180 -0.4602  2.2688
  175DOPC   H8Y21421   4.155   6.427   7.660  1.0157 -0.3994 -0.4492
  175DOPC   C3921422   4.183   6.273   7.817 -0.5558 -0.1796 -1.0976
  175DOPC   H9X21423   4.293   6.276   7.815 -0.5563  1.7444 -0.5554
  175DOPC  C31021424   4.132   6.209   7.922 -0.7853 -0.0082 -0.1221
  175DOPC  H10X21425   4.200   6.197   8.008  1.5733  3.1757 -1.3581
  175DOPC  C31121426   3.985   6.170   7.944 -0.6114 -0.8005 -0.3261
  175DOPC  H11X21427   3.919   6.228   7.875 -0.2676  3.4632  2.5097
  175DOPC  H11Y21428   3.955   6.205   8.045  0.0123 -1.3680  0.0589
  175DOPC  C31221429   3.965   6.020   7.932  0.4895  0.4556 -0.4649
  175DOPC  H12X21430   4.001   5.968   8.024 -0.9986  0.6745  0.2669
  175DOPC  H12Y21431   4.031   5.979   7.852  0.9941  2.0824 -0.9153
  175DOPC  C31321432   3.818   5.965   7.900 -0.4136 -0.1329  0.3557
  175DOPC  H13X21433   3.796   5.993   7.795 -1.0337 -3.5808 -0.5816
  175DOPC  H13Y21434   3.829   5.854   7.906 -0.0814 -0.0938  0.4639
  175DOPC  C31421435   3.721   6.021   8.006  0.4063  0.3564 -0.4792
  175DOPC  H14X21436   3.724   6.132   8.002  0.0342  0.4038  0.2894
  175DOPC  H14Y21437   3.620   5.984   7.982  0.3418  1.7862 -2.6527
  175DOPC  C31521438   3.761   5.979   8.146 -0.6645 -0.1434  0.1563
  175DOPC  H15X21439   3.855   6.031   8.174 -2.2240  1.2909  3.1973
  175DOPC  H15Y21440   3.776   5.870   8.159  0.9626 -0.4516 -3.0998
  175DOPC  C31621441   3.666   6.025   8.254  0.3669  0.0501  0.0579
  175DOPC  H16X21442   3.710   5.989   8.350 -2.8618 -3.6196  0.4108
  175DOPC  H16Y21443   3.661   6.136   8.248  1.6946  0.1018 -0.4987
  175DOPC  C31721444   3.523   5.966   8.259  0.0722 -0.0386 -0.0434
  175DOPC  H17X21445   3.464   5.991   8.168 -0.3611 -0.9408 -0.0291
  175DOPC  H17Y21446   3.537   5.856   8.264  1.8293  0.0897 -1.1743
  175DOPC  C31821447   3.436   6.015   8.377 -0.3326  0.0683  0.3713
  175DOPC  H18X21448   3.455   6.123   8.397 -0.1949  0.9728 -3.8049
  175DOPC  H18Y21449   3.332   5.993   8.346 -0.4009  1.9999 -1.0053
  175DOPC  H18Z21450   3.452   5.959   8.472  2.4138  2.0118  1.2019
  176DOPC     N21451   4.722   1.738   6.032 -0.1687  0.1480 -0.4464
  176DOPC   C1221452   4.666   1.801   6.155 -0.5275  0.5184  0.7035
  176DOPC  H12A21453   4.586   1.869   6.126  1.4347  2.0932 -1.4371
  176DOPC  H12B21454   4.746   1.862   6.193  0.9080 -0.3629 -0.7600
  176DOPC   C1321455   4.844   1.664   6.072  0.2088  0.5872 -0.3679
  176DOPC  H13A21456   4.910   1.647   5.988 -0.4885 -0.6968 -0.6707
  176DOPC  H13B21457   4.899   1.718   6.148  0.5955 -0.1970 -0.0850
  176DOPC  H13C21458   4.833   1.567   6.117  0.2796  0.6641 -0.1848
  176DOPC   C1421459   4.767   1.840   5.932  0.1267  0.1201  0.0771
  176DOPC  H14A21460   4.690   1.901   5.886 -0.3319 -1.0458 -0.7576
  176DOPC  H14B21461   4.843   1.899   5.980  1.6145 -2.4885  1.1216
  176DOPC  H14C21462   4.812   1.785   5.850  0.2118  0.4092 -0.0713
  176DOPC   C1521463   4.624   1.645   5.972  0.6908  0.2750 -0.2915
  176DOPC  H15A21464   4.552   1.703   5.916  0.0984 -2.0619 -2.1216
  176DOPC  H15B21465   4.576   1.596   6.056  2.2556 -1.7773 -0.4983
  176DOPC  H15C21466   4.680   1.578   5.908  0.6373  1.2339 -1.3617
  176DOPC   C1121467   4.625   1.720   6.280  0.3150  0.4873 -0.1322
  176DOPC  H11A21468   4.572   1.784   6.354 -0.3603  0.0468 -0.2272
  176DOPC  H11B21469   4.552   1.646   6.242  0.6179  0.4330 -0.6215
  176DOPC     P21470   4.804   1.701   6.464 -0.2438 -0.0589 -0.3608
  176DOPC   O1321471   4.857   1.838   6.438 -0.2554 -0.0495  0.1229
  176DOPC   O1421472   4.894   1.589   6.501 -0.0043 -0.1281 -0.3889
  176DOPC   O1221473   4.733   1.647   6.335 -0.0081 -0.0244  0.0472
  176DOPC   O1121474   4.702   1.705   6.576  0.3861  0.3360  0.2125
  176DOPC    C121475   4.593   1.617   6.587 -0.2221  0.6283  0.4147
  176DOPC    HA21476   4.614   1.519   6.541  2.4222  0.2502  2.1717
  176DOPC    HB21477   4.497   1.648   6.541 -0.0487 -0.5239 -0.7689
  176DOPC    C221478   4.559   1.604   6.735 -0.1127 -0.5310 -0.1837
  176DOPC    HS21479   4.487   1.521   6.750 -0.6025 -0.2332 -0.8369
  176DOPC   O2121480   4.507   1.725   6.789 -0.0665  0.5522  0.1849
  176DOPC   C2121481   4.424   1.719   6.894 -1.0852  0.3517  0.2700
  176DOPC   O2221482   4.360   1.621   6.923  0.2824  0.0623 -0.3982
  176DOPC   C2221483   4.416   1.854   6.954  0.4223  0.3685  0.5683
  176DOPC   H2R21484   4.384   1.931   6.881 -1.1685  0.8868  1.7744
  176DOPC   H2S21485   4.516   1.877   6.996  0.5001  0.0674  0.5533
  176DOPC    C321486   4.690   1.560   6.816 -0.5144 -0.2619 -0.2428
  176DOPC    HX21487   4.764   1.638   6.788 -1.7457  1.1357  0.2209
  176DOPC    HY21488   4.740   1.468   6.779  3.5068  0.8790  1.8543
  176DOPC   O3121489   4.680   1.565   6.959 -0.1598  0.0797  0.2375
  176DOPC   C3121490   4.634   1.447   7.008 -0.6986 -0.5361 -0.3083
  176DOPC   O3221491   4.595   1.354   6.941  0.3798 -0.6258 -0.6251
  176DOPC   C3221492   4.628   1.454   7.161  0.0226  0.0700 -0.0897
  176DOPC   H2X21493   4.672   1.554   7.182 -0.3866  0.1505  0.4108
  176DOPC   H2Y21494   4.518   1.454   7.176  0.0146 -1.9374  0.1539
  176DOPC   C2321495   4.302   1.867   7.063 -0.1182 -0.0318  0.3723
  176DOPC   H3R21496   4.327   1.818   7.160 -2.1641 -0.0989  0.9019
  176DOPC   H3S21497   4.223   1.806   7.015  0.4858 -0.2346 -0.3780
  176DOPC   C2421498   4.256   2.008   7.087  0.1186  0.1345 -0.3384
  176DOPC   H4R21499   4.233   2.050   6.987 -1.5991 -0.6856 -0.3286
  176DOPC   H4S21500   4.340   2.068   7.127  1.8620 -2.1739 -0.3623
  176DOPC   C2521501   4.138   2.033   7.182 -0.0411  0.0737  0.1859
  176DOPC   H5R21502   4.113   2.141   7.187 -0.6779  0.1865 -3.1146
  176DOPC   H5S21503   4.155   1.999   7.286 -2.2634  0.6298  0.7946
  176DOPC   C2621504   4.021   1.954   7.131 -0.4022  0.2059 -0.1574
  176DOPC   H6R21505   4.032   1.848   7.164  1.9941  0.6188  0.5633
  176DOPC   H6S21506   4.021   1.943   7.021  0.5406 -2.7694  0.0478
  176DOPC   C2721507   3.885   2.018   7.181 -0.3876 -0.2828  0.6976
  176DOPC   H7R21508   3.889   2.120   7.137  1.4417 -0.0475  1.3046
  176DOPC   H7S21509   3.891   2.025   7.292  0.4617 -2.4820  0.8596
  176DOPC   C2821510   3.761   1.944   7.129  0.8024  0.6560 -0.2542
  176DOPC   H8R21511   3.756   1.926   7.019  0.6960 -1.3856  0.0395
  176DOPC   H8S21512   3.668   2.000   7.154 -0.5404 -0.9468 -1.3904
  176DOPC   C2921513   3.746   1.804   7.180 -0.0595  0.9311 -0.5961
  176DOPC   H9R21514   3.818   1.734   7.135 -0.7841 -0.1262 -0.1509
  176DOPC  C21021515   3.639   1.754   7.249 -0.6524  0.3480 -0.3263
  176DOPC  H10R21516   3.629   1.645   7.265  1.8132  0.3904  2.1121
  176DOPC  C21121517   3.526   1.835   7.314  0.3078  0.0520  0.0066
  176DOPC  H11R21518   3.455   1.868   7.235 -0.7783  1.1408  1.3955
  176DOPC  H11S21519   3.575   1.919   7.367  0.2270 -0.4439  0.8780
  176DOPC  C21221520   3.447   1.753   7.420 -0.0337  0.2592 -0.2273
  176DOPC  H12R21521   3.521   1.721   7.497  0.4612  2.1509  0.1408
  176DOPC  H12S21522   3.396   1.668   7.371  1.7115 -0.6193 -0.5861
  176DOPC  C21321523   3.356   1.837   7.515 -0.2935 -0.4126  0.7045
  176DOPC  H13R21524   3.417   1.908   7.575 -0.5454  0.1382  0.3183
  176DOPC  H13S21525   3.305   1.768   7.586 -2.7709  0.8494  0.2939
  176DOPC  C21421526   3.246   1.920   7.448 -0.2872 -0.5273  0.5802
  176DOPC  H14R21527   3.211   1.867   7.357 -1.1082 -0.2494  0.7190
  176DOPC  H14S21528   3.279   2.021   7.416 -0.7761 -0.2775  0.8354
  176DOPC  C21521529   3.130   1.943   7.541  0.4963  0.0456 -1.1911
  176DOPC  H15R21530   3.069   1.850   7.537 -1.0365  1.0266 -1.9443
  176DOPC  H15S21531   3.063   2.025   7.506 -0.1357  1.0110  1.9619
  176DOPC  C21621532   3.163   1.988   7.682  0.3030 -0.1355 -0.1948
  176DOPC  H16R21533   3.219   1.917   7.746  0.7674 -1.1177 -1.6508
  176DOPC  H16S21534   3.068   1.998   7.739  0.3695  0.7874 -0.2293
  176DOPC  C21721535   3.231   2.127   7.695  0.2504 -0.0916 -0.9797
  176DOPC  H17R21536   3.316   2.129   7.623  0.2257  0.5342 -0.9968
  176DOPC  H17S21537   3.275   2.131   7.797 -2.9648  0.0357  0.5309
  176DOPC  C21821538   3.137   2.243   7.666 -0.0464 -0.1987  0.5268
  176DOPC  H18R21539   3.058   2.255   7.743  0.9945  0.1177  1.5631
  176DOPC  H18S21540   3.087   2.237   7.567 -4.1976  1.9036  2.2543
  176DOPC  H18T21541   3.192   2.339   7.667 -0.2482 -0.0526 -0.6830
  176DOPC   C3321542   4.679   1.327   7.231 -0.4221  0.7281  0.0364
  176DOPC   H3X21543   4.787   1.342   7.250 -0.0857 -1.6590  0.3769
  176DOPC   H3Y21544   4.677   1.241   7.160 -1.2528  0.2778  0.5900
  176DOPC   C3421545   4.606   1.290   7.355 -0.1675 -0.5222 -0.0788
  176DOPC   H4X21546   4.506   1.265   7.313  0.5060 -1.0706 -1.4056
  176DOPC   H4Y21547   4.603   1.373   7.429  2.6635  0.2856 -0.7501
  176DOPC   C3521548   4.668   1.165   7.416  0.1207  0.5137  0.5423
  176DOPC   H5X21549   4.775   1.183   7.441  0.6159 -1.0561 -0.3200
  176DOPC   H5Y21550   4.660   1.082   7.342 -2.2456  0.9710  0.1907
  176DOPC   C3621551   4.601   1.126   7.549 -0.0731 -0.6197  0.1355
  176DOPC   H6X21552   4.592   1.216   7.614 -0.1801 -0.1329 -0.5418
  176DOPC   H6Y21553   4.498   1.092   7.526 -0.8034  0.9056  0.9477
  176DOPC   C3721554   4.678   1.014   7.616 -0.1756 -0.1497  0.3165
  176DOPC   H7X21555   4.686   0.927   7.547  2.0453 -0.0808  0.4359
  176DOPC   H7Y21556   4.781   1.047   7.638 -0.5257 -0.3220  2.3507
  176DOPC   C3821557   4.625   0.983   7.764  0.0968 -0.0111  0.5208
  176DOPC   H8X21558   4.626   1.072   7.830 -1.8395  0.5629 -0.1441
  176DOPC   H8Y21559   4.703   0.915   7.804  0.0191 -0.1251  0.4819
  176DOPC   C3921560   4.493   0.920   7.747  0.2465 -0.8684 -0.6565
  176DOPC   H9X21561   4.488   0.830   7.684  1.8224 -0.4516 -1.4221
  176DOPC  C31021562   4.374   0.963   7.797  0.3655  0.6871 -0.3795
  176DOPC  H10X21563   4.287   0.908   7.759  0.9450  0.3623 -1.2596
  176DOPC  C31121564   4.352   1.085   7.886 -0.9314 -0.2322  0.3457
  176DOPC  H11X21565   4.443   1.113   7.943  0.9185  0.6982 -2.7559
  176DOPC  H11Y21566   4.279   1.048   7.960  0.2850 -1.3809  1.0260
  176DOPC  C31221567   4.304   1.205   7.804  0.1405 -1.0686 -0.1594
  176DOPC  H12X21568   4.223   1.176   7.734  0.5678 -0.9436 -0.7210
  176DOPC  H12Y21569   4.382   1.245   7.735  0.0552 -0.5791  0.0180
  176DOPC  C31321570   4.251   1.322   7.892 -0.8187  0.8996  0.1100
  176DOPC  H13X21571   4.170   1.288   7.959 -0.6814 -1.7965 -0.9582
  176DOPC  H13Y21572   4.341   1.338   7.955  0.7533 -0.9614 -1.4696
  176DOPC  C31421573   4.216   1.449   7.809  0.0277 -0.0987  0.1405
  176DOPC  H14X21574   4.135   1.431   7.735 -0.3885 -0.8207  0.7548
  176DOPC  H14Y21575   4.178   1.529   7.876 -0.9816 -1.0580  0.7546
  176DOPC  C31521576   4.332   1.508   7.725  0.0017 -0.3572  0.6425
  176DOPC  H15X21577   4.354   1.433   7.646 -0.1407  0.1233  0.1397
  176DOPC  H15Y21578   4.418   1.510   7.795  1.9383  2.1263 -1.5859
  176DOPC  C31621579   4.304   1.652   7.674 -0.1293  0.0558 -0.6322
  176DOPC  H16X21580   4.206   1.651   7.623  0.3530 -0.0474 -1.5665
  176DOPC  H16Y21581   4.296   1.713   7.767  2.8203 -0.7161  0.2254
  176DOPC  C31721582   4.414   1.711   7.586 -0.8423 -0.8290 -0.3817
  176DOPC  H17X21583   4.370   1.798   7.533  0.2168 -1.1167 -1.8130
  176DOPC  H17Y21584   4.495   1.743   7.656 -1.5444 -1.7065  0.8847
  176DOPC  C31821585   4.481   1.617   7.485 -0.0563  0.4697 -0.3953
  176DOPC  H18X21586   4.552   1.677   7.423  0.9259 -0.8563 -0.5969
  176DOPC  H18Y21587   4.542   1.544   7.542 -0.2646  1.3496  1.0129
  176DOPC  H18Z21588   4.411   1.559   7.422  1.0588  1.3231 -2.5256
  177DOPC     N21589   5.226   6.018   5.963 -0.9024  0.0004 -0.2103
  177DOPC   C1221590   5.278   6.121   6.059  0.4951  0.0431  0.4111
  177DOPC  H12A21591   5.381   6.148   6.040 -0.2505  2.4543 -0.5444
  177DOPC  H12B21592   5.262   6.082   6.158 -0.4204 -0.0846  0.2281
  177DOPC   C1321593   5.208   6.070   5.823  0.4866  0.9101 -0.5837
  177DOPC  H13A21594   5.144   6.157   5.824 -0.9256 -0.0981 -0.6836
  177DOPC  H13B21595   5.300   6.098   5.775  1.1669  0.4753  0.4174
  177DOPC  H13C21596   5.158   5.988   5.773  1.6631 -0.7720  0.8437
  177DOPC   C1421597   5.087   5.981   6.004 -0.0576  0.0712 -0.9137
  177DOPC  H14A21598   5.089   5.930   6.099  2.4140  1.9698  0.1551
  177DOPC  H14B21599   5.011   6.056   6.019  0.4955  0.3869  0.3882
  177DOPC  H14C21600   5.054   5.915   5.925 -1.7065 -0.3635  0.0974
  177DOPC   C1521601   5.324   5.907   5.965 -1.0600  0.1702  0.7743
  177DOPC  H15A21602   5.326   5.870   6.066  0.7439  0.7510  0.9924
  177DOPC  H15B21603   5.427   5.926   5.937 -0.2839 -0.4815  2.9820
  177DOPC  H15C21604   5.283   5.830   5.900 -1.3795  1.6121 -0.8303
  177DOPC   C1121605   5.203   6.261   6.071 -0.6134  0.4729  0.2797
  177DOPC  H11A21606   5.263   6.325   6.139 -1.5987 -0.4614  2.0962
  177DOPC  H11B21607   5.221   6.301   5.969  1.5538  0.2769  0.5495
  177DOPC     P21608   5.035   6.266   6.261  0.6096 -0.0122  0.1565
  177DOPC   O1321609   4.906   6.187   6.276 -0.4283 -0.2208 -0.1928
  177DOPC   O1421610   5.039   6.407   6.305 -0.5332 -0.3866 -0.8063
  177DOPC   O1221611   5.066   6.262   6.105  0.2809 -0.2511  0.3875
  177DOPC   O1121612   5.156   6.183   6.322 -0.2489 -0.8048  0.6582
  177DOPC    C121613   5.140   6.058   6.387  0.0978 -0.5489  0.3471
  177DOPC    HA21614   5.137   5.983   6.305  1.3752 -0.8094  0.5131
  177DOPC    HB21615   5.042   6.055   6.440 -0.8052  3.4187 -0.7671
  177DOPC    C221616   5.263   6.029   6.483  0.2720  0.8209  0.1192
  177DOPC    HS21617   5.240   5.962   6.569 -1.1570  2.4418  1.0647
  177DOPC   O2121618   5.319   6.152   6.533 -0.0953 -0.4722 -0.2452
  177DOPC   C2121619   5.240   6.213   6.617 -0.7258  0.1442  0.3818
  177DOPC   O2221620   5.134   6.168   6.656 -0.0695 -0.1869  0.0089
  177DOPC   C2221621   5.290   6.350   6.665 -0.5439  0.6135 -0.7352
  177DOPC   H2R21622   5.199   6.398   6.706 -1.3181 -2.0001  0.8468
  177DOPC   H2S21623   5.328   6.413   6.582 -0.3554 -2.9501 -3.6246
  177DOPC    C321624   5.363   5.959   6.393  0.5231  0.5262  0.1418
  177DOPC    HX21625   5.348   6.008   6.294 -0.0787  0.0836  0.0138
  177DOPC    HY21626   5.324   5.856   6.384  0.1525  0.6787 -0.0483
  177DOPC   O3121627   5.498   5.958   6.444 -0.0354 -0.5719  0.9547
  177DOPC   C3121628   5.583   6.035   6.377 -0.0626  0.3025  0.0414
  177DOPC   O3221629   5.555   6.108   6.281 -0.0756  0.0277 -0.3835
  177DOPC   C3221630   5.718   6.039   6.452 -0.1671  0.4269 -0.2218
  177DOPC   H2X21631   5.798   6.047   6.375  1.5862  0.3123  1.5000
  177DOPC   H2Y21632   5.715   6.139   6.501  0.2476  0.0093  0.6769
  177DOPC   C2321633   5.394   6.348   6.774  0.1350 -0.3827  0.0220
  177DOPC   H3R21634   5.359   6.317   6.875 -0.8820 -0.8659 -0.4703
  177DOPC   H3S21635   5.432   6.449   6.799  0.0387 -0.5839  1.0348
  177DOPC   C2421636   5.523   6.265   6.743 -0.2146  0.3744 -0.0470
  177DOPC   H4R21637   5.557   6.306   6.645 -0.8709  1.4416  0.1634
  177DOPC   H4S21638   5.507   6.156   6.725 -1.1832  0.6746 -1.1901
  177DOPC   C2521639   5.631   6.293   6.851 -0.1211 -0.5001 -0.3246
  177DOPC   H5R21640   5.656   6.401   6.854 -0.1095 -0.3002 -4.0543
  177DOPC   H5S21641   5.730   6.250   6.825 -0.9878 -2.5670 -0.4014
  177DOPC   C2621642   5.593   6.240   6.989  0.2792 -0.3690 -0.2056
  177DOPC   H6R21643   5.570   6.132   6.977  0.8420 -0.4163 -0.9466
  177DOPC   H6S21644   5.500   6.289   7.025 -1.2543 -2.9176 -0.4677
  177DOPC   C2721645   5.691   6.250   7.101 -0.5896  0.2097  0.5964
  177DOPC   H7R21646   5.785   6.204   7.064 -1.4970 -0.7337 -0.6628
  177DOPC   H7S21647   5.652   6.186   7.183 -1.4777 -1.0175 -0.7286
  177DOPC   C2821648   5.713   6.390   7.163  0.0847 -0.5275 -0.2382
  177DOPC   H8R21649   5.762   6.449   7.083  2.3054 -0.7632  0.8535
  177DOPC   H8S21650   5.791   6.373   7.241 -1.0773 -0.0937  1.0573
  177DOPC   C2921651   5.589   6.468   7.207  0.6192 -0.1924 -0.2273
  177DOPC   H9R21652   5.505   6.475   7.137 -1.1879  0.4575  1.8710
  177DOPC  C21021653   5.564   6.516   7.328 -0.5811 -0.1339  0.6479
  177DOPC  H10R21654   5.473   6.578   7.330 -0.1700  0.5220  2.9173
  177DOPC  C21121655   5.650   6.491   7.452  0.3927 -0.4914 -0.3730
  177DOPC  H11R21656   5.675   6.588   7.500  0.2800  0.2171 -1.6768
  177DOPC  H11S21657   5.751   6.456   7.422  0.9312 -0.8040  1.6460
  177DOPC  C21221658   5.589   6.398   7.552  0.2460 -0.3269 -0.3710
  177DOPC  H12R21659   5.658   6.388   7.638 -1.5999  0.3634  1.2623
  177DOPC  H12S21660   5.564   6.299   7.509  0.8977 -2.1631  3.1633
  177DOPC  C21321661   5.469   6.456   7.631 -0.2500 -0.1829 -0.2050
  177DOPC  H13R21662   5.384   6.457   7.560  0.1746 -4.9141 -1.1298
  177DOPC  H13S21663   5.496   6.561   7.656 -0.7732 -0.3498  1.1388
  177DOPC  C21421664   5.411   6.381   7.754  0.1484  0.2668  0.2599
  177DOPC  H14R21665   5.495   6.391   7.826 -0.4151  2.7085  0.6776
  177DOPC  H14S21666   5.384   6.277   7.726  1.9576 -0.4430  0.9889
  177DOPC  C21521667   5.276   6.438   7.815  0.4740  1.0025 -0.6673
  177DOPC  H15R21668   5.197   6.452   7.738 -1.0701  0.1272  0.6972
  177DOPC  H15S21669   5.295   6.539   7.856  2.2427  1.2197 -1.8850
  177DOPC  C21621670   5.223   6.343   7.918 -0.5721  0.2488 -0.2462
  177DOPC  H16R21671   5.317   6.327   7.974  1.1198  3.6204 -1.8313
  177DOPC  H16S21672   5.193   6.251   7.864 -1.8168  2.6538 -4.0252
  177DOPC  C21721673   5.099   6.382   7.997 -0.7071 -0.2058 -0.3527
  177DOPC  H17R21674   5.116   6.475   8.057 -2.5257 -1.2731  1.9770
  177DOPC  H17S21675   5.081   6.304   8.074  0.2831 -1.6937 -1.5679
  177DOPC  C21821676   4.968   6.397   7.909  0.6806 -0.1112  0.3029
  177DOPC  H18R21677   4.889   6.454   7.962 -0.3615 -1.7558  0.5965
  177DOPC  H18S21678   4.930   6.293   7.899  1.2661 -0.3648  0.6426
  177DOPC  H18T21679   4.985   6.447   7.811 -0.6162 -0.4273 -0.1023
  177DOPC   C3321680   5.736   5.934   6.556  0.0082  0.7959 -0.6473
  177DOPC   H3X21681   5.726   5.829   6.521  1.1882  0.0712  1.0285
  177DOPC   H3Y21682   5.665   5.953   6.638  1.7370 -0.5195  1.2639
  177DOPC   C3421683   5.876   5.925   6.626  0.1559  0.8179  0.2418
  177DOPC   H4X21684   5.896   6.024   6.674  0.7943  1.1457 -0.6820
  177DOPC   H4Y21685   5.960   5.910   6.555 -0.6127  0.8979 -0.7123
  177DOPC   C3521686   5.901   5.813   6.732  0.1366  0.1056 -0.4205
  177DOPC   H5X21687   6.003   5.809   6.777  0.4551 -0.1598 -1.1675
  177DOPC   H5Y21688   5.895   5.713   6.686  1.4914 -0.0539 -0.3069
  177DOPC   C3621689   5.807   5.811   6.855 -0.4234 -0.3393  0.0051
  177DOPC   H6X21690   5.831   5.896   6.923  2.1200 -0.2972 -0.8333
  177DOPC   H6Y21691   5.705   5.840   6.821  0.2599  1.1303 -0.9218
  177DOPC   C3721692   5.802   5.672   6.924  0.5908 -0.6367 -0.1284
  177DOPC   H7X21693   5.707   5.645   6.974  0.2119 -1.0093 -1.0270
  177DOPC   H7Y21694   5.814   5.595   6.845  1.4519  1.3593 -2.0610
  177DOPC   C3821695   5.923   5.651   7.024 -0.5203  0.1105 -0.3123
  177DOPC   H8X21696   5.934   5.747   7.079 -0.5069  0.0320 -0.1770
  177DOPC   H8Y21697   6.022   5.657   6.973  0.0218 -1.2437  0.5071
  177DOPC   C3921698   5.910   5.540   7.123 -0.3255 -0.5915 -0.7157
  177DOPC   H9X21699   5.819   5.532   7.185 -0.0248  1.6178  0.0967
  177DOPC  C31021700   6.005   5.449   7.148 -0.2013  0.1106  0.0091
  177DOPC  H10X21701   5.995   5.377   7.231  1.4900  0.0614  0.2071
  177DOPC  C31121702   6.136   5.432   7.082  0.1106 -0.2621 -0.1253
  177DOPC  H11X21703   6.129   5.458   6.974  0.3314 -2.4118 -0.6911
  177DOPC  H11Y21704   6.163   5.325   7.074  0.3502 -0.0969 -1.8528
  177DOPC  C31221705   6.255   5.505   7.155 -0.5186  0.3523 -0.0136
  177DOPC  H12X21706   6.264   5.492   7.265  0.2475 -2.8509 -0.3390
  177DOPC  H12Y21707   6.244   5.611   7.125 -0.6344  0.2511 -0.3363
  177DOPC  C31321708   6.389   5.456   7.100 -0.0163  0.0983  0.3832
  177DOPC  H13X21709   6.415   5.355   7.140  0.7077  0.3254  0.4863
  177DOPC  H13Y21710   6.385   5.458   6.989  0.9739 -2.6319  0.2191
  177DOPC  C31421711   6.497   5.551   7.144  0.8143 -0.2248 -0.6577
  177DOPC  H14X21712   6.466   5.655   7.122 -0.7779 -0.0671  1.8980
  177DOPC  H14Y21713   6.498   5.548   7.255  1.7501  0.1862 -0.6424
  177DOPC  C31521714   6.642   5.521   7.091 -0.3062 -0.2336  0.0588
  177DOPC  H15X21715   6.667   5.416   7.117  2.2366  0.3991  0.3919
  177DOPC  H15Y21716   6.721   5.589   7.130 -1.2220  0.5678  0.5742
  177DOPC  C31621717   6.654   5.534   6.935  0.2296 -0.4385 -0.0115
  177DOPC  H16X21718   6.596   5.463   6.873  0.1476 -2.2055  1.9883
  177DOPC  H16Y21719   6.620   5.636   6.905  2.8168  0.8364  1.0273
  177DOPC  C31721720   6.799   5.518   6.875 -0.4166  0.3628  0.0206
  177DOPC  H17X21721   6.810   5.563   6.774  4.5589 -0.3649 -0.0163
  177DOPC  H17Y21722   6.868   5.580   6.936 -0.6692  1.3627 -0.6904
  177DOPC  C31821723   6.839   5.371   6.878 -0.5487 -0.3442  0.3900
  177DOPC  H18X21724   6.855   5.342   6.985  3.3319  2.7616  0.8910
  177DOPC  H18Y21725   6.774   5.304   6.818 -0.9155  0.6863 -0.3971
  177DOPC  H18Z21726   6.940   5.368   6.833 -0.0036  1.0027  1.4539
  178DOPC     N21727   3.776   6.298   6.748 -0.1123  0.3304  0.7443
  178DOPC   C1221728   3.627   6.251   6.779  0.3643  0.8333  0.0910
  178DOPC  H12A21729   3.581   6.331   6.835 -0.2014  0.4145  0.2332
  178DOPC  H12B21730   3.630   6.161   6.839  0.0635 -0.7000 -2.0568
  178DOPC   C1321731   3.822   6.211   6.640  0.0392  0.2401  1.0299
  178DOPC  H13A21732   3.804   6.106   6.660 -1.8338  0.3694  0.1968
  178DOPC  H13B21733   3.756   6.228   6.556  0.7920  0.6493  0.5116
  178DOPC  H13C21734   3.925   6.217   6.608 -0.2504  0.2733  0.1014
  178DOPC   C1421735   3.863   6.279   6.871 -0.8664 -0.2104  0.1613
  178DOPC  H14A21736   3.964   6.313   6.860 -0.4974 -1.6018 -1.0949
  178DOPC  H14B21737   3.816   6.335   6.950 -3.7719 -0.1789 -1.4315
  178DOPC  H14C21738   3.860   6.177   6.908 -1.5983 -0.1044  0.4059
  178DOPC   C1521739   3.778   6.441   6.701 -0.0973 -0.0626 -0.3283
  178DOPC  H15A21740   3.883   6.465   6.687  0.4553 -1.6760  0.7816
  178DOPC  H15B21741   3.736   6.509   6.774  0.4402 -0.9121  0.8018
  178DOPC  H15C21742   3.723   6.435   6.608  0.7179 -1.2426 -0.7574
  178DOPC   C1121743   3.528   6.220   6.666  0.0309  0.5173 -0.4749
  178DOPC  H11A21744   3.582   6.137   6.617  0.0388  0.5373 -0.4996
  178DOPC  H11B21745   3.443   6.174   6.721 -0.2131  0.2703 -1.0595
  178DOPC     P21746   3.424   6.452   6.645  0.4852  0.4189  0.2401
  178DOPC   O1321747   3.373   6.532   6.529  0.4186 -0.2378 -0.2296
  178DOPC   O1421748   3.508   6.517   6.748 -0.3180  0.2935 -0.3629
  178DOPC   O1221749   3.498   6.329   6.580  0.2185 -0.0112  0.5077
  178DOPC   O1121750   3.299   6.398   6.721 -0.2613 -0.0966  0.0052
  178DOPC    C121751   3.230   6.495   6.803  0.7891  0.1007 -0.0665
  178DOPC    HA21752   3.120   6.487   6.785  0.3273  0.0086  2.4148
  178DOPC    HB21753   3.248   6.604   6.790 -3.0612  0.7900 -1.1091
  178DOPC    C221754   3.246   6.455   6.958  0.3502 -0.3866 -0.0130
  178DOPC    HS21755   3.169   6.517   7.010 -1.4620 -0.4502 -2.4035
  178DOPC   O2121756   3.375   6.475   7.006 -0.0837 -0.2138 -0.3721
  178DOPC   C2121757   3.410   6.608   7.010 -0.5371  0.0570 -0.4656
  178DOPC   O2221758   3.344   6.698   6.981 -0.2411 -0.0447  0.3123
  178DOPC   C2221759   3.545   6.618   7.081  0.0112  0.0678 -0.5936
  178DOPC   H2R21760   3.581   6.722   7.088 -0.0489 -0.0080  2.0712
  178DOPC   H2S21761   3.614   6.544   7.036 -2.8421 -2.8573 -0.5409
  178DOPC    C321762   3.193   6.314   6.980  0.4739  0.1222 -0.2274
  178DOPC    HX21763   3.259   6.232   6.944 -0.3133 -0.1602 -1.0652
  178DOPC    HY21764   3.103   6.300   6.916  1.3852  4.0413 -2.6823
  178DOPC   O3121765   3.150   6.290   7.116 -0.2428  0.2162 -0.0738
  178DOPC   C3121766   3.249   6.280   7.213 -0.1263  1.1134 -0.7490
  178DOPC   O3221767   3.368   6.265   7.193  0.5998  0.3951 -0.6856
  178DOPC   C3221768   3.184   6.289   7.350  0.1756  0.3941  0.0615
  178DOPC   H2X21769   3.106   6.211   7.366  2.0508 -1.4676  0.4358
  178DOPC   H2Y21770   3.258   6.265   7.429  1.0156 -0.7366 -1.0474
  178DOPC   C2321771   3.532   6.573   7.236 -0.3506  0.5739  0.4420
  178DOPC   H3R21772   3.635   6.578   7.276 -0.6944 -0.8061  1.5760
  178DOPC   H3S21773   3.494   6.470   7.255  0.9398 -0.0055 -0.0599
  178DOPC   C2421774   3.441   6.668   7.320 -0.2823  0.0377 -0.0804
  178DOPC   H4R21775   3.344   6.678   7.266  0.0505  0.4192 -0.6130
  178DOPC   H4S21776   3.495   6.765   7.315 -0.1408 -0.0861 -1.5727
  178DOPC   C2521777   3.432   6.627   7.467  0.9046  0.0377 -0.9275
  178DOPC   H5R21778   3.421   6.520   7.493 -0.1610  0.1984 -0.6602
  178DOPC   H5S21779   3.331   6.666   7.494  1.5642  0.1690  1.5804
  178DOPC   C2621780   3.535   6.705   7.552  0.0926  0.4680 -0.0789
  178DOPC   H6R21781   3.517   6.814   7.538  0.0794  0.5418  0.4841
  178DOPC   H6S21782   3.639   6.683   7.521 -0.3697 -1.3125 -0.4582
  178DOPC   C2721783   3.524   6.674   7.704  0.0372  0.6661 -0.6347
  178DOPC   H7R21784   3.537   6.564   7.715  1.8433  0.9170  0.0573
  178DOPC   H7S21785   3.418   6.697   7.729 -0.1465 -0.3550 -0.4518
  178DOPC   C2821786   3.629   6.749   7.792  0.4499 -0.0356  0.1053
  178DOPC   H8R21787   3.591   6.740   7.895 -1.0184  2.1156 -0.1970
  178DOPC   H8S21788   3.637   6.856   7.762  1.1089 -0.2410 -0.4887
  178DOPC   C2921789   3.766   6.686   7.772  0.2796  0.3390  0.5750
  178DOPC   H9R21790   3.803   6.698   7.669 -1.4645 -1.2452 -0.2948
  178DOPC  C21021791   3.833   6.618   7.861  0.2767 -0.2372 -0.6205
  178DOPC  H10R21792   3.934   6.581   7.839 -0.4665 -2.8464 -0.1097
  178DOPC  C21121793   3.800   6.587   8.000  0.4906 -0.7346  0.4603
  178DOPC  H11R21794   3.696   6.609   8.032  0.5258  1.0498 -0.5330
  178DOPC  H11S21795   3.862   6.659   8.057 -0.4195 -1.5784  2.6260
  178DOPC  C21221796   3.821   6.443   8.047 -0.1060 -0.2814 -0.2557
  178DOPC  H12R21797   3.929   6.423   8.035 -0.1200 -2.2074  1.9392
  178DOPC  H12S21798   3.772   6.365   7.984  1.6626 -1.0550 -0.7317
  178DOPC  C21321799   3.797   6.420   8.201  0.7159 -0.1893 -0.5225
  178DOPC  H13R21800   3.857   6.491   8.261 -2.5328  1.0161  1.5250
  178DOPC  H13S21801   3.825   6.317   8.232 -0.1145 -0.4088 -0.4906
  178DOPC  C21421802   3.650   6.448   8.258 -0.3762  0.4496 -0.0182
  178DOPC  H14R21803   3.581   6.383   8.200  0.0615  0.5151 -0.6232
  178DOPC  H14S21804   3.628   6.552   8.228  0.2905  1.0137  1.3840
  178DOPC  C21521805   3.660   6.419   8.406 -0.0567  0.2326  0.0210
  178DOPC  H15R21806   3.756   6.460   8.444 -0.4826  2.8986 -1.5026
  178DOPC  H15S21807   3.668   6.310   8.424 -0.0434 -0.0289 -1.4257
  178DOPC  C21621808   3.535   6.470   8.486  0.5327  0.2021 -0.8157
  178DOPC  H16R21809   3.548   6.423   8.586  2.9811  0.3908 -0.9941
  178DOPC  H16S21810   3.439   6.442   8.437  0.0370  1.1949 -0.4475
  178DOPC  C21721811   3.541   6.624   8.503 -0.3916  0.0521 -0.2147
  178DOPC  H17R21812   3.449   6.672   8.465 -0.7237 -2.0052 -2.2754
  178DOPC  H17S21813   3.613   6.664   8.429 -1.8729  1.9667 -0.6740
  178DOPC  C21821814   3.571   6.675   8.638  0.4386  0.1448 -0.0445
  178DOPC  H18R21815   3.659   6.634   8.691  1.1707 -1.0131 -2.0379
  178DOPC  H18S21816   3.485   6.655   8.705  1.1653 -0.4861  0.7021
  178DOPC  H18T21817   3.575   6.786   8.627 -1.4021  0.1487 -1.2090
  178DOPC   C3321818   3.126   6.439   7.368 -0.1314  0.3311 -0.1304
  178DOPC   H3X21819   3.049   6.447   7.288 -3.1076  1.3479  2.6370
  178DOPC   H3Y21820   3.199   6.518   7.339  0.6531 -0.3369 -0.0270
  178DOPC   C3421821   3.050   6.468   7.500 -0.5073 -0.7406 -0.8366
  178DOPC   H4X21822   3.114   6.425   7.580 -0.0157  0.0490 -0.7989
  178DOPC   H4Y21823   2.955   6.411   7.504 -0.0512 -1.5203 -0.9935
  178DOPC   C3521824   3.012   6.617   7.521 -0.9836  0.5413 -0.0282
  178DOPC   H5X21825   3.100   6.684   7.514 -0.3139 -0.0918  1.7908
  178DOPC   H5Y21826   2.951   6.618   7.614 -0.0352 -3.0794  0.7841
  178DOPC   C3621827   2.904   6.667   7.416 -1.1059 -0.2639 -0.4944
  178DOPC   H6X21828   2.880   6.580   7.352 -2.4397 -0.2925  0.0165
  178DOPC   H6Y21829   2.816   6.701   7.475 -1.0519  0.7116 -0.9512
  178DOPC   C3721830   2.967   6.782   7.340  0.4172 -0.4472  0.4413
  178DOPC   H7X21831   3.065   6.749   7.298  1.5337  2.6234  0.3717
  178DOPC   H7Y21832   2.894   6.807   7.260  0.0507 -2.3481  0.1192
  178DOPC   C3821833   2.987   6.911   7.423 -0.0776  0.2606  0.1826
  178DOPC   H8X21834   3.048   6.886   7.512  0.1203  0.9968  0.2587
  178DOPC   H8Y21835   2.889   6.952   7.454 -0.0197 -1.0884  2.2978
  178DOPC   C3921836   3.053   7.026   7.344  0.1877 -0.4346 -1.2510
  178DOPC   H9X21837   3.005   7.040   7.246 -0.1786 -2.3518 -1.3889
  178DOPC  C31021838   3.164   7.093   7.374  0.5458 -0.6172  0.3622
  178DOPC  H10X21839   3.195   7.174   7.307  0.2381  0.3811  1.3969
  178DOPC  C31121840   3.238   7.081   7.498 -0.8971 -0.4863 -0.3920
  178DOPC  H11X21841   3.306   6.995   7.484 -1.0289 -0.6838  0.1857
  178DOPC  H11Y21842   3.175   7.086   7.590  1.3120  3.0304  1.1544
  178DOPC  C31221843   3.328   7.208   7.523 -0.2453  0.3344 -0.0327
  178DOPC  H12X21844   3.275   7.304   7.509 -0.6844  0.0648 -0.2329
  178DOPC  H12Y21845   3.410   7.216   7.448  0.5565  0.9485  0.8840
  178DOPC  C31321846   3.404   7.206   7.654 -0.1758 -0.5657  0.4622
  178DOPC  H13X21847   3.332   7.190   7.737  1.7227  0.1284  2.3355
  178DOPC  H13Y21848   3.471   7.119   7.664  0.1506 -0.5998 -1.6970
  178DOPC  C31421849   3.474   7.343   7.671 -0.0984 -0.6058  0.7766
  178DOPC  H14X21850   3.565   7.342   7.607  0.3005  1.2182  1.2657
  178DOPC  H14Y21851   3.411   7.430   7.642  2.1164  1.3021  1.4181
  178DOPC  C31521852   3.518   7.351   7.815 -0.1294 -0.9253 -0.2147
  178DOPC  H15X21853   3.569   7.255   7.839 -0.7081 -1.1051  0.3356
  178DOPC  H15Y21854   3.435   7.374   7.885  1.0409  1.0358  0.5934
  178DOPC  C31621855   3.626   7.464   7.840  0.5099  0.2443  0.4220
  178DOPC  H16X21856   3.708   7.446   7.768  1.2444  1.7127  0.8552
  178DOPC  H16Y21857   3.581   7.560   7.808 -0.5916 -0.3688  0.0856
  178DOPC  C31721858   3.652   7.492   7.992  0.0165  0.2660 -0.0425
  178DOPC  H17X21859   3.695   7.397   8.032 -1.0169 -0.4682 -0.6322
  178DOPC  H17Y21860   3.716   7.583   8.001  0.2736  0.3701 -2.2924
  178DOPC  C31821861   3.534   7.522   8.093  0.5038 -0.0786 -0.5605
  178DOPC  H18X21862   3.445   7.561   8.040 -0.7028 -0.4369  1.1338
  178DOPC  H18Y21863   3.495   7.434   8.148 -1.2132  1.6234  1.0800
  178DOPC  H18Z21864   3.563   7.596   8.171  0.3359 -1.7857  1.1945
  179DOPC     N21865   7.679   6.490   6.671 -0.2458 -0.2187 -0.9211
  179DOPC   C1221866   7.805   6.465   6.600  0.3553 -0.0628  0.1902
  179DOPC  H12A21867   7.879   6.538   6.630  0.0398 -0.4678  2.0876
  179DOPC  H12B21868   7.794   6.485   6.494  0.2903  0.4736  0.2926
  179DOPC   C1321869   7.625   6.625   6.625  0.3049  0.6970 -0.1103
  179DOPC  H13A21870   7.599   6.628   6.521  0.7479 -1.7784 -0.3474
  179DOPC  H13B21871   7.536   6.654   6.679  0.1586  0.4963 -0.2440
  179DOPC  H13C21872   7.700   6.702   6.639  0.8758 -0.3918  5.2308
  179DOPC   C1421873   7.706   6.482   6.820 -0.2128 -0.2244 -0.2020
  179DOPC  H14A21874   7.750   6.389   6.852  1.2084  1.0891  1.9078
  179DOPC  H14B21875   7.777   6.558   6.849  0.7388 -0.9273 -0.6404
  179DOPC  H14C21876   7.621   6.501   6.884  0.6308 -1.9929  1.5225
  179DOPC   C1521877   7.588   6.376   6.623  0.1211 -0.2924 -0.4164
  179DOPC  H15A21878   7.640   6.310   6.556 -2.8920 -1.1012 -2.1571
  179DOPC  H15B21879   7.501   6.411   6.569 -0.0469  1.3779  0.8745
  179DOPC  H15C21880   7.546   6.324   6.708 -1.0987  2.0873  0.5484
  179DOPC   C1121881   7.871   6.323   6.611 -0.8724  0.1695 -0.1895
  179DOPC  H11A21882   7.975   6.341   6.576 -0.5940 -0.0566  0.4967
  179DOPC  H11B21883   7.868   6.288   6.717 -1.3837  2.2557  0.5253
  179DOPC     P21884   7.848   6.091   6.481 -0.0956  0.2997  0.0030
  179DOPC   O1321885   7.997   6.091   6.458  0.0324 -0.3157 -0.0073
  179DOPC   O1421886   7.768   6.028   6.376 -0.1931  0.3158  0.2158
  179DOPC   O1221887   7.805   6.228   6.526  0.3972  0.3918  0.8165
  179DOPC   O1121888   7.814   6.001   6.614  0.3955 -0.0828 -0.2366
  179DOPC    C121889   7.685   6.008   6.668  0.1197  0.1721 -0.0901
  179DOPC    HA21890   7.609   5.958   6.604 -0.9448  1.0957  0.4071
  179DOPC    HB21891   7.660   6.115   6.681 -0.1479  0.0180  0.7252
  179DOPC    C221892   7.672   5.954   6.820 -0.0023  0.1012 -0.3226
  179DOPC    HS21893   7.586   5.993   6.880 -2.1955 -2.8574 -1.2883
  179DOPC   O2121894   7.797   5.978   6.884 -0.4182 -0.2193 -0.3236
  179DOPC   C2121895   7.818   6.106   6.924  0.1411 -0.2085  0.6630
  179DOPC   O2221896   7.727   6.187   6.931 -0.1296 -0.0563 -0.2439
  179DOPC   C2221897   7.967   6.127   6.952 -0.0168 -0.1942  0.3564
  179DOPC   H2R21898   7.993   6.232   6.926  0.6701 -0.1062  1.3712
  179DOPC   H2S21899   8.019   6.047   6.895  1.6878 -0.3888  2.0825
  179DOPC    C321900   7.637   5.803   6.825 -0.1262 -0.2464  0.9643
  179DOPC    HX21901   7.656   5.774   6.930  0.7014 -0.2801  0.8073
  179DOPC    HY21902   7.715   5.759   6.760 -2.8483  0.9138 -3.5429
  179DOPC   O3121903   7.504   5.776   6.784 -0.4351 -0.0781 -0.4375
  179DOPC   C3121904   7.475   5.650   6.811  0.4198  0.1349  0.6805
  179DOPC   O3221905   7.559   5.557   6.822 -0.4223 -0.9646  0.3822
  179DOPC   C3221906   7.325   5.647   6.830  0.7642 -0.3900  0.1182
  179DOPC   H2X21907   7.278   5.733   6.778 -0.7803 -0.0969  1.9213
  179DOPC   H2Y21908   7.288   5.553   6.785 -1.6381  0.5212  0.0717
  179DOPC   C2321909   8.009   6.103   7.101  0.3746 -0.4396  0.4409
  179DOPC   H3R21910   8.120   6.109   7.110  0.5311 -1.5985 -0.4442
  179DOPC   H3S21911   7.979   6.005   7.143  1.4814 -0.8742  0.2481
  179DOPC   C2421912   7.968   6.218   7.188  0.3996 -1.0023 -0.0160
  179DOPC   H4R21913   7.857   6.224   7.189  0.2916 -0.6960  4.1662
  179DOPC   H4S21914   8.022   6.312   7.165 -0.1127 -0.2602  1.6608
  179DOPC   C2521915   8.005   6.187   7.330  0.7793 -0.6235  0.0561
  179DOPC   H5R21916   8.110   6.150   7.329  0.1991 -2.3726 -0.6314
  179DOPC   H5S21917   7.937   6.106   7.363  1.7456 -0.9642  1.2609
  179DOPC   C2621918   7.992   6.302   7.428  0.4071 -0.1842  0.4351
  179DOPC   H6R21919   7.885   6.319   7.453  0.3478  0.6042 -0.3031
  179DOPC   H6S21920   8.036   6.388   7.374 -0.0674  0.5946  1.2733
  179DOPC   C2721921   8.073   6.277   7.551  0.2358 -0.4495  0.2321
  179DOPC   H7R21922   8.176   6.262   7.513 -0.4889 -0.6160 -1.7698
  179DOPC   H7S21923   8.050   6.174   7.588  1.3401 -1.3094 -1.3333
  179DOPC   C2821924   8.058   6.389   7.658 -0.1459 -0.3143  0.1657
  179DOPC   H8R21925   7.952   6.393   7.690  0.9915  3.1546  4.4465
  179DOPC   H8S21926   8.072   6.488   7.609  0.3142 -0.6022 -0.3031
  179DOPC   C2921927   8.150   6.374   7.772  0.2573 -0.5510 -0.5664
  179DOPC   H9R21928   8.113   6.316   7.858  1.9398 -1.2521 -0.2608
  179DOPC  C21021929   8.281   6.415   7.779  0.0176  0.0950  0.3300
  179DOPC  H10R21930   8.342   6.398   7.869 -0.2110 -1.3845  0.2377
  179DOPC  C21121931   8.354   6.495   7.668  0.5984  0.0531 -0.1320
  179DOPC  H11R21932   8.310   6.474   7.569  0.3446  0.3090 -0.0740
  179DOPC  H11S21933   8.460   6.461   7.659  0.2605 -1.7226  1.7783
  179DOPC  C21221934   8.350   6.651   7.671 -0.1686  0.1303 -0.3542
  179DOPC  H12R21935   8.243   6.675   7.686 -0.4789 -0.5600 -1.3673
  179DOPC  H12S21936   8.382   6.692   7.573  2.7650 -0.5153  0.2212
  179DOPC  C21321937   8.434   6.714   7.776  0.4473  0.0669  0.6852
  179DOPC  H13R21938   8.402   6.659   7.867  1.0236  0.2065  0.9782
  179DOPC  H13S21939   8.427   6.823   7.796  2.1640  0.1689  0.8851
  179DOPC  C21421940   8.589   6.706   7.770 -0.2487 -0.6471 -0.4286
  179DOPC  H14R21941   8.609   6.617   7.707  0.6640  1.1351 -2.8208
  179DOPC  H14S21942   8.639   6.691   7.868 -1.1019 -1.4398 -0.1015
  179DOPC  C21521943   8.649   6.823   7.685 -0.2833 -0.4708 -0.5813
  179DOPC  H15R21944   8.650   6.909   7.756  0.4458 -0.9083 -0.0359
  179DOPC  H15S21945   8.587   6.850   7.597  0.9204 -0.8950 -1.5771
  179DOPC  C21621946   8.782   6.778   7.645  0.4393  0.6514 -0.5447
  179DOPC  H16R21947   8.764   6.703   7.565 -0.1841  2.1544 -1.8470
  179DOPC  H16S21948   8.820   6.733   7.739 -2.6054 -0.3023  0.3346
  179DOPC  C21721949   8.882   6.890   7.610 -0.1359  0.3044  0.7304
  179DOPC  H17R21950   8.981   6.850   7.578 -0.3468  1.8953 -2.2253
  179DOPC  H17S21951   8.901   6.940   7.707  0.9678 -0.5980  1.0060
  179DOPC  C21821952   8.833   6.979   7.500  0.3526 -0.5025  0.0175
  179DOPC  H18R21953   8.910   7.037   7.446  0.4308  0.7213  1.3894
  179DOPC  H18S21954   8.770   7.061   7.541 -0.6403 -0.8253 -0.8015
  179DOPC  H18T21955   8.770   6.919   7.431 -0.6788 -0.3956  0.8318
  179DOPC   C3321956   7.284   5.654   6.975 -0.0401  0.0999 -0.4646
  179DOPC   H3X21957   7.317   5.743   7.031  0.8851 -0.8667  0.5513
  179DOPC   H3Y21958   7.313   5.569   7.040  1.9100  0.8833 -0.2546
  179DOPC   C3421959   7.131   5.649   6.983 -0.1784  0.0417  0.1505
  179DOPC   H4X21960   7.087   5.570   6.917  0.0639  0.9866 -1.1747
  179DOPC   H4Y21961   7.079   5.742   6.952 -0.3890 -0.4878 -1.1342
  179DOPC   C3521962   7.083   5.609   7.130 -0.6982  0.0125 -0.2420
  179DOPC   H5X21963   7.108   5.501   7.139  0.5289  0.3094  0.0735
  179DOPC   H5Y21964   6.976   5.634   7.118 -0.6888 -0.8811 -2.6701
  179DOPC   C3621965   7.163   5.686   7.237 -0.0326  0.1796 -0.0153
  179DOPC   H6X21966   7.273   5.668   7.233  0.3928  2.4729 -0.0576
  179DOPC   H6Y21967   7.147   5.794   7.223  2.9529  0.8659  0.9467
  179DOPC   C3721968   7.105   5.651   7.380 -0.1346  0.0072  0.4639
  179DOPC   H7X21969   6.997   5.676   7.374 -0.6586 -2.2309 -0.3452
  179DOPC   H7Y21970   7.115   5.543   7.403 -0.3902 -0.6467 -2.2289
  179DOPC   C3821971   7.176   5.736   7.483 -0.3134 -0.1029  0.0157
  179DOPC   H8X21972   7.160   5.840   7.448 -0.8797 -0.7293 -1.6976
  179DOPC   H8Y21973   7.287   5.731   7.485 -0.0925  2.1413 -1.7726
  179DOPC   C3921974   7.122   5.723   7.621  0.2943 -0.5482 -0.0428
  179DOPC   H9X21975   7.017   5.754   7.630  0.4141  0.4416 -1.7017
  179DOPC  C31021976   7.200   5.682   7.723  0.6628 -0.1688  0.2589
  179DOPC  H10X21977   7.145   5.668   7.818 -0.1711  1.4226  0.0342
  179DOPC  C31121978   7.346   5.638   7.728 -0.0293 -0.8250 -0.4760
  179DOPC  H11X21979   7.401   5.695   7.649  0.1307  0.7735  0.7262
  179DOPC  H11Y21980   7.363   5.531   7.707 -0.2460 -1.6505  3.0345
  179DOPC  C31221981   7.424   5.665   7.861 -0.0824 -0.2160  0.1046
  179DOPC  H12X21982   7.370   5.597   7.931 -2.4097  1.8058  0.4153
  179DOPC  H12Y21983   7.413   5.765   7.909 -0.4599  0.6989 -1.7907
  179DOPC  C31321984   7.574   5.651   7.854  0.1833  0.1158  0.1935
  179DOPC  H13X21985   7.619   5.691   7.947 -0.3017  2.9199 -0.6681
  179DOPC  H13Y21986   7.610   5.547   7.838 -0.5577  0.1632 -2.2578
  179DOPC  C31421987   7.644   5.740   7.747 -0.6276  0.5500 -0.4347
  179DOPC  H14X21988   7.618   5.705   7.645 -0.7264  0.1953 -0.2899
  179DOPC  H14Y21989   7.593   5.838   7.762  0.3846  0.9606  0.3976
  179DOPC  C31521990   7.798   5.754   7.773  0.6659  0.0445 -1.0770
  179DOPC  H15X21991   7.799   5.793   7.877 -0.9403  0.8868 -1.3449
  179DOPC  H15Y21992   7.843   5.839   7.719  3.2354 -0.7965 -0.4160
  179DOPC  C31621993   7.887   5.639   7.756  0.1756 -0.2928 -0.7681
  179DOPC  H16X21994   7.985   5.678   7.791 -0.1250 -1.2971  1.4122
  179DOPC  H16Y21995   7.867   5.561   7.833 -1.4427  0.4134 -0.4375
  179DOPC  C31721996   7.901   5.587   7.611 -0.1253  0.2123  0.1198
  179DOPC  H17X21997   7.798   5.559   7.581 -1.2586  2.4357  1.6314
  179DOPC  H17Y21998   7.939   5.664   7.540  0.8856  0.3179  0.7595
  179DOPC  C31821999   7.994   5.473   7.599  1.1580 -0.4942 -0.0638
  179DOPC  H18X22000   7.992   5.445   7.491 -0.4977 -0.2888 -0.1165
  179DOPC  H18Y22001   8.094   5.512   7.627  0.6522  0.2447  0.7622
  179DOPC  H18Z22002   7.979   5.384   7.664 -1.4103 -0.5089 -0.5821
  180DOPC     N22003   8.123   3.649   6.217 -0.8289  0.1789  0.4106
  180DOPC   C1222004   8.056   3.624   6.349  0.4210  0.0299 -0.1723
  180DOPC  H12A22005   8.074   3.719   6.398  0.3940  1.4358 -2.6701
  180DOPC  H12B22006   8.103   3.548   6.408 -0.9655  0.8758  2.1401
  180DOPC   C1322007   8.062   3.768   6.143 -0.1420  0.4074  0.3470
  180DOPC  H13A22008   8.095   3.774   6.041 -1.0863 -0.0896 -0.0033
  180DOPC  H13B22009   7.954   3.757   6.143 -0.3082  1.7660  1.0065
  180DOPC  H13C22010   8.082   3.862   6.193 -1.3377  1.0654 -0.3488
  180DOPC   C1422011   8.122   3.524   6.139  0.5541  0.5127  0.5070
  180DOPC  H14A22012   8.188   3.448   6.177  1.5249  1.2183  0.2618
  180DOPC  H14B22013   8.020   3.494   6.159  0.5867 -0.0608 -0.1514
  180DOPC  H14C22014   8.142   3.541   6.034  2.7323 -0.6521  0.6831
  180DOPC   C1522015   8.273   3.683   6.237  0.0984 -0.0758 -0.0901
  180DOPC  H15A22016   8.290   3.776   6.290 -2.3720 -1.5644  3.7138
  180DOPC  H15B22017   8.323   3.684   6.142 -1.8085  2.2612 -1.1833
  180DOPC  H15C22018   8.333   3.610   6.290  1.3633  1.0300  0.0679
  180DOPC   C1122019   7.902   3.596   6.337 -0.3678  0.2650  0.1578
  180DOPC  H11A22020   7.862   3.613   6.439 -1.0108 -1.0690  0.1510
  180DOPC  H11B22021   7.852   3.673   6.273 -1.5039  0.5844  1.3839
  180DOPC     P22022   7.901   3.332   6.367  0.2176 -0.1430  0.1756
  180DOPC   O1322023   8.043   3.311   6.404  0.5028 -0.5468  0.7404
  180DOPC   O1422024   7.847   3.215   6.292  0.6343 -0.1131 -0.4156
  180DOPC   O1222025   7.882   3.469   6.282 -0.2912  0.0971  0.0179
  180DOPC   O1122026   7.819   3.362   6.498 -0.0392  0.0323  0.0208
  180DOPC    C122027   7.781   3.250   6.578 -1.0689  0.0034  0.0582
  180DOPC    HA22028   7.827   3.271   6.677  2.8277 -1.3387 -1.3094
  180DOPC    HB22029   7.831   3.154   6.558 -1.9103 -0.5399  0.4720
  180DOPC    C222030   7.628   3.223   6.592  0.6511  0.6474 -1.0290
  180DOPC    HS22031   7.603   3.191   6.488  0.5369 -0.5252 -0.6507
  180DOPC   O2122032   7.567   3.348   6.635  0.1880 -0.0892 -0.1139
  180DOPC   C2122033   7.437   3.346   6.615  0.3142 -0.3595  1.0422
  180DOPC   O2222034   7.380   3.251   6.566 -0.1687  0.5256  0.0925
  180DOPC   C2222035   7.369   3.476   6.670  0.2276  0.1589  0.0900
  180DOPC   H2R22036   7.267   3.449   6.704  0.2670  0.4469  0.4409
  180DOPC   H2S22037   7.363   3.542   6.580 -1.8001  2.0962  1.5324
  180DOPC    C322038   7.598   3.100   6.680 -0.6198 -0.0916 -1.0657
  180DOPC    HX22039   7.655   3.018   6.630  1.7726  1.6443 -1.3925
  180DOPC    HY22040   7.496   3.059   6.666 -0.2345 -1.5410 -0.0131
  180DOPC   O3122041   7.629   3.117   6.817  0.4542 -0.5414  0.4607
  180DOPC   C3122042   7.749   3.075   6.857 -0.2535  0.7802  0.2548
  180DOPC   O3222043   7.841   3.036   6.783  0.0702  0.0096 -0.3351
  180DOPC   C3222044   7.757   3.082   7.007  0.9590  0.3454 -0.0327
  180DOPC   H2X22045   7.866   3.073   7.028  1.1565  1.7924 -0.3292
  180DOPC   H2Y22046   7.739   3.188   7.036 -1.5285 -0.1195  0.3432
  180DOPC   C2322047   7.459   3.555   6.769  0.6346  0.4622 -0.0803
  180DOPC   H3R22048   7.557   3.582   6.725  0.9967 -0.4824  0.1131
  180DOPC   H3S22049   7.475   3.501   6.865 -0.0478  1.5090  0.6352
  180DOPC   C2422050   7.398   3.692   6.799  0.0919  0.4042  0.0233
  180DOPC   H4R22051   7.385   3.744   6.701 -0.3936 -0.6418 -0.4927
  180DOPC   H4S22052   7.465   3.760   6.855 -2.0799  1.5111  1.4251
  180DOPC   C2522053   7.268   3.690   6.889 -0.2100  0.2807 -0.4413
  180DOPC   H5R22054   7.283   3.627   6.979  1.4902 -0.2410 -1.0719
  180DOPC   H5S22055   7.184   3.632   6.845  0.0635 -0.8478  0.4931
  180DOPC   C2622056   7.232   3.826   6.943  0.7899  0.1637  0.3089
  180DOPC   H6R22057   7.122   3.823   6.960  0.4606  0.0821 -1.5684
  180DOPC   H6S22058   7.238   3.902   6.862 -1.1233 -0.7877 -0.8173
  180DOPC   C2722059   7.293   3.873   7.072 -0.6605 -0.1269  0.3371
  180DOPC   H7R22060   7.403   3.888   7.068 -0.5674 -0.3254  1.6656
  180DOPC   H7S22061   7.278   3.797   7.152 -1.4169 -0.2659  0.0677
  180DOPC   C2822062   7.237   4.002   7.128  0.9123 -0.0315 -0.8546
  180DOPC   H8R22063   7.251   4.015   7.237  0.8828  1.3771 -1.0118
  180DOPC   H8S22064   7.127   4.001   7.114  0.6853 -2.5216  0.5155
  180DOPC   C2922065   7.283   4.117   7.045  0.5135 -0.2920 -0.1356
  180DOPC   H9R22066   7.258   4.108   6.938 -1.0495  0.8079  0.1090
  180DOPC  C21022067   7.314   4.240   7.080  1.0261 -0.0412  0.6914
  180DOPC  H10R22068   7.338   4.299   6.991  0.5812 -0.2028  0.4642
  180DOPC  C21122069   7.338   4.289   7.219 -0.1630  0.2346  0.5095
  180DOPC  H11R22070   7.442   4.268   7.253  0.8666  2.8949 -0.6512
  180DOPC  H11S22071   7.273   4.245   7.298 -3.0844  1.5816 -0.9661
  180DOPC  C21222072   7.317   4.440   7.235 -0.3435 -0.1615  0.1341
  180DOPC  H12R22073   7.388   4.495   7.170  0.8725 -0.9406  0.7721
  180DOPC  H12S22074   7.342   4.461   7.341 -0.8304  0.3140  0.1576
  180DOPC  C21322075   7.180   4.502   7.218 -0.4796 -0.3734 -0.6377
  180DOPC  H13R22076   7.115   4.446   7.289  0.3932  0.3610  0.7788
  180DOPC  H13S22077   7.134   4.492   7.117  0.8633  2.2507 -1.6084
  180DOPC  C21422078   7.185   4.657   7.249 -0.0212 -0.7891  0.2376
  180DOPC  H14R22079   7.252   4.701   7.172 -0.7474  0.3185  0.2227
  180DOPC  H14S22080   7.234   4.671   7.348 -0.4454 -1.4688  0.5546
  180DOPC  C21522081   7.041   4.718   7.252  0.1682  1.4202 -0.3836
  180DOPC  H15R22082   6.996   4.664   7.338  1.0366 -1.6081 -1.7141
  180DOPC  H15S22083   6.987   4.695   7.157 -0.5121  0.7716  0.1482
  180DOPC  C21622084   7.034   4.868   7.264 -0.3275 -0.4443 -0.5871
  180DOPC  H16R22085   7.090   4.916   7.181 -0.1855 -0.5679 -0.5621
  180DOPC  H16S22086   7.095   4.882   7.356  1.1308 -0.3596 -1.5464
  180DOPC  C21722087   6.899   4.929   7.286 -0.4221  0.2302  0.1529
  180DOPC  H17R22088   6.837   4.860   7.348 -0.5072  0.7839  0.6914
  180DOPC  H17S22089   6.851   4.938   7.187  3.0237 -3.0770 -2.0694
  180DOPC  C21822090   6.915   5.055   7.368  0.2316  0.0471  0.7131
  180DOPC  H18R22091   6.815   5.086   7.405 -0.7726 -1.9546 -0.1822
  180DOPC  H18S22092   6.958   5.140   7.310  0.6324  0.5555  1.7192
  180DOPC  H18T22093   6.981   5.034   7.455 -0.0341 -0.8523  0.7052
  180DOPC   C3322094   7.667   2.998   7.096 -0.8348  0.3740  0.0295
  180DOPC   H3X22095   7.560   3.030   7.092 -1.4146 -0.9884  2.5183
  180DOPC   H3Y22096   7.705   3.036   7.193  0.5948  0.4874 -0.5620
  180DOPC   C3422097   7.692   2.847   7.110  0.4004 -0.0575 -0.1618
  180DOPC   H4X22098   7.644   2.809   7.203 -0.5909 -1.4685 -1.2058
  180DOPC   H4Y22099   7.801   2.838   7.131  0.7697  1.8478 -1.0718
  180DOPC   C3522100   7.638   2.761   6.999  0.0987  0.5985 -0.0226
  180DOPC   H5X22101   7.680   2.774   6.897  0.4773 -1.2184 -0.1212
  180DOPC   H5Y22102   7.529   2.782   6.988 -0.2405 -0.1982  1.6155
  180DOPC   C3622103   7.647   2.614   7.037  0.5027  1.2256  0.4226
  180DOPC   H6X22104   7.605   2.588   7.137  1.9339  2.1281  1.2977
  180DOPC   H6Y22105   7.601   2.548   6.961  3.1865  2.6144 -2.6687
  180DOPC   C3722106   7.795   2.569   7.045 -0.2180 -0.2104  0.5561
  180DOPC   H7X22107   7.839   2.587   6.945 -0.2716 -0.4809  0.4828
  180DOPC   H7Y22108   7.856   2.634   7.112  2.0669 -1.5156 -0.1433
  180DOPC   C3822109   7.823   2.423   7.066  0.1161  0.0617 -0.5538
  180DOPC   H8X22110   7.926   2.392   7.038  0.0068  0.9819 -2.0950
  180DOPC   H8Y22111   7.769   2.365   6.988 -1.7351  1.8808 -0.7122
  180DOPC   C3922112   7.778   2.368   7.205  0.2472  0.1745 -0.6794
  180DOPC   H9X22113   7.716   2.437   7.264 -1.7803 -2.0015 -0.1368
  180DOPC  C31022114   7.805   2.244   7.255  0.3165 -0.1239  0.0739
  180DOPC  H10X22115   7.759   2.206   7.347  1.0914 -1.4739 -0.0758
  180DOPC  C31122116   7.896   2.142   7.181  0.5537 -0.3508 -0.2723
  180DOPC  H11X22117   7.944   2.190   7.093  2.4084  0.7528  1.2580
  180DOPC  H11Y22118   7.847   2.050   7.144  2.9746 -1.3000 -1.3156
  180DOPC  C31222119   8.018   2.085   7.269  0.4637 -0.0958  0.1903
  180DOPC  H12X22120   8.060   2.009   7.200 -1.2470 -0.9384  0.0020
  180DOPC  H12Y22121   7.985   2.031   7.361  0.3493  2.0197  1.4556
  180DOPC  C31322122   8.126   2.184   7.312 -0.3284  0.1797  0.0630
  180DOPC  H13X22123   8.087   2.258   7.384 -2.4713 -0.7990 -0.0281
  180DOPC  H13Y22124   8.208   2.133   7.367  0.6833  2.3735  0.7119
  180DOPC  C31422125   8.195   2.266   7.199 -0.6396 -0.2042 -0.3309
  180DOPC  H14X22126   8.222   2.189   7.124  1.4817 -0.9511  1.1029
  180DOPC  H14Y22127   8.122   2.332   7.149 -0.1006 -0.1782 -1.0989
  180DOPC  C31522128   8.313   2.347   7.242  0.1358 -0.4613 -0.5102
  180DOPC  H15X22129   8.400   2.280   7.256  0.8008  0.6523  0.9087
  180DOPC  H15Y22130   8.308   2.402   7.338  1.9276 -0.9976 -0.0734
  180DOPC  C31622131   8.354   2.443   7.124 -0.2769 -0.3634  0.5533
  180DOPC  H16X22132   8.371   2.375   7.037  1.1950 -0.2175  0.6985
  180DOPC  H16Y22133   8.271   2.510   7.095 -1.1310 -1.6997 -0.1916
  180DOPC  C31722134   8.479   2.522   7.159  0.4775 -0.3594 -0.1386
  180DOPC  H17X22135   8.441   2.592   7.237 -0.6369  0.5683 -1.4683
  180DOPC  H17Y22136   8.552   2.445   7.191  0.0957 -0.5702  0.2368
  180DOPC  C31822137   8.547   2.606   7.049  0.5030 -0.2511 -0.1691
  180DOPC  H18X22138   8.652   2.629   7.077  0.9409 -3.0122  0.7917
  180DOPC  H18Y22139   8.548   2.551   6.953  3.8456  0.4998 -0.6688
  180DOPC  H18Z22140   8.486   2.699   7.047  1.1781  0.2593  1.3421
  181DOPC     N22141   2.756   2.886   6.442  0.6141  0.3317 -0.1860
  181DOPC   C1222142   2.682   3.023   6.427  0.4282  0.2615 -0.4440
  181DOPC  H12A22143   2.576   3.004   6.433  0.8635 -2.2696  0.7400
  181DOPC  H12B22144   2.706   3.072   6.334  0.0345 -0.4621 -0.9376
  181DOPC   C1322145   2.711   2.793   6.335 -0.3581 -0.3168 -0.7047
  181DOPC  H13A22146   2.621   2.742   6.366  0.3658  0.4205  3.1767
  181DOPC  H13B22147   2.701   2.850   6.244 -1.8244 -0.7255 -0.8327
  181DOPC  H13C22148   2.789   2.720   6.324  0.4768  0.4711 -0.2089
  181DOPC   C1422149   2.746   2.831   6.577 -0.8117  0.1966  0.2709
  181DOPC  H14A22150   2.784   2.890   6.659  2.2747 -0.6171 -0.4732
  181DOPC  H14B22151   2.644   2.802   6.600 -1.0927  0.9382 -0.0002
  181DOPC  H14C22152   2.811   2.745   6.581  1.3208  1.6321 -1.3187
  181DOPC   C1522153   2.897   2.912   6.430 -0.1643 -0.2648  0.2895
  181DOPC  H15A22154   2.931   2.990   6.498  0.0845 -2.1332  2.4225
  181DOPC  H15B22155   2.912   2.928   6.324 -0.2896 -0.8989  0.1723
  181DOPC  H15C22156   2.961   2.830   6.458  2.2094  1.2976 -0.2717
  181DOPC   C1122157   2.710   3.127   6.535  0.0965 -0.4703  0.4054
  181DOPC  H11A22158   2.625   3.195   6.511 -1.1925 -1.2924  2.3794
  181DOPC  H11B22159   2.696   3.095   6.640  0.4759 -0.6637  0.3995
  181DOPC     P22160   2.866   3.301   6.424  0.3309 -0.3941  0.2167
  181DOPC   O1322161   2.776   3.292   6.308 -0.3191 -0.2726  0.0054
  181DOPC   O1422162   3.009   3.316   6.390 -0.4992 -0.1416  0.0630
  181DOPC   O1222163   2.839   3.184   6.520  0.4516 -0.7863  0.2875
  181DOPC   O1122164   2.819   3.433   6.505 -0.7364  0.9327 -0.0297
  181DOPC    C122165   2.805   3.431   6.652  0.2376 -0.0770 -0.3679
  181DOPC    HA22166   2.895   3.476   6.698  1.0732 -0.9410 -1.1389
  181DOPC    HB22167   2.790   3.327   6.689  0.5028 -0.2457 -0.7382
  181DOPC    C222168   2.687   3.514   6.705  0.1581  0.5751 -0.5035
  181DOPC    HS22169   2.590   3.481   6.661 -1.1662  0.1154  2.4959
  181DOPC   O2122170   2.715   3.652   6.680  0.7016  0.0253  0.3067
  181DOPC   C2122171   2.635   3.717   6.600 -0.5512 -0.7863  0.1244
  181DOPC   O2222172   2.568   3.669   6.515  0.2567 -0.3177 -0.0390
  181DOPC   C2222173   2.639   3.870   6.624 -0.2236  0.2312 -0.8714
  181DOPC   H2R22174   2.612   3.904   6.522 -0.1977  1.3588 -0.5122
  181DOPC   H2S22175   2.743   3.904   6.646 -0.3741 -0.9891  2.1265
  181DOPC    C322176   2.684   3.492   6.859 -0.9198  0.0651  0.1440
  181DOPC    HX22177   2.588   3.532   6.897 -0.6793  0.6353  0.1674
  181DOPC    HY22178   2.769   3.539   6.914 -0.2058 -0.9370 -0.0663
  181DOPC   O3122179   2.690   3.354   6.897 -0.3186  0.2599  0.8130
  181DOPC   C3122180   2.566   3.287   6.901 -0.4581 -0.4653 -0.4396
  181DOPC   O3222181   2.458   3.342   6.879 -0.5072 -0.5513 -0.2693
  181DOPC   C3222182   2.587   3.157   6.962 -0.9367  0.1607 -0.6655
  181DOPC   H2X22183   2.570   3.071   6.894  1.2439 -1.2516  0.4621
  181DOPC   H2Y22184   2.692   3.147   6.998 -1.1615 -0.6843 -0.2366
  181DOPC   C2322185   2.535   3.928   6.723 -0.0053 -0.2253 -0.2468
  181DOPC   H3R22186   2.569   4.024   6.768  2.2169 -1.5305  1.0147
  181DOPC   H3S22187   2.524   3.858   6.808  0.5687 -2.0855 -1.6287
  181DOPC   C2422188   2.397   3.961   6.659 -0.1473  0.3312 -0.0178
  181DOPC   H4R22189   2.359   3.870   6.608  1.1848  0.3245 -1.0638
  181DOPC   H4S22190   2.405   4.034   6.576  0.9090 -0.7608 -0.9075
  181DOPC   C2522191   2.294   4.011   6.759 -0.3246  0.2551  0.1500
  181DOPC   H5R22192   2.196   4.016   6.707  1.0556 -0.7885 -2.8455
  181DOPC   H5S22193   2.321   4.117   6.777  0.1766  0.2535 -0.5163
  181DOPC   C2622194   2.289   3.939   6.889  0.6657  0.1056 -0.4103
  181DOPC   H6R22195   2.214   3.996   6.949  0.3572  0.7398 -1.3741
  181DOPC   H6S22196   2.390   3.931   6.934  1.4865 -2.1766 -2.4547
  181DOPC   C2722197   2.238   3.787   6.880 -0.5649 -0.1445  0.2355
  181DOPC   H7R22198   2.308   3.731   6.813  2.0604 -0.7058  3.2039
  181DOPC   H7S22199   2.137   3.789   6.835 -0.7228 -3.2868  0.2071
  181DOPC   C2822200   2.238   3.728   7.022  0.0781  0.6932 -0.6011
  181DOPC   H8R22201   2.151   3.763   7.081 -1.2773 -2.6873 -0.3227
  181DOPC   H8S22202   2.328   3.765   7.075  1.4113 -2.1633 -0.6505
  181DOPC   C2922203   2.229   3.580   7.027 -0.0233 -0.2982 -0.0719
  181DOPC   H9R22204   2.153   3.535   6.961  1.1263 -0.2463 -1.4869
  181DOPC  C21022205   2.314   3.502   7.096 -0.0291  1.0074  0.0313
  181DOPC  H10R22206   2.300   3.393   7.084  0.2580  1.0092 -0.3540
  181DOPC  C21122207   2.429   3.537   7.180 -0.5837 -0.4452  0.7523
  181DOPC  H11R22208   2.428   3.648   7.189  1.0904  0.1181 -3.4869
  181DOPC  H11S22209   2.517   3.497   7.125 -1.8066 -1.3613 -0.6289
  181DOPC  C21222210   2.429   3.475   7.318 -0.1950 -0.0233  0.2671
  181DOPC  H12R22211   2.473   3.372   7.323  2.7170  1.1160  0.3955
  181DOPC  H12S22212   2.327   3.469   7.361  0.1162 -0.6648  0.9518
  181DOPC  C21322213   2.508   3.559   7.422 -0.0753 -0.2759 -0.5060
  181DOPC  H13R22214   2.441   3.639   7.460  2.2130  1.8766 -0.7875
  181DOPC  H13S22215   2.600   3.606   7.382  0.9262 -0.2672  1.6442
  181DOPC  C21422216   2.553   3.483   7.545  0.0619 -0.5569 -0.3366
  181DOPC  H14R22217   2.466   3.424   7.581 -1.0927  0.7466 -0.8879
  181DOPC  H14S22218   2.571   3.563   7.619 -2.9951  0.0709 -0.1319
  181DOPC  C21522219   2.677   3.397   7.523 -0.6205 -0.6070  0.1123
  181DOPC  H15R22220   2.738   3.445   7.443 -1.5131 -1.6940 -1.2603
  181DOPC  H15S22221   2.641   3.297   7.492 -3.2729  0.5106 -0.7807
  181DOPC  C21622222   2.771   3.369   7.641  0.2254 -0.5019 -0.5118
  181DOPC  H16R22223   2.856   3.308   7.603  1.9400  2.4596 -1.8325
  181DOPC  H16S22224   2.719   3.310   7.719 -0.0792  1.1771  0.6221
  181DOPC  C21722225   2.839   3.496   7.693 -0.1206  0.5904  0.2216
  181DOPC  H17R22226   2.749   3.545   7.737  0.1731  4.2595 -2.7687
  181DOPC  H17S22227   2.877   3.562   7.612 -1.8987  0.6949 -0.5856
  181DOPC  C21822228   2.935   3.462   7.809  0.0932 -0.4449  0.4378
  181DOPC  H18R22229   2.986   3.553   7.848  0.0113 -1.0003  1.8961
  181DOPC  H18S22230   3.005   3.388   7.765 -1.1161 -1.2126 -0.2379
  181DOPC  H18T22231   2.881   3.414   7.893  1.3000 -0.7921  1.0389
  181DOPC   C3322232   2.481   3.118   7.069  0.3698 -0.1730  0.4091
  181DOPC   H3X22233   2.376   3.124   7.032  0.6972 -1.6222 -0.8548
  181DOPC   H3Y22234   2.490   3.193   7.150 -0.3314 -1.1395  1.4104
  181DOPC   C3422235   2.487   2.972   7.117 -0.1399  0.1984 -0.2697
  181DOPC   H4X22236   2.454   2.906   7.034 -2.2725 -0.9721  1.4043
  181DOPC   H4Y22237   2.415   2.951   7.200  0.0858  0.5353  0.0161
  181DOPC   C3522238   2.626   2.929   7.168  0.2323  0.7126  0.1110
  181DOPC   H5X22239   2.700   2.926   7.085  1.5932  0.2951  1.2875
  181DOPC   H5Y22240   2.621   2.829   7.215  3.3484  0.9294  1.1608
  181DOPC   C3622241   2.683   3.018   7.284 -0.2104  0.0940  0.4898
  181DOPC   H6X22242   2.691   3.125   7.253 -3.0019  0.4164  0.7100
  181DOPC   H6Y22243   2.612   3.019   7.368 -0.3613 -1.4437  0.4118
  181DOPC   C3722244   2.829   2.975   7.323  0.0918 -0.2222 -0.8506
  181DOPC   H7X22245   2.822   2.875   7.370  0.6249 -0.5510 -1.4465
  181DOPC   H7Y22246   2.899   2.951   7.240 -0.6828 -2.4169 -0.9222
  181DOPC   C3822247   2.884   3.065   7.434  0.2325 -1.0200 -0.0341
  181DOPC   H8X22248   2.820   3.063   7.524 -0.1643  1.9470 -0.1393
  181DOPC   H8Y22249   2.844   3.162   7.398 -0.9906 -1.9676 -1.3456
  181DOPC   C3922250   3.031   3.071   7.451  0.0400 -0.5776 -0.4430
  181DOPC   H9X22251   3.072   3.120   7.361 -1.2124  0.5580 -0.4299
  181DOPC  C31022252   3.091   3.058   7.572  0.3763  0.3290  0.4645
  181DOPC  H10X22253   3.200   3.077   7.569  0.4738 -0.0856  1.0771
  181DOPC  C31122254   3.022   3.010   7.699 -0.5540  0.5008  0.0366
  181DOPC  H11X22255   2.983   2.908   7.678  2.2588 -0.3794 -1.5167
  181DOPC  H11Y22256   2.927   3.060   7.725 -1.3197 -1.6155  1.6590
  181DOPC  C31222257   3.116   2.997   7.826 -0.8184 -0.5523 -0.7055
  181DOPC  H12X22258   3.205   2.933   7.812 -0.7041 -0.8128  1.0463
  181DOPC  H12Y22259   3.052   2.960   7.909  0.3116  1.3776  1.1248
  181DOPC  C31322260   3.150   3.141   7.879  0.2642 -0.7314 -0.0776
  181DOPC  H13X22261   3.217   3.197   7.811  0.0140 -2.0730 -1.5049
  181DOPC  H13Y22262   3.060   3.205   7.866 -1.6799 -3.0996  0.8843
  181DOPC  C31422263   3.194   3.142   8.023  0.6996  0.8914 -0.3972
  181DOPC  H14X22264   3.113   3.148   8.098  3.9668  1.0354  3.4329
  181DOPC  H14Y22265   3.250   3.050   8.053  1.4414  1.2975 -0.5161
  181DOPC  C31522266   3.269   3.264   8.059  0.1378  0.1625 -0.5600
  181DOPC  H15X22267   3.211   3.355   8.032 -1.0674 -0.9408 -1.8976
  181DOPC  H15Y22268   3.364   3.268   8.002 -0.5415  0.8469 -1.6600
  181DOPC  C31622269   3.288   3.256   8.209  0.5309  1.1821 -0.6363
  181DOPC  H16X22270   3.196   3.276   8.269  0.6890  0.4515 -0.1325
  181DOPC  H16Y22271   3.327   3.154   8.232 -2.0929 -0.0522 -1.1969
  181DOPC  C31722272   3.386   3.354   8.256  0.3094 -0.7343  0.7083
  181DOPC  H17X22273   3.483   3.324   8.212 -0.9726 -2.7236 -0.9319
  181DOPC  H17Y22274   3.368   3.457   8.219  0.8287 -1.2242 -0.9932
  181DOPC  C31822275   3.406   3.359   8.409  0.3861 -0.3369 -0.5267
  181DOPC  H18X22276   3.311   3.365   8.465 -0.1390 -3.7654 -0.8320
  181DOPC  H18Y22277   3.479   3.286   8.450  0.5864  0.8292  1.2820
  181DOPC  H18Z22278   3.462   3.454   8.426  0.0986 -0.6245  2.4169
  182DOPC     N22279   1.372   8.007   6.283  0.2661 -0.0017 -0.1719
  182DOPC   C1222280   1.493   7.969   6.367  0.3969 -0.2161  0.0670
  182DOPC  H12A22281   1.476   7.865   6.389  2.6671 -0.6821 -0.1237
  182DOPC  H12B22282   1.481   8.013   6.465 -0.1973  0.2136 -0.1918
  182DOPC   C1322283   1.396   8.151   6.246 -0.2711  0.0312 -0.7057
  182DOPC  H13A22284   1.483   8.170   6.186  0.0640 -2.3107 -1.0837
  182DOPC  H13B22285   1.311   8.187   6.190 -0.2252  1.1012 -0.1108
  182DOPC  H13C22286   1.402   8.209   6.336  0.1637  0.0792 -0.7654
  182DOPC   C1422287   1.244   7.997   6.367 -0.2293 -0.2667 -0.5198
  182DOPC  H14A22288   1.253   8.042   6.465 -0.0831  0.0762 -0.6884
  182DOPC  H14B22289   1.164   8.060   6.328  0.1071 -0.5288 -1.6677
  182DOPC  H14C22290   1.201   7.899   6.383  0.7994 -0.5799  0.3905
  182DOPC   C1522291   1.364   7.923   6.153  0.1385 -0.1897  0.3833
  182DOPC  H15A22292   1.272   7.931   6.097  0.8740 -0.7209 -0.9373
  182DOPC  H15B22293   1.379   7.820   6.179 -0.9927 -0.4416  0.1146
  182DOPC  H15C22294   1.447   7.954   6.092  1.5433  1.8820  3.1602
  182DOPC   C1122295   1.639   7.984   6.316 -0.2015 -0.3779 -0.3437
  182DOPC  H11A22296   1.696   7.938   6.400 -1.3889  1.2859  1.4453
  182DOPC  H11B22297   1.663   7.931   6.222 -2.8806 -0.6668 -0.9618
  182DOPC     P22298   1.811   8.182   6.342  0.6154 -0.1879 -0.2658
  182DOPC   O1322299   1.825   8.330   6.319  0.2445  1.1419  0.1619
  182DOPC   O1422300   1.922   8.106   6.290  0.3135  0.3361 -0.1970
  182DOPC   O1222301   1.674   8.123   6.291 -0.8360  0.2196 -0.0222
  182DOPC   O1122302   1.799   8.159   6.495 -0.2176  0.4473  0.6156
  182DOPC    C122303   1.717   8.253   6.564  0.1036  0.6040 -0.0407
  182DOPC    HA22304   1.643   8.190   6.619 -0.5435  0.0121 -1.5312
  182DOPC    HB22305   1.650   8.319   6.504 -1.3893 -0.3558  0.5109
  182DOPC    C222306   1.795   8.333   6.668 -0.0276  0.4675 -0.0985
  182DOPC    HS22307   1.857   8.406   6.611  2.9952 -0.6675  1.5093
  182DOPC   O2122308   1.880   8.246   6.748  0.1257 -0.5494  0.4571
  182DOPC   C2122309   1.984   8.311   6.796 -0.3730  1.0028 -0.1353
  182DOPC   O2222310   2.010   8.428   6.767  0.0808 -0.7131 -0.4848
  182DOPC   C2222311   2.047   8.222   6.906  0.1910 -0.3202 -0.4788
  182DOPC   H2R22312   2.101   8.146   6.846  0.0954 -2.3959  1.8616
  182DOPC   H2S22313   1.962   8.175   6.961  1.0019 -2.4850 -0.9902
  182DOPC    C322314   1.699   8.411   6.759 -0.3512  0.5751 -0.4111
  182DOPC    HX22315   1.627   8.471   6.698 -1.6818  0.0274  0.5742
  182DOPC    HY22316   1.755   8.485   6.821  0.1818 -1.1056  1.2097
  182DOPC   O3122317   1.619   8.321   6.835  0.4291  0.2191 -0.5906
  182DOPC   C3122318   1.657   8.293   6.959  0.2553  0.8143 -0.1595
  182DOPC   O3222319   1.743   8.352   7.017  0.2728 -0.3377  0.3424
  182DOPC   C3222320   1.591   8.166   7.013  0.2929 -0.1141  0.4428
  182DOPC   H2X22321   1.485   8.198   7.026 -0.0441 -1.4527  1.2582
  182DOPC   H2Y22322   1.602   8.082   6.941  0.9865  0.1490  0.2393
  182DOPC   C2322323   2.128   8.294   7.019  0.5600 -1.0154 -0.6353
  182DOPC   H3R22324   2.165   8.218   7.092  0.2521  0.4082  1.0641
  182DOPC   H3S22325   2.065   8.365   7.075  3.3997  1.1907 -0.0229
  182DOPC   C2422326   2.254   8.365   6.965 -0.4268  0.2916 -0.1835
  182DOPC   H4R22327   2.225   8.432   6.881  1.9504  0.6696 -0.7677
  182DOPC   H4S22328   2.337   8.301   6.930 -0.5764  0.4263 -0.8060
  182DOPC   C2522329   2.308   8.455   7.075 -0.4029  0.4513  0.2287
  182DOPC   H5R22330   2.345   8.391   7.158 -2.2135 -0.4519  0.3964
  182DOPC   H5S22331   2.231   8.517   7.127  0.9968  2.9504 -0.5322
  182DOPC   C2622332   2.420   8.556   7.033  0.0242 -0.5227  0.7696
  182DOPC   H6R22333   2.395   8.574   6.927  2.3530 -0.5683  0.1446
  182DOPC   H6S22334   2.520   8.507   7.037 -0.9651 -2.9437 -1.3959
  182DOPC   C2722335   2.420   8.687   7.119  0.2601  0.3683 -0.2708
  182DOPC   H7R22336   2.316   8.724   7.137  0.6633  2.0575 -1.2814
  182DOPC   H7S22337   2.465   8.773   7.065  0.1262 -0.2679 -1.4051
  182DOPC   C2822338   2.509   8.671   7.243  0.2636  0.7405 -0.2915
  182DOPC   H8R22339   2.611   8.656   7.203  0.1382 -2.6397  0.2933
  182DOPC   H8S22340   2.495   8.566   7.277  2.9394  0.6990  0.8457
  182DOPC   C2922341   2.488   8.768   7.356  0.1555  0.6002  0.0345
  182DOPC   H9R22342   2.384   8.770   7.392  0.2810  2.1932  0.3463
  182DOPC  C21022343   2.580   8.862   7.390 -0.4483 -0.1288 -0.2137
  182DOPC  H10R22344   2.554   8.918   7.481 -0.2228  1.0671 -0.8735
  182DOPC  C21122345   2.718   8.895   7.326 -0.6399 -0.6905 -0.6748
  182DOPC  H11R22346   2.718   8.849   7.225  1.1221  0.5064 -1.2802
  182DOPC  H11S22347   2.802   8.841   7.375 -2.0247 -1.3168  1.0967
  182DOPC  C21222348   2.755   9.047   7.318  0.3722 -0.4211 -0.0928
  182DOPC  H12R22349   2.783   9.078   7.421 -0.7105 -2.0800  0.7395
  182DOPC  H12S22350   2.664   9.096   7.276  1.0354  0.1070 -0.9420
  182DOPC  C21322351   2.874   9.087   7.226 -0.1842 -0.3899 -0.1571
  182DOPC  H13R22352   2.877   9.199   7.226  0.4717 -0.3891 -1.4664
  182DOPC  H13S22353   2.864   9.048   7.122  1.2030  1.3073 -0.9748
  182DOPC  C21422354   3.008   9.047   7.273  0.0482  0.3210 -0.4604
  182DOPC  H14R22355   3.023   8.940   7.300 -0.5552  0.5279  0.7319
  182DOPC  H14S22356   3.032   9.105   7.364  1.0502 -0.5173 -0.1739
  182DOPC  C21522357   3.116   9.077   7.165  0.2623 -0.1705 -0.0588
  182DOPC  H15R22358   3.099   9.180   7.127  1.0481  0.0664  0.2101
  182DOPC  H15S22359   3.105   9.001   7.085  1.7458 -0.2454 -0.2284
  182DOPC  C21622360   3.256   9.080   7.234 -0.8061  0.5496 -0.0793
  182DOPC  H16R22361   3.272   8.982   7.285  0.1068  2.0766  2.7608
  182DOPC  H16S22362   3.257   9.162   7.309 -0.9626  0.9818 -0.5437
  182DOPC  C21722363   3.377   9.092   7.139  0.4656 -0.2892  0.0240
  182DOPC  H17R22364   3.468   9.107   7.202  0.7247 -1.6843  0.0133
  182DOPC  H17S22365   3.368   9.188   7.084  1.9441  0.9925  1.8642
  182DOPC  C21822366   3.407   8.981   7.035  0.7743 -0.1066 -0.4849
  182DOPC  H18R22367   3.492   9.013   6.972  0.1419  1.2563 -0.6953
  182DOPC  H18S22368   3.315   8.965   6.975  1.8372 -2.8338 -1.5261
  182DOPC  H18T22369   3.429   8.887   7.090 -0.8301 -0.0606  0.3206
  182DOPC   C3322370   1.643   8.120   7.149 -0.3085 -0.4824  0.4727
  182DOPC   H3X22371   1.653   8.205   7.220 -0.2670  0.3494 -0.5054
  182DOPC   H3Y22372   1.750   8.091   7.135  0.4439  0.9383  2.7740
  182DOPC   C3422373   1.553   8.018   7.216  0.0396  0.9265 -0.3260
  182DOPC   H4X22374   1.535   7.946   7.133  0.4672 -1.5011  1.5931
  182DOPC   H4Y22375   1.461   8.052   7.268 -1.4811 -3.9234  0.6756
  182DOPC   C3522376   1.636   7.943   7.320 -0.0043  0.2476 -0.5242
  182DOPC   H5X22377   1.672   8.021   7.391 -0.7275  1.0706 -1.0462
  182DOPC   H5Y22378   1.726   7.914   7.262  1.9855  1.1723  1.9073
  182DOPC   C3622379   1.559   7.830   7.401  0.3560 -0.1966  0.3550
  182DOPC   H6X22380   1.478   7.877   7.461  0.2279  0.3620 -0.2493
  182DOPC   H6Y22381   1.523   7.764   7.320 -1.6068  1.4895 -0.2205
  182DOPC   C3722382   1.657   7.762   7.489  0.4877 -0.0713  0.5032
  182DOPC   H7X22383   1.738   7.716   7.428 -0.6862 -0.1992 -1.0181
  182DOPC   H7Y22384   1.698   7.830   7.566 -1.5325 -0.6106  2.1529
  182DOPC   C3822385   1.594   7.655   7.582 -0.0074  0.0665 -0.1651
  182DOPC   H8X22386   1.518   7.610   7.516  2.5814 -0.4240 -3.0485
  182DOPC   H8Y22387   1.551   7.710   7.668  0.4826 -1.3138  1.0104
  182DOPC   C3922388   1.696   7.548   7.616 -0.1734  0.7464 -0.5243
  182DOPC   H9X22389   1.768   7.513   7.540 -0.2038  0.6956 -0.5303
  182DOPC  C31022390   1.682   7.470   7.726  0.6576 -0.7796 -0.3508
  182DOPC  H10X22391   1.758   7.391   7.735  0.2709 -1.0806  0.3182
  182DOPC  C31122392   1.582   7.473   7.833  0.2700  0.0940  0.1650
  182DOPC  H11X22393   1.518   7.383   7.820  1.6226 -0.7616 -0.8334
  182DOPC  H11Y22394   1.520   7.564   7.818  0.2573 -0.0563 -0.7269
  182DOPC  C31222395   1.638   7.473   7.979 -0.2503  0.3528 -0.1676
  182DOPC  H12X22396   1.704   7.561   7.992  0.8393 -0.4014 -0.4798
  182DOPC  H12Y22397   1.691   7.376   7.971 -1.5807 -0.3357 -1.1475
  182DOPC  C31322398   1.531   7.469   8.085  1.0266 -0.8262  0.0127
  182DOPC  H13X22399   1.450   7.397   8.065  1.4597 -1.8160  1.6290
  182DOPC  H13Y22400   1.582   7.426   8.174  0.6640 -2.0563 -0.3548
  182DOPC  C31422401   1.477   7.610   8.144  0.1650  1.0107  0.1583
  182DOPC  H14X22402   1.563   7.680   8.153  0.5353  0.4173  1.5657
  182DOPC  H14Y22403   1.416   7.654   8.062  1.6242  3.2355  0.1930
  182DOPC  C31522404   1.382   7.589   8.263 -0.5448  0.4259  0.4098
  182DOPC  H15X22405   1.427   7.542   8.353 -0.3665 -0.0581  0.0742
  182DOPC  H15Y22406   1.308   7.518   8.222 -2.3111  2.1565  0.4630
  182DOPC  C31622407   1.308   7.716   8.309  0.1116 -0.0240  0.1174
  182DOPC  H16X22408   1.370   7.803   8.339  1.5920  0.0921 -2.8369
  182DOPC  H16Y22409   1.245   7.746   8.222  0.3045 -1.1688 -0.4415
  182DOPC  C31722410   1.212   7.688   8.429 -0.5726  0.5212 -0.4593
  182DOPC  H17X22411   1.273   7.635   8.506 -0.1534  0.1196 -1.0590
  182DOPC  H17Y22412   1.188   7.787   8.473 -0.0659  0.6600 -0.4838
  182DOPC  C31822413   1.083   7.612   8.403 -0.1704  0.4668  0.9891
  182DOPC  H18X22414   1.039   7.581   8.500 -0.1342 -0.7354  0.6316
  182DOPC  H18Y22415   1.000   7.670   8.358  0.4817  0.5460 -0.1500
  182DOPC  H18Z22416   1.099   7.522   8.339 -0.6194  0.1117  1.3720
  183DOPC     N22417   8.265   5.783   6.402 -0.4515 -0.6298 -0.5080
  183DOPC   C1222418   8.355   5.863   6.497  0.3988 -0.5063 -0.4153
  183DOPC  H12A22419   8.400   5.795   6.568 -1.7035 -0.4315  1.0937
  183DOPC  H12B22420   8.306   5.937   6.559  0.1618  0.2036 -1.4302
  183DOPC   C1322421   8.306   5.829   6.268  0.0572 -0.6817  0.6307
  183DOPC  H13A22422   8.251   5.793   6.182  1.5984  0.2700 -0.8047
  183DOPC  H13B22423   8.310   5.936   6.255 -0.9933 -0.6020  0.8713
  183DOPC  H13C22424   8.395   5.777   6.238 -0.4301 -3.3439  3.2715
  183DOPC   C1422425   8.119   5.809   6.423  0.3680 -0.2123 -0.6349
  183DOPC  H14A22426   8.104   5.916   6.419  2.7440  0.3002  1.3866
  183DOPC  H14B22427   8.061   5.757   6.349 -0.0136 -1.5861  0.5937
  183DOPC  H14C22428   8.089   5.783   6.524  2.2361 -1.4776 -0.3671
  183DOPC   C1522429   8.279   5.643   6.409 -0.9199 -0.0036  0.2784
  183DOPC  H15A22430   8.231   5.585   6.331 -1.0375  1.3019 -0.6590
  183DOPC  H15B22431   8.262   5.603   6.508 -1.6816  0.5512  0.3890
  183DOPC  H15C22432   8.378   5.606   6.389 -1.5739 -2.3220  0.9572
  183DOPC   C1122433   8.478   5.944   6.443 -1.0236 -0.1414  0.1915
  183DOPC  H11A22434   8.443   6.029   6.380 -1.2199 -0.8119 -0.6273
  183DOPC  H11B22435   8.537   5.982   6.529 -0.0802  0.4243 -0.6692
  183DOPC     P22436   8.647   5.745   6.413  0.3672 -0.2022 -0.0521
  183DOPC   O1322437   8.790   5.772   6.386  0.1598 -0.0773  0.6304
  183DOPC   O1422438   8.583   5.620   6.369 -0.3045  0.2681 -0.0101
  183DOPC   O1222439   8.563   5.867   6.363 -0.4898 -0.6702  0.5730
  183DOPC   O1122440   8.626   5.765   6.568  0.0057  0.6466 -0.1515
  183DOPC    C122441   8.707   5.679   6.656 -0.2478  0.1753  0.0082
  183DOPC    HA22442   8.812   5.714   6.649  0.4856 -1.8310  0.2674
  183DOPC    HB22443   8.697   5.571   6.631 -2.2140  0.2279  0.3880
  183DOPC    C222444   8.668   5.694   6.803  0.1555 -0.4789 -0.6552
  183DOPC    HS22445   8.570   5.642   6.810  0.3483 -0.8140 -0.4100
  183DOPC   O2122446   8.679   5.831   6.852  0.2320 -0.4651 -0.3025
  183DOPC   C2122447   8.569   5.893   6.841  0.0089  0.6539  0.2171
  183DOPC   O2222448   8.469   5.846   6.794  0.4974  0.1488 -0.7566
  183DOPC   C2222449   8.604   6.039   6.884 -0.2147 -0.1606  0.2801
  183DOPC   H2R22450   8.639   6.095   6.795 -1.0015 -0.4530 -0.2257
  183DOPC   H2S22451   8.691   6.039   6.954 -2.1786  1.6336  2.9534
  183DOPC    C322452   8.771   5.616   6.897 -1.1256  0.4182  0.3612
  183DOPC    HX22453   8.768   5.652   7.002 -0.0442 -0.5885  0.7733
  183DOPC    HY22454   8.869   5.647   6.854 -0.8076  0.2738  0.9623
  183DOPC   O3122455   8.745   5.469   6.898  0.0579 -0.5937  0.3052
  183DOPC   C3122456   8.852   5.405   6.948 -0.0380 -0.7693 -0.4993
  183DOPC   O3222457   8.952   5.464   6.987  0.2085  0.5871 -0.4065
  183DOPC   C3222458   8.831   5.261   6.957  0.3489  0.0084  0.2516
  183DOPC   H2X22459   8.782   5.245   7.055 -0.3786 -0.6606 -0.2073
  183DOPC   H2Y22460   8.775   5.227   6.867  1.6331 -0.3945 -0.4243
  183DOPC   C2322461   8.489   6.095   6.974 -0.2632 -0.3534  0.4991
  183DOPC   H3R22462   8.462   6.020   7.052 -2.8338  0.4856  0.4902
  183DOPC   H3S22463   8.400   6.118   6.912  1.6745  1.0974 -1.9680
  183DOPC   C2422464   8.526   6.224   7.045 -0.6115  0.4268  0.0315
  183DOPC   H4R22465   8.604   6.282   6.992  0.0186  0.3725  0.8815
  183DOPC   H4S22466   8.580   6.194   7.137 -0.5039 -0.0318 -0.1740
  183DOPC   C2522467   8.409   6.323   7.066 -0.5363 -0.3465 -0.4045
  183DOPC   H5R22468   8.331   6.271   7.124  1.1330 -1.6300  0.8047
  183DOPC   H5S22469   8.369   6.349   6.966  2.6299  1.9395 -1.2428
  183DOPC   C2622470   8.455   6.447   7.139 -0.5112 -0.1426 -0.1999
  183DOPC   H6R22471   8.517   6.510   7.072 -2.0352  0.6075 -0.9430
  183DOPC   H6S22472   8.522   6.420   7.223  0.3902 -1.5786 -1.3367
  183DOPC   C2722473   8.337   6.527   7.195  0.7105  0.2745 -0.2692
  183DOPC   H7R22474   8.367   6.573   7.292 -0.3826 -3.3780  2.0089
  183DOPC   H7S22475   8.266   6.450   7.233  1.5720 -0.3903  0.0184
  183DOPC   C2822476   8.260   6.626   7.100  0.2264  0.5912  0.1384
  183DOPC   H8R22477   8.178   6.675   7.157  0.5205  0.5358  0.6167
  183DOPC   H8S22478   8.219   6.564   7.018  2.6623 -0.7003 -0.1948
  183DOPC   C2922479   8.353   6.727   7.028  0.1977 -0.8443 -1.0206
  183DOPC   H9R22480   8.391   6.711   6.926 -3.5511  0.8629 -2.8914
  183DOPC  C21022481   8.398   6.842   7.091  0.0088  0.1940  0.5271
  183DOPC  H10R22482   8.475   6.898   7.036  0.4461 -0.8403  0.0670
  183DOPC  C21122483   8.364   6.876   7.236 -0.6777  0.2853 -0.8386
  183DOPC  H11R22484   8.309   6.804   7.300  0.6732  0.8156  1.0187
  183DOPC  H11S22485   8.300   6.967   7.233 -2.5866 -0.8732  1.3370
  183DOPC  C21222486   8.496   6.907   7.307 -0.0060 -0.5615 -0.1940
  183DOPC  H12R22487   8.566   6.821   7.313  0.3730 -0.3785 -1.5637
  183DOPC  H12S22488   8.481   6.944   7.411 -1.5257  2.9807 -1.4979
  183DOPC  C21322489   8.555   7.036   7.244  0.3730 -0.3420 -0.4698
  183DOPC  H13R22490   8.498   7.074   7.156  0.2783  0.6215 -0.0096
  183DOPC  H13S22491   8.653   7.000   7.208  1.4572  2.1673 -0.2128
  183DOPC  C21422492   8.560   7.159   7.337  0.0644 -0.3216  0.3858
  183DOPC  H14R22493   8.638   7.134   7.411  1.4043  1.9804 -0.1422
  183DOPC  H14S22494   8.466   7.179   7.393  0.2449 -0.7386  0.8393
  183DOPC  C21522495   8.614   7.269   7.251 -0.9138 -0.5562  0.3136
  183DOPC  H15R22496   8.531   7.305   7.187  0.5041  0.5912 -0.9806
  183DOPC  H15S22497   8.699   7.231   7.191  0.5298 -2.5221  3.3379
  183DOPC  C21622498   8.657   7.388   7.336 -0.0163  0.3647 -0.1900
  183DOPC  H16R22499   8.570   7.410   7.401  0.3399  1.2023  0.0140
  183DOPC  H16S22500   8.682   7.480   7.279  2.9582  0.1422  0.6232
  183DOPC  C21722501   8.783   7.364   7.420 -0.0474 -0.3809  0.2571
  183DOPC  H17R22502   8.866   7.338   7.351 -1.2620 -1.9981 -0.6584
  183DOPC  H17S22503   8.774   7.284   7.497  0.2107 -1.7383 -1.0747
  183DOPC  C21822504   8.811   7.503   7.481 -0.7250 -0.0558  0.1090
  183DOPC  H18R22505   8.915   7.500   7.521 -0.8918  1.9133  0.8134
  183DOPC  H18S22506   8.734   7.546   7.548  1.1737  1.5985  1.3470
  183DOPC  H18T22507   8.814   7.588   7.409  1.0154  1.3657  1.7118
  183DOPC   C3322508   8.964   5.180   6.954  0.1068  0.4172 -0.3947
  183DOPC   H3X22509   9.026   5.213   7.040 -1.9447 -0.7004  1.5907
  183DOPC   H3Y22510   9.023   5.203   6.862 -0.4341 -0.1539 -0.8928
  183DOPC   C3422511   8.961   5.021   6.954 -0.3315 -0.6712 -0.6691
  183DOPC   H4X22512   9.067   4.988   6.962  0.8848  3.0979  2.4242
  183DOPC   H4Y22513   8.910   4.994   6.859 -1.9908 -1.5587  0.4254
  183DOPC   C3522514   8.877   4.968   7.068 -0.7708  0.0655 -0.2877
  183DOPC   H5X22515   8.781   5.021   7.054  0.4266  2.0745 -1.3470
  183DOPC   H5Y22516   8.928   5.016   7.154 -0.0085  2.1709 -1.8191
  183DOPC   C3622517   8.862   4.822   7.077 -0.1372  0.3375  0.3905
  183DOPC   H6X22518   8.793   4.788   7.157 -0.6437  0.2121 -0.0907
  183DOPC   H6Y22519   8.815   4.773   6.989 -1.4997 -1.5498  2.0909
  183DOPC   C3722520   8.994   4.742   7.106  0.4941  0.6387 -0.0877
  183DOPC   H7X22521   9.076   4.776   7.040  2.5804 -0.9766  1.5391
  183DOPC   H7Y22522   9.023   4.771   7.210 -1.1095  3.4218 -0.3164
  183DOPC   C3822523   8.967   4.591   7.093 -0.5615 -0.5699 -0.1951
  183DOPC   H8X22524   8.967   4.568   6.984  0.1266 -1.3672 -0.0443
  183DOPC   H8Y22525   8.868   4.564   7.133  0.0448  0.3436  2.0533
  183DOPC   C3922526   9.065   4.504   7.164  0.3430  0.6150 -0.5752
  183DOPC   H9X22527   9.163   4.492   7.116  0.8400  1.8766  0.0785
  183DOPC  C31022528   9.052   4.448   7.285 -0.0972 -0.3093 -0.6439
  183DOPC  H10X22529   9.132   4.381   7.319  1.3106  1.2788 -0.7051
  183DOPC  C31122530   8.928   4.467   7.372  0.3912 -0.4812 -0.5688
  183DOPC  H11X22531   8.835   4.447   7.316 -0.6050  0.6966  0.6071
  183DOPC  H11Y22532   8.916   4.575   7.396  2.5680 -0.2481 -0.2811
  183DOPC  C31222533   8.927   4.398   7.510 -0.5914  0.2808  0.0313
  183DOPC  H12X22534   8.951   4.296   7.476 -1.7005  0.3442 -1.0048
  183DOPC  H12Y22535   8.831   4.395   7.566 -0.7452 -1.4543 -0.2784
  183DOPC  C31322536   9.039   4.453   7.602 -0.6534 -0.6455 -0.8574
  183DOPC  H13X22537   9.130   4.474   7.542 -1.4170 -1.4455 -2.3402
  183DOPC  H13Y22538   8.999   4.548   7.645  0.4656 -0.6475  0.2624
  183DOPC  C31422539   9.065   4.352   7.718 -0.0665  0.5633 -0.4200
  183DOPC  H14X22540   8.977   4.285   7.735  1.8561 -2.1134 -0.4590
  183DOPC  H14Y22541   9.150   4.291   7.683  0.8481  0.2782  2.1160
  183DOPC  C31522542   9.093   4.424   7.847  0.1543  0.5356  0.1507
  183DOPC  H15X22543   9.014   4.500   7.864 -0.8391 -0.3821 -0.2186
  183DOPC  H15Y22544   9.199   4.459   7.851  0.7775 -1.2732  0.7878
  183DOPC  C31622545   9.092   4.339   7.973 -0.9029  0.3826 -0.4845
  183DOPC  H16X22546   8.994   4.288   7.981 -1.2131  0.9472 -0.5875
  183DOPC  H16Y22547   9.168   4.258   7.970 -0.6418  0.6316 -0.7108
  183DOPC  C31722548   9.113   4.431   8.092 -0.1923  0.0751  0.3079
  183DOPC  H17X22549   9.180   4.515   8.064 -0.6956  0.7188  1.0000
  183DOPC  H17Y22550   9.014   4.472   8.120  0.9868  2.5260  1.1812
  183DOPC  C31822551   9.161   4.354   8.211 -0.0587  0.3894 -0.4535
  183DOPC  H18X22552   9.114   4.253   8.216 -0.8703  0.7545 -0.5659
  183DOPC  H18Y22553   9.269   4.345   8.189  0.0377  1.9624 -0.7476
  183DOPC  H18Z22554   9.157   4.405   8.309  1.0252  0.2239 -0.3098
  184DOPC     N22555   5.269   7.258   6.768 -0.5793  0.1412  0.1484
  184DOPC   C1222556   5.241   7.391   6.838 -0.2342 -1.0303 -0.5614
  184DOPC  H12A22557   5.317   7.457   6.799 -1.1515  0.0049 -0.6303
  184DOPC  H12B22558   5.260   7.380   6.944 -2.2241  1.2369  0.1059
  184DOPC   C1322559   5.273   7.289   6.624  0.1838 -0.4326 -0.5600
  184DOPC  H13A22560   5.289   7.198   6.569  1.2883 -1.8184  1.9015
  184DOPC  H13B22561   5.185   7.336   6.582 -0.4795 -3.0797 -2.3478
  184DOPC  H13C22562   5.344   7.363   6.589 -3.4690  3.0171 -1.3619
  184DOPC   C1422563   5.155   7.162   6.795 -0.1615 -0.2743  0.3721
  184DOPC  H14A22564   5.138   7.156   6.901  0.7158  1.6727  0.6719
  184DOPC  H14B22565   5.063   7.197   6.750  0.4384 -2.2846 -2.7755
  184DOPC  H14C22566   5.182   7.074   6.738 -2.8881  0.3007 -2.0820
  184DOPC   C1522567   5.394   7.184   6.798 -0.7591 -0.4435 -0.1995
  184DOPC  H15A22568   5.484   7.243   6.783  0.8169 -1.7008  3.2122
  184DOPC  H15B22569   5.407   7.094   6.740  1.1077 -0.0944 -0.3878
  184DOPC  H15C22570   5.399   7.157   6.902  2.3508  0.1575 -0.0680
  184DOPC   C1122571   5.107   7.472   6.809  0.7216 -0.1409  0.0521
  184DOPC  H11A22572   5.027   7.418   6.863  0.5832  1.0843  1.1260
  184DOPC  H11B22573   5.097   7.572   6.856 -1.3054  0.6802 -1.9637
  184DOPC     P22574   4.926   7.522   6.620 -0.0961 -0.1187  0.3696
  184DOPC   O1322575   4.844   7.398   6.643 -0.0667 -0.0100 -0.0655
  184DOPC   O1422576   4.935   7.567   6.477  0.2883  0.1426  0.2089
  184DOPC   O1222577   5.077   7.499   6.672 -0.0094 -0.0613  0.1233
  184DOPC   O1122578   4.880   7.644   6.701  0.0802  0.1224  0.0378
  184DOPC    C122579   4.948   7.772   6.703  0.1839  0.4450 -0.3545
  184DOPC    HA22580   4.888   7.844   6.642  0.1720 -0.0952 -0.9977
  184DOPC    HB22581   5.056   7.768   6.678  1.1436  1.8744  2.9846
  184DOPC    C222582   4.937   7.838   6.849 -0.1236  0.6373  0.0220
  184DOPC    HS22583   5.014   7.786   6.910  1.0364  1.3344 -0.7933
  184DOPC   O2122584   4.800   7.817   6.905  0.2173 -0.6178  0.2635
  184DOPC   C2122585   4.790   7.819   7.043 -0.3839 -0.1975 -0.2425
  184DOPC   O2222586   4.887   7.816   7.118  0.4730 -0.0035  0.1397
  184DOPC   C2222587   4.645   7.825   7.090 -0.3721 -0.3311 -0.1855
  184DOPC   H2R22588   4.573   7.787   7.014 -1.6042  1.5727 -0.0312
  184DOPC   H2S22589   4.602   7.925   7.109 -0.0674  0.0637 -1.4938
  184DOPC    C322590   4.978   7.982   6.839  0.3229 -0.5574  0.8568
  184DOPC    HX22591   4.887   8.032   6.801 -0.3698 -1.2391  1.5965
  184DOPC    HY22592   5.056   8.006   6.763  1.0970 -0.5647  1.6335
  184DOPC   O3122593   5.024   8.049   6.962  0.0833 -0.7023  1.1131
  184DOPC   C3122594   5.141   8.013   7.015 -0.6333 -0.2899 -0.0329
  184DOPC   O3222595   5.205   7.917   6.971  0.2692 -0.0457  0.1764
  184DOPC   C3222596   5.195   8.112   7.123  0.0012 -0.4896 -0.0297
  184DOPC   H2X22597   5.266   8.184   7.077  1.0471 -1.0618  0.6496
  184DOPC   H2Y22598   5.109   8.156   7.178  0.6339  0.3094  0.3419
  184DOPC   C2322599   4.632   7.717   7.205 -0.5822 -0.5093  0.1380
  184DOPC   H3R22600   4.692   7.755   7.290  0.5311  0.4615 -1.0369
  184DOPC   H3S22601   4.677   7.618   7.184  0.9658  0.1504  0.2370
  184DOPC   C2422602   4.484   7.704   7.248  0.6040 -0.2481  0.6575
  184DOPC   H4R22603   4.467   7.620   7.318 -1.6140  0.9586  1.6531
  184DOPC   H4S22604   4.418   7.680   7.161  0.0813  1.9940  0.3825
  184DOPC   C2522605   4.438   7.836   7.320  0.1967 -0.6662 -0.5737
  184DOPC   H5R22606   4.430   7.920   7.248  0.2434 -0.0538  0.1193
  184DOPC   H5S22607   4.521   7.856   7.392 -2.5593  0.6240  2.5551
  184DOPC   C2622608   4.308   7.813   7.406  0.2181 -0.5092 -0.1386
  184DOPC   H6R22609   4.288   7.895   7.478  1.2063  0.7552 -1.2405
  184DOPC   H6S22610   4.344   7.722   7.458  2.3393  0.2593 -0.1393
  184DOPC   C2722611   4.191   7.795   7.312  0.6735  0.0147 -0.3676
  184DOPC   H7R22612   4.195   7.707   7.244 -0.8357  1.1583 -2.0175
  184DOPC   H7S22613   4.174   7.884   7.248  0.2720 -0.0105 -0.3015
  184DOPC   C2822614   4.061   7.786   7.394 -0.1809 -0.0310 -0.0888
  184DOPC   H8R22615   3.974   7.763   7.328 -0.4869  1.4372 -0.2303
  184DOPC   H8S22616   4.035   7.878   7.450  1.9105 -0.1007  1.0971
  184DOPC   C2922617   4.068   7.679   7.497 -0.0859 -0.4120  0.2607
  184DOPC   H9R22618   4.158   7.616   7.505 -2.2399 -3.8667 -0.6248
  184DOPC  C21022619   3.970   7.642   7.583  0.0531 -0.0951  0.2195
  184DOPC  H10R22620   3.979   7.581   7.674 -0.9466  0.4065  0.6703
  184DOPC  C21122621   3.838   7.715   7.594 -0.4868 -0.3041  0.6817
  184DOPC  H11R22622   3.767   7.638   7.631 -2.1094  1.0007  0.4080
  184DOPC  H11S22623   3.792   7.749   7.499  1.1873  2.3775  0.7106
  184DOPC  C21222624   3.836   7.824   7.703  0.5896  0.4528 -0.6024
  184DOPC  H12R22625   3.750   7.892   7.686 -0.4655 -0.8676 -0.7782
  184DOPC  H12S22626   3.930   7.881   7.706  1.5178 -1.0576  0.9668
  184DOPC  C21322627   3.813   7.767   7.844 -0.3464  0.3836  0.0686
  184DOPC  H13R22628   3.892   7.696   7.878 -0.5827  0.3758  0.6142
  184DOPC  H13S22629   3.716   7.714   7.834  0.1274 -1.2041  2.7248
  184DOPC  C21422630   3.798   7.873   7.948  1.0952  0.4009 -0.1711
  184DOPC  H14R22631   3.763   7.826   8.043  0.9862  2.0058  0.6249
  184DOPC  H14S22632   3.724   7.949   7.916  0.9541 -0.1137 -1.1037
  184DOPC  C21522633   3.927   7.937   7.995 -0.7256 -0.0076  0.0965
  184DOPC  H15R22634   3.970   7.998   7.913 -0.3583  1.7226  1.5194
  184DOPC  H15S22635   3.992   7.850   8.018 -0.3005  0.9445  2.9974
  184DOPC  C21622636   3.916   8.009   8.128  0.0407 -0.0533  0.1129
  184DOPC  H16R22637   3.855   7.954   8.203  2.1202 -2.1002  0.4474
  184DOPC  H16S22638   3.854   8.097   8.104 -1.7227 -1.1634  0.3919
  184DOPC  C21722639   4.048   8.043   8.199  0.1774 -0.1608 -0.2862
  184DOPC  H17R22640   4.079   7.944   8.239 -3.2071 -1.6783 -1.0723
  184DOPC  H17S22641   4.036   8.104   8.291  1.2914 -2.0824  1.2161
  184DOPC  C21822642   4.152   8.113   8.115 -0.4340  0.6283  0.8880
  184DOPC  H18R22643   4.252   8.117   8.165  0.5210  0.8762 -0.9508
  184DOPC  H18S22644   4.129   8.221   8.100  2.9428  1.4175  0.3735
  184DOPC  H18T22645   4.172   8.047   8.028  0.0237 -2.6608  3.3156
  184DOPC   C3322646   5.276   8.038   7.236  0.0066  0.1654 -0.0373
  184DOPC   H3X22647   5.231   7.943   7.271  0.8176  0.6562  2.5136
  184DOPC   H3Y22648   5.283   8.101   7.327 -2.2699 -0.9916  1.0265
  184DOPC   C3422649   5.426   8.029   7.191  0.4646 -0.0349  0.1358
  184DOPC   H4X22650   5.477   8.127   7.174  3.6628 -1.7657 -1.0316
  184DOPC   H4Y22651   5.422   7.987   7.089  0.0696  1.6149 -0.5712
  184DOPC   C3522652   5.502   7.941   7.288 -0.5512 -0.7239  0.4789
  184DOPC   H5X22653   5.460   7.838   7.279 -1.4252 -0.3632  0.2867
  184DOPC   H5Y22654   5.488   7.967   7.395 -2.3282  1.0961 -0.1170
  184DOPC   C3622655   5.656   7.941   7.256  0.6173 -0.4106  0.0114
  184DOPC   H6X22656   5.694   8.045   7.271 -0.5041 -0.2716  2.1855
  184DOPC   H6Y22657   5.714   7.894   7.338  0.6241 -0.5951 -0.0988
  184DOPC   C3722658   5.689   7.869   7.122 -0.0546 -0.0613  0.7241
  184DOPC   H7X22659   5.644   7.768   7.113 -0.6065  0.3708 -2.4162
  184DOPC   H7Y22660   5.631   7.922   7.044  0.5395 -1.5439 -0.8012
  184DOPC   C3822661   5.826   7.898   7.065 -0.4497  0.1846  0.3953
  184DOPC   H8X22662   5.849   8.004   7.086  1.0378 -0.3138  1.4470
  184DOPC   H8Y22663   5.824   7.891   6.954 -2.9128  1.4030  0.2917
  184DOPC   C3922664   5.937   7.813   7.120 -0.0424  0.0141  0.0969
  184DOPC   H9X22665   5.928   7.704   7.109 -0.2047  0.1497 -1.2068
  184DOPC  C31022666   6.031   7.849   7.208 -0.2726 -0.2485 -0.2153
  184DOPC  H10X22667   6.107   7.774   7.231 -0.6833 -0.7525 -0.4792
  184DOPC  C31122668   6.045   7.991   7.268 -0.4417 -0.1724 -0.0644
  184DOPC  H11X22669   6.095   7.985   7.367 -0.7975  2.2636  0.3336
  184DOPC  H11Y22670   5.945   8.040   7.281 -1.4668 -2.7025  2.4966
  184DOPC  C31222671   6.125   8.093   7.177 -0.2527  0.4718 -0.1145
  184DOPC  H12X22672   6.121   8.201   7.206  0.1270 -0.1319  2.4239
  184DOPC  H12Y22673   6.079   8.081   7.077 -1.3645  0.7671  0.3429
  184DOPC  C31322674   6.276   8.054   7.180  0.2037 -0.1703 -0.0577
  184DOPC  H13X22675   6.291   7.952   7.222  0.8477 -0.7912 -1.6923
  184DOPC  H13Y22676   6.325   8.041   7.081  0.4427  1.6990 -0.2248
  184DOPC  C31422677   6.370   8.151   7.272 -0.1402  0.0100  0.4571
  184DOPC  H14X22678   6.437   8.196   7.195 -0.8555 -0.6749 -0.6009
  184DOPC  H14Y22679   6.314   8.225   7.333  0.4269  1.3849 -0.6406
  184DOPC  C31522680   6.461   8.082   7.376 -0.2305  0.6017 -0.1975
  184DOPC  H15X22681   6.548   8.145   7.408  0.0040  0.0919  0.1815
  184DOPC  H15Y22682   6.502   7.988   7.332 -1.3413  0.6914 -1.4980
  184DOPC  C31622683   6.386   8.050   7.502  0.2761  0.2789 -0.0144
  184DOPC  H16X22684   6.279   8.037   7.474  0.4596 -2.6201  0.3049
  184DOPC  H16Y22685   6.410   7.957   7.558  0.8451 -0.6639 -1.7239
  184DOPC  C31722686   6.377   8.169   7.600 -0.4335 -0.2075  0.2143
  184DOPC  H17X22687   6.370   8.263   7.541  1.7555  0.4852  0.9514
  184DOPC  H17Y22688   6.285   8.155   7.660 -0.4541 -0.7786  0.0520
  184DOPC  C31822689   6.502   8.179   7.693 -0.3058  0.7995  0.8841
  184DOPC  H18X22690   6.538   8.078   7.722  1.0968  0.2208 -2.4243
  184DOPC  H18Y22691   6.576   8.204   7.615 -2.1778  0.8063 -0.9920
  184DOPC  H18Z22692   6.505   8.250   7.778  2.7812  0.5923  1.0367
  185DOPC     N22693   0.600   4.962   6.239 -0.4115 -0.2473 -0.0086
  185DOPC   C1222694   0.513   5.091   6.225  1.0584 -1.2481 -0.4474
  185DOPC  H12A22695   0.485   5.101   6.121 -0.3965 -1.8579 -0.1440
  185DOPC  H12B22696   0.559   5.184   6.254 -1.5320  0.4547 -1.3830
  185DOPC   C1322697   0.530   4.846   6.188 -0.3296  0.5528 -0.3691
  185DOPC  H13A22698   0.435   4.842   6.240 -0.4322 -0.3751 -0.6162
  185DOPC  H13B22699   0.515   4.841   6.081  0.2901 -1.3512 -0.4179
  185DOPC  H13C22700   0.582   4.756   6.218  0.3634  1.3191  0.8322
  185DOPC   C1422701   0.639   4.957   6.382 -0.3182  0.0108  0.1422
  185DOPC  H14A22702   0.682   5.056   6.394 -1.3378  0.5671 -0.5848
  185DOPC  H14B22703   0.558   4.952   6.453  1.8661  0.4979  2.8125
  185DOPC  H14C22704   0.716   4.883   6.391  2.1189  1.9653 -2.4757
  185DOPC   C1522705   0.729   4.974   6.160  0.4283 -0.2519 -0.8561
  185DOPC  H15A22706   0.717   4.962   6.053  0.8627  2.4992 -1.2855
  185DOPC  H15B22707   0.806   4.911   6.203  1.8757  2.1371  0.2066
  185DOPC  H15C22708   0.783   5.067   6.170  1.8803 -1.2254  1.0975
  185DOPC   C1122709   0.375   5.092   6.296 -0.0514  0.5053 -0.4239
  185DOPC  H11A22710   0.307   5.166   6.249  1.0933  0.9893 -1.3577
  185DOPC  H11B22711   0.339   4.987   6.288  1.6809  0.0395 -3.9941
  185DOPC     P22712   0.267   5.126   6.536 -0.3359  0.1501 -0.4748
  185DOPC   O1322713   0.214   4.987   6.557  0.2142  0.2380  0.1030
  185DOPC   O1422714   0.161   5.226   6.494 -0.3255 -0.4157  0.4612
  185DOPC   O1222715   0.394   5.125   6.440  0.2746 -0.5481  0.0941
  185DOPC   O1122716   0.329   5.181   6.665  0.1739 -0.5403 -0.5092
  185DOPC    C122717   0.467   5.218   6.675 -0.2384  0.0266 -0.9034
  185DOPC    HA22718   0.459   5.327   6.693 -0.1537  0.2061 -1.9018
  185DOPC    HB22719   0.532   5.202   6.587  0.9177 -0.2005 -0.0370
  185DOPC    C222720   0.541   5.154   6.794 -1.0263 -0.6202  0.0238
  185DOPC    HS22721   0.549   5.047   6.764  1.3506 -0.7887  0.9860
  185DOPC   O2122722   0.465   5.183   6.911 -0.0265 -0.4626 -0.0524
  185DOPC   C2122723   0.360   5.094   6.927  0.4090  0.0699 -0.2898
  185DOPC   O2222724   0.347   4.990   6.875 -0.3777  0.9158  0.0707
  185DOPC   C2222725   0.287   5.141   7.050 -0.3002  0.8293 -0.3392
  185DOPC   H2R22726   0.354   5.188   7.125  0.1289 -0.5400  0.1818
  185DOPC   H2S22727   0.255   5.048   7.103  0.0083  0.2896 -1.0718
  185DOPC    C322728   0.685   5.212   6.815 -0.0955 -0.4700  0.2227
  185DOPC    HX22729   0.675   5.312   6.861 -1.6001 -0.7691  0.6225
  185DOPC    HY22730   0.735   5.244   6.721  0.2479 -1.0653  0.1938
  185DOPC   O3122731   0.765   5.133   6.902  0.0906  0.6352 -0.1257
  185DOPC   C3122732   0.852   5.049   6.850  0.0435 -1.1777  1.3001
  185DOPC   O3222733   0.875   5.042   6.733 -0.1856  0.2045 -0.1619
  185DOPC   C3222734   0.898   4.954   6.972 -0.5974  0.3025 -0.2164
  185DOPC   H2X22735   1.009   4.963   6.974 -0.6641  1.0187  1.5547
  185DOPC   H2Y22736   0.852   4.993   7.065 -2.1904 -1.9674  0.0293
  185DOPC   C2322737   0.167   5.229   7.015 -0.3437 -0.5311  0.3818
  185DOPC   H3R22738   0.108   5.177   6.937  1.3067  0.4163 -1.5729
  185DOPC   H3S22739   0.189   5.329   6.973 -1.5649 -0.3165  0.2066
  185DOPC   C2422740   0.088   5.250   7.151  0.7605  0.3722  0.0241
  185DOPC   H4R22741   0.002   5.319   7.143 -1.1769 -1.9142 -0.1598
  185DOPC   H4S22742   0.163   5.285   7.225  1.6024  0.7055 -0.9575
  185DOPC   C2522743   0.030   5.120   7.223  0.3429 -0.1646  0.2063
  185DOPC   H5R22744   0.109   5.073   7.285  0.1944 -2.4955 -1.2302
  185DOPC   H5S22745   0.008   5.052   7.138  2.7773 -0.9152  0.0933
  185DOPC   C2622746  -0.076   5.151   7.328  0.2805  0.8264 -0.2149
  185DOPC   H6R22747  -0.132   5.061   7.361  0.3606  0.3446 -1.3733
  185DOPC   H6S22748  -0.150   5.218   7.279 -0.9511  0.1429  0.6551
  185DOPC   C2722749  -0.011   5.230   7.446  0.1497  0.2036 -0.3819
  185DOPC   H7R22750   0.050   5.309   7.398  0.1325 -0.3493 -1.3389
  185DOPC   H7S22751   0.055   5.153   7.490 -0.1852 -0.8513 -1.6559
  185DOPC   C2822752  -0.117   5.287   7.545 -0.3586 -0.7461 -0.8243
  185DOPC   H8R22753  -0.203   5.335   7.492  0.6493  0.6497 -1.2549
  185DOPC   H8S22754  -0.070   5.370   7.600 -1.7908 -0.9741  0.8206
  185DOPC   C2922755  -0.168   5.180   7.632  0.2883 -0.0359  0.9062
  185DOPC   H9R22756  -0.180   5.080   7.587 -1.1113 -0.7063  2.6356
  185DOPC  C21022757  -0.209   5.191   7.759  0.5782 -0.4804  0.1012
  185DOPC  H10R22758  -0.223   5.090   7.801  1.3442 -0.8070 -0.3863
  185DOPC  C21122759  -0.199   5.319   7.843  0.0702  0.9133  0.1204
  185DOPC  H11R22760  -0.097   5.363   7.841  1.5494 -2.1186  1.5606
  185DOPC  H11S22761  -0.202   5.293   7.952  2.6006 -0.5715 -0.0701
  185DOPC  C21222762  -0.297   5.433   7.818  0.0771 -0.2291 -0.2686
  185DOPC  H12R22763  -0.283   5.473   7.716 -1.3437 -0.2815 -0.5069
  185DOPC  H12S22764  -0.267   5.513   7.889 -0.3532 -1.5359  1.4550
  185DOPC  C21322765  -0.452   5.401   7.849 -0.3753  0.0053  0.1993
  185DOPC  H13R22766  -0.451   5.370   7.956 -0.6345 -0.5831  0.0330
  185DOPC  H13S22767  -0.490   5.308   7.802 -1.2751  0.5917 -0.2564
  185DOPC  C21422768  -0.542   5.517   7.831  0.2167 -0.1131  0.2121
  185DOPC  H14R22769  -0.549   5.559   7.728 -1.6775  0.3662  0.4832
  185DOPC  H14S22770  -0.499   5.601   7.889 -0.5997  0.8669 -0.5393
  185DOPC  C21522771  -0.684   5.486   7.880 -0.2269 -0.8578  0.7088
  185DOPC  H15R22772  -0.686   5.452   7.986 -1.3732 -1.1352  0.6108
  185DOPC  H15S22773  -0.719   5.409   7.808 -2.6328 -0.7452  1.6777
  185DOPC  C21622774  -0.766   5.625   7.876  0.3403 -0.1790 -0.2083
  185DOPC  H16R22775  -0.721   5.692   7.800  3.9356 -0.6847  1.3057
  185DOPC  H16S22776  -0.763   5.674   7.975  0.1504 -0.5659 -0.0094
  185DOPC  C21722777  -0.909   5.608   7.827  0.1723  0.9883 -0.9807
  185DOPC  H17R22778  -0.922   5.583   7.719  0.9732 -0.0759 -0.8413
  185DOPC  H17S22779  -0.951   5.711   7.830  0.4368  1.0781  0.7498
  185DOPC  C21822780  -0.992   5.525   7.928 -0.1042 -0.2791  1.2315
  185DOPC  H18R22781  -0.985   5.566   8.031  0.7428 -0.1342  1.1237
  185DOPC  H18S22782  -0.938   5.428   7.924  0.1620 -0.0900 -1.4517
  185DOPC  H18T22783  -1.095   5.520   7.887  0.0134 -1.8282  1.0713
  185DOPC   C3322784   0.854   4.802   6.963  0.0759 -0.1898  0.1802
  185DOPC   H3X22785   0.899   4.750   7.050 -0.9346 -1.2273  0.1035
  185DOPC   H3Y22786   0.882   4.759   6.864 -2.2453 -0.3327 -0.4901
  185DOPC   C3422787   0.700   4.776   6.976 -0.3716 -0.2986 -0.4495
  185DOPC   H4X22788   0.639   4.797   6.886 -0.7205  0.8347  0.0322
  185DOPC   H4Y22789   0.665   4.847   7.054  0.1438  0.0942 -0.5751
  185DOPC   C3522790   0.662   4.636   7.020 -0.4380 -0.0065  0.4819
  185DOPC   H5X22791   0.704   4.561   6.950  0.9820 -0.6124  1.9351
  185DOPC   H5Y22792   0.551   4.643   7.027 -0.7456 -2.5481 -0.7210
  185DOPC   C3622793   0.709   4.588   7.165  0.1367 -0.3541  0.6394
  185DOPC   H6X22794   0.654   4.493   7.183  0.5855 -0.4965  1.2805
  185DOPC   H6Y22795   0.818   4.569   7.159  0.2933  0.9128 -2.2802
  185DOPC   C3722796   0.674   4.673   7.290 -0.1293  0.1580 -0.4574
  185DOPC   H7X22797   0.746   4.757   7.293 -2.2668  2.0378  2.5792
  185DOPC   H7Y22798   0.586   4.735   7.264  1.1393  1.9025 -0.7964
  185DOPC   C3822799   0.663   4.603   7.432  0.1071  0.7274  0.1651
  185DOPC   H8X22800   0.743   4.530   7.453  0.1614  1.0529  1.1535
  185DOPC   H8Y22801   0.567   4.550   7.449 -0.5182  2.3171  2.0224
  185DOPC   C3922802   0.673   4.711   7.538  0.0641 -0.3977  0.0518
  185DOPC   H9X22803   0.610   4.800   7.523  0.7401  0.1159  0.1789
  185DOPC  C31022804   0.739   4.695   7.655 -0.2821  0.2648 -0.1450
  185DOPC  H10X22805   0.749   4.781   7.724 -1.3260  0.7395 -0.5698
  185DOPC  C31122806   0.820   4.581   7.705  0.2452  0.2229 -0.4840
  185DOPC  H11X22807   0.917   4.577   7.651 -0.7482  0.3010 -2.3667
  185DOPC  H11Y22808   0.770   4.487   7.673  0.1981 -1.1180  3.1356
  185DOPC  C31222809   0.853   4.585   7.861  0.6207  0.0204 -0.3047
  185DOPC  H12X22810   0.903   4.678   7.894  1.3686 -0.3532 -0.3593
  185DOPC  H12Y22811   0.917   4.500   7.893 -1.4523 -1.6972 -0.4375
  185DOPC  C31322812   0.724   4.570   7.942 -1.0521  0.2891 -0.2655
  185DOPC  H13X22813   0.653   4.647   7.907 -1.3871 -0.1121 -0.4820
  185DOPC  H13Y22814   0.680   4.469   7.926 -0.1035  0.0741 -1.8213
  185DOPC  C31422815   0.737   4.577   8.095  0.1999 -0.1110  0.0485
  185DOPC  H14X22816   0.750   4.682   8.127 -1.3374 -0.5712  2.4454
  185DOPC  H14Y22817   0.634   4.574   8.135 -0.7340  2.7391 -1.8326
  185DOPC  C31522818   0.829   4.480   8.165 -0.2809  0.2826 -0.0972
  185DOPC  H15X22819   0.936   4.490   8.135  0.1586  0.5536  1.4691
  185DOPC  H15Y22820   0.793   4.377   8.144 -3.2002  0.2802  3.7722
  185DOPC  C31622821   0.808   4.480   8.319  1.5770  0.1667 -0.5391
  185DOPC  H16X22822   0.859   4.562   8.374 -0.9504  1.2088  0.3728
  185DOPC  H16Y22823   0.705   4.511   8.346  1.1848 -0.1236 -1.6361
  185DOPC  C31722824   0.846   4.343   8.385 -0.0402  0.8476  0.0630
  185DOPC  H17X22825   0.773   4.263   8.360  0.3777  0.7463 -0.8459
  185DOPC  H17Y22826   0.944   4.315   8.341  1.0753  1.8082  1.7911
  185DOPC  C31822827   0.864   4.365   8.531  0.4178  0.9224 -0.6159
  185DOPC  H18X22828   0.772   4.360   8.592  0.2505  1.6745 -0.7933
  185DOPC  H18Y22829   0.935   4.294   8.578  0.8050  2.8265  1.9302
  185DOPC  H18Z22830   0.899   4.469   8.552  0.8110  0.8878 -1.0791
  186DOPC     N22831   0.737   2.704   6.543  0.5088 -0.1664  0.1406
  186DOPC   C1222832   0.660   2.838   6.571  0.1472  1.2480 -0.3325
  186DOPC  H12A22833   0.556   2.808   6.568  0.8094 -1.7955  1.9625
  186DOPC  H12B22834   0.654   2.902   6.484 -2.1316  4.4640  1.9751
  186DOPC   C1322835   0.713   2.597   6.635 -0.2280  0.2352  0.1187
  186DOPC  H13A22836   0.767   2.506   6.613 -1.9072 -0.5077 -1.1449
  186DOPC  H13B22837   0.751   2.623   6.733  4.9588 -2.2117 -0.9077
  186DOPC  H13C22838   0.610   2.566   6.643  0.2388 -2.2468 -2.0360
  186DOPC   C1422839   0.883   2.725   6.536  0.8880 -0.0183 -0.2211
  186DOPC  H14A22840   0.914   2.758   6.635 -1.9093  0.0629  0.7118
  186DOPC  H14B22841   0.928   2.632   6.507  0.4334 -0.1960 -0.3561
  186DOPC  H14C22842   0.911   2.802   6.465  0.4049  0.9128  0.5681
  186DOPC   C1522843   0.685   2.655   6.409  0.1747  0.3589 -0.8483
  186DOPC  H15A22844   0.692   2.726   6.327  0.3845  1.6632  0.2560
  186DOPC  H15B22845   0.585   2.617   6.420 -0.4879  2.0852 -0.6057
  186DOPC  H15C22846   0.729   2.561   6.379  1.0838  0.9428 -1.4000
  186DOPC   C1122847   0.695   2.931   6.691  0.1192 -0.1120  0.5443
  186DOPC  H11A22848   0.607   2.997   6.706 -2.4795 -2.3976 -3.1776
  186DOPC  H11B22849   0.714   2.874   6.785  0.5012  0.8944  1.1006
  186DOPC     P22850   0.810   3.138   6.570  0.4092  0.1384 -0.2826
  186DOPC   O1322851   0.722   3.099   6.455 -0.4386  0.4759 -0.2726
  186DOPC   O1422852   0.945   3.169   6.532  0.3208 -0.6948 -0.7230
  186DOPC   O1222853   0.815   3.012   6.669  0.6007  0.6474 -0.1231
  186DOPC   O1122854   0.738   3.258   6.647  0.0687 -0.6699  0.1324
  186DOPC    C122855   0.776   3.305   6.778 -1.0337  0.3433 -0.3569
  186DOPC    HA22856   0.774   3.416   6.775 -2.4562  0.3280 -0.4758
  186DOPC    HB22857   0.884   3.283   6.795 -0.6234  0.4808 -2.4758
  186DOPC    C222858   0.675   3.267   6.884  0.4143 -0.1043 -0.5149
  186DOPC    HS22859   0.682   3.336   6.971 -0.8037  0.6411 -0.9721
  186DOPC   O2122860   0.681   3.134   6.930 -0.5236 -0.2172  0.8955
  186DOPC   C2122861   0.784   3.103   6.994 -0.1534 -0.0779 -0.3966
  186DOPC   O2222862   0.884   3.171   7.023  0.4857  0.9206  0.3866
  186DOPC   C2222863   0.751   2.977   7.063  0.6511 -0.3620 -0.1578
  186DOPC   H2R22864   0.708   2.908   6.988 -2.6108  2.1347 -0.8219
  186DOPC   H2S22865   0.671   3.008   7.133  3.0977  2.1589  1.7425
  186DOPC    C322866   0.532   3.290   6.822 -0.9399  0.0652  0.6317
  186DOPC    HX22867   0.519   3.209   6.748 -2.1260  2.1892 -1.6558
  186DOPC    HY22868   0.546   3.385   6.766 -1.0479 -1.0871 -1.4424
  186DOPC   O3122869   0.421   3.285   6.924 -0.2595  0.5382  0.1661
  186DOPC   C3122870   0.303   3.300   6.863 -0.0907 -0.2372 -0.9180
  186DOPC   O3222871   0.289   3.312   6.742  0.1467 -0.0433  0.1500
  186DOPC   C3222872   0.189   3.289   6.958 -0.2817  0.3850  0.0904
  186DOPC   H2X22873   0.223   3.258   7.059 -0.5019 -2.4499 -0.6153
  186DOPC   H2Y22874   0.132   3.384   6.967  2.3177  1.9233  1.2978
  186DOPC   C2322875   0.864   2.922   7.143  0.4341 -0.2030 -0.1695
  186DOPC   H3R22876   0.902   2.997   7.216 -1.0141  0.0927  0.3109
  186DOPC   H3S22877   0.951   2.891   7.081 -0.0633 -2.3398  0.1066
  186DOPC   C2422878   0.821   2.806   7.235  0.0521  0.6642  0.4438
  186DOPC   H4R22879   0.740   2.841   7.303  0.4717  0.0639  1.2637
  186DOPC   H4S22880   0.906   2.784   7.303 -0.4409  0.1595  0.9074
  186DOPC   C2522881   0.788   2.671   7.162  0.2265  0.1146  0.5242
  186DOPC   H5R22882   0.878   2.633   7.109 -0.9927 -2.9027  0.4136
  186DOPC   H5S22883   0.707   2.687   7.087  0.4894  2.0487  0.5925
  186DOPC   C2622884   0.737   2.574   7.274 -0.2699  0.5806  0.0103
  186DOPC   H6R22885   0.652   2.606   7.338  1.1293 -1.1086  2.9429
  186DOPC   H6S22886   0.819   2.558   7.348 -0.6577 -1.6303  0.0030
  186DOPC   C2722887   0.699   2.427   7.230 -0.6492 -0.0924 -0.1956
  186DOPC   H7R22888   0.789   2.395   7.173 -0.2282  1.4539 -0.4668
  186DOPC   H7S22889   0.620   2.447   7.155 -1.6311 -1.2948  0.5018
  186DOPC   C2822890   0.640   2.338   7.336 -0.1570 -0.4729 -0.3995
  186DOPC   H8R22891   0.706   2.344   7.425  1.5222  0.2206 -1.6459
  186DOPC   H8S22892   0.633   2.234   7.297  0.7335 -0.6712 -0.0514
  186DOPC   C2922893   0.499   2.390   7.372 -0.4562 -0.8956  0.7849
  186DOPC   H9R22894   0.505   2.464   7.453  0.1103 -0.1027  0.0416
  186DOPC  C21022895   0.388   2.378   7.297 -0.0227 -0.6423 -0.5294
  186DOPC  H10R22896   0.300   2.435   7.332 -1.2681 -2.6178 -0.3288
  186DOPC  C21122897   0.370   2.296   7.171  0.1941 -0.8418 -0.2718
  186DOPC  H11R22898   0.467   2.266   7.124  0.4665 -1.3735  0.5975
  186DOPC  H11S22899   0.309   2.344   7.091 -1.3917 -0.7406  0.9495
  186DOPC  C21222900   0.298   2.161   7.206 -0.3588  0.3859  0.3028
  186DOPC  H12R22901   0.337   2.116   7.300  0.2873 -2.4521 -1.2248
  186DOPC  H12S22902   0.333   2.091   7.128  0.8433 -0.2815  1.3971
  186DOPC  C21322903   0.149   2.159   7.211  0.5060  0.1708 -0.6002
  186DOPC  H13R22904   0.108   2.213   7.122 -0.7036  3.0870  1.5522
  186DOPC  H13S22905   0.118   2.214   7.302  1.4702 -1.9545  1.1094
  186DOPC  C21422906   0.074   2.025   7.205  0.2169  0.2241  0.3192
  186DOPC  H14R22907   0.131   1.952   7.266 -2.1666 -1.2715  0.8948
  186DOPC  H14S22908   0.075   1.985   7.101 -0.7902  0.3911  0.2412
  186DOPC  C21522909  -0.068   2.043   7.259 -0.2708  0.2432  0.3977
  186DOPC  H15R22910  -0.135   2.115   7.206 -0.1080  0.6805  0.7730
  186DOPC  H15S22911  -0.057   2.090   7.359 -2.8395 -1.3826  1.5641
  186DOPC  C21622912  -0.131   1.902   7.285 -0.3076  0.5174  0.2095
  186DOPC  H16R22913  -0.236   1.912   7.320 -0.0300  2.1113  0.6854
  186DOPC  H16S22914  -0.072   1.850   7.364 -0.0003  2.8569  1.6227
  186DOPC  C21722915  -0.132   1.794   7.169  0.2482 -0.4627  0.3083
  186DOPC  H17R22916  -0.025   1.779   7.142  0.4524  1.8437 -0.3434
  186DOPC  H17S22917  -0.177   1.833   7.076 -2.1178 -0.5508  1.3382
  186DOPC  C21822918  -0.193   1.666   7.217  1.0359  0.3061 -0.3632
  186DOPC  H18R22919  -0.183   1.652   7.327 -1.0865  0.1868 -0.1518
  186DOPC  H18S22920  -0.149   1.576   7.169  0.1464  0.3687 -1.3339
  186DOPC  H18T22921  -0.303   1.672   7.203  0.6711 -1.6072  1.2677
  186DOPC   C3322922   0.090   3.191   6.905  0.0071  0.3517  0.6048
  186DOPC   H3X22923   0.131   3.094   6.868 -2.1905 -1.0191  1.5197
  186DOPC   H3Y22924   0.040   3.231   6.815  1.4786  2.8564  0.8018
  186DOPC   C3422925  -0.027   3.147   6.997 -0.3359  0.4441  0.0175
  186DOPC   H4X22926  -0.086   3.236   7.029  0.3495  1.7795 -2.1316
  186DOPC   H4Y22927   0.013   3.094   7.086 -0.9255  0.0859  0.0713
  186DOPC   C3522928  -0.121   3.058   6.924  0.5790 -0.3902 -0.2255
  186DOPC   H5X22929  -0.070   2.972   6.876  0.0359 -0.1501 -1.2479
  186DOPC   H5Y22930  -0.172   3.118   6.846  1.8869 -1.5062 -2.0224
  186DOPC   C3622931  -0.230   3.004   7.027 -0.2681  0.1191 -0.0400
  186DOPC   H6X22932  -0.288   2.935   6.962 -1.8735  0.9857  0.4252
  186DOPC   H6Y22933  -0.195   2.942   7.112 -0.9662 -0.5539 -0.2393
  186DOPC   C3722934  -0.333   3.106   7.080  0.6923 -1.0800  0.1434
  186DOPC   H7X22935  -0.283   3.193   7.128 -2.3759  0.9395 -0.0308
  186DOPC   H7Y22936  -0.370   3.160   6.990 -0.0764 -0.1546  0.9912
  186DOPC   C3822937  -0.455   3.048   7.163  0.1393  0.4072  0.2868
  186DOPC   H8X22938  -0.489   2.950   7.125  4.3106 -0.5263 -1.5785
  186DOPC   H8Y22939  -0.524   3.133   7.143 -0.7320 -0.2077  0.6209
  186DOPC   C3922940  -0.409   3.055   7.306  0.0029 -0.1373 -0.4018
  186DOPC   H9X22941  -0.358   3.149   7.332 -0.4639  0.2846 -0.9912
  186DOPC  C31022942  -0.445   2.972   7.400 -0.2250  1.1403 -0.3470
  186DOPC  H10X22943  -0.400   2.978   7.500 -1.6642 -0.2507  0.4154
  186DOPC  C31122944  -0.549   2.860   7.383 -0.5415 -0.0405 -0.1114
  186DOPC  H11X22945  -0.509   2.777   7.444 -0.0489  0.1261 -0.2021
  186DOPC  H11Y22946  -0.556   2.816   7.281 -1.3190  3.3497 -1.6659
  186DOPC  C31222947  -0.688   2.905   7.426  0.1689  0.1018 -0.6931
  186DOPC  H12X22948  -0.760   2.823   7.406  1.1721 -1.0658  0.3445
  186DOPC  H12Y22949  -0.714   2.995   7.365  2.2973  0.0663 -1.7826
  186DOPC  C31322950  -0.705   2.927   7.582 -0.2073  0.5871 -0.3225
  186DOPC  H13X22951  -0.695   2.826   7.628 -2.8284 -1.3109 -3.4315
  186DOPC  H13Y22952  -0.628   2.992   7.628  0.4481 -0.1301 -0.3716
  186DOPC  C31422953  -0.844   2.988   7.607 -0.3301 -0.5358 -0.0006
  186DOPC  H14X22954  -0.840   3.079   7.543 -1.1113 -0.3830  0.1626
  186DOPC  H14Y22955  -0.911   2.924   7.545  0.0149 -0.3339 -0.5985
  186DOPC  C31522956  -0.884   3.028   7.753 -1.1856 -0.1847 -0.1494
  186DOPC  H15X22957  -0.804   3.093   7.793  1.0622 -1.9793 -1.4812
  186DOPC  H15Y22958  -0.891   2.939   7.819 -4.3367 -0.0556 -0.1324
  186DOPC  C31622959  -1.010   3.109   7.768 -0.0204 -0.0833  0.1048
  186DOPC  H16X22960  -1.017   3.183   7.685  1.1777 -1.2651 -1.1037
  186DOPC  H16Y22961  -1.094   3.037   7.760 -0.3214  0.2261  0.4532
  186DOPC  C31722962  -1.025   3.176   7.906  0.3002 -0.4970 -0.1238
  186DOPC  H17X22963  -1.024   3.094   7.981 -2.2035 -1.5152 -1.0939
  186DOPC  H17Y22964  -0.941   3.247   7.926 -0.5523  0.4049  0.3311
  186DOPC  C31822965  -1.161   3.254   7.916  0.3891 -0.6229  0.6200
  186DOPC  H18X22966  -1.170   3.312   8.010  0.6508 -0.8695  0.7963
  186DOPC  H18Y22967  -1.159   3.324   7.829  0.6788 -1.2312  0.1233
  186DOPC  H18Z22968  -1.249   3.191   7.892 -1.1801  1.7685 -0.3616
  187DOPC     N22969   6.064   0.194   6.133 -0.1288 -0.5201  0.2091
  187DOPC   C1222970   6.040   0.169   6.276 -0.7955 -0.0555 -0.1341
  187DOPC  H12A22971   6.023   0.261   6.329  1.0446 -0.5977  1.5303
  187DOPC  H12B22972   6.130   0.129   6.321 -0.9729 -0.5916 -0.2478
  187DOPC   C1322973   6.101   0.076   6.054 -1.0479  0.0583 -0.1016
  187DOPC  H13A22974   6.200   0.035   6.072 -0.5803 -0.1253 -2.7284
  187DOPC  H13B22975   6.027  -0.002   6.049  0.5241 -1.4405 -0.8885
  187DOPC  H13C22976   6.102   0.108   5.951  0.7221 -1.8795 -0.7480
  187DOPC   C1422977   6.166   0.298   6.117 -0.5662  0.6669  0.5893
  187DOPC  H14A22978   6.264   0.260   6.145 -0.9531 -0.7445  0.1232
  187DOPC  H14B22979   6.184   0.321   6.014  1.1011  0.5947  0.8334
  187DOPC  H14C22980   6.137   0.389   6.167 -2.1788  1.0144 -0.8978
  187DOPC   C1522981   5.943   0.248   6.066  0.0379 -0.0204 -0.3904
  187DOPC  H15A22982   5.971   0.268   5.964  1.1318 -2.2840 -0.5949
  187DOPC  H15B22983   5.898   0.330   6.121  1.7155  0.3588  0.5155
  187DOPC  H15C22984   5.865   0.175   6.055  0.5390 -0.6700  0.2415
  187DOPC   C1122985   5.929   0.069   6.308 -0.1619  0.0475  0.2902
  187DOPC  H11A22986   5.936  -0.010   6.230  0.4517  1.1495 -0.8090
  187DOPC  H11B22987   5.929   0.010   6.403 -5.2371  1.9284  1.7940
  187DOPC     P22988   5.739   0.213   6.420  0.4690 -0.2549 -0.0416
  187DOPC   O1322989   5.604   0.251   6.376  0.3232 -0.7515  0.3648
  187DOPC   O1422990   5.837   0.317   6.464 -0.5626  0.2798 -0.1468
  187DOPC   O1222991   5.800   0.127   6.298 -0.1827  0.1020 -0.2769
  187DOPC   O1122992   5.730   0.101   6.527 -0.2014  0.6240  0.3637
  187DOPC    C122993   5.666  -0.021   6.512  0.6386  0.4552 -0.1176
  187DOPC    HA22994   5.678  -0.069   6.413 -0.9817 -2.3336  0.9210
  187DOPC    HB22995   5.558  -0.015   6.537  0.5591 -1.6815  0.1746
  187DOPC    C222996   5.731  -0.129   6.615 -0.4218  0.2522 -0.1192
  187DOPC    HS22997   5.840  -0.110   6.610 -0.3624  0.9838  2.4982
  187DOPC   O2122998   5.693  -0.259   6.569 -0.4780  0.1643  0.1246
  187DOPC   C2122999   5.784  -0.357   6.572 -0.7410 -0.5520  0.5954
  187DOPC   O2223000   5.903  -0.337   6.607  0.2080 -0.2327  0.1238
  187DOPC   C2223001   5.728  -0.489   6.523  0.4674  0.2710  0.5450
  187DOPC   H2R23002   5.812  -0.540   6.472  0.3920  0.5470  0.1374
  187DOPC   H2S23003   5.647  -0.478   6.448  0.2183  3.7582  1.1759
  187DOPC    C323004   5.680  -0.107   6.755 -0.8466  0.3094  0.1305
  187DOPC    HX23005   5.571  -0.121   6.776 -0.6190  0.0884  1.2448
  187DOPC    HY23006   5.702  -0.003   6.787 -0.1070 -0.0301  0.7599
  187DOPC   O3123007   5.761  -0.194   6.834  0.4498 -0.2570 -0.2593
  187DOPC   C3123008   5.884  -0.162   6.868 -0.1526 -0.1672  0.0174
  187DOPC   O3223009   5.947  -0.062   6.837 -0.0638 -0.2297 -0.0435
  187DOPC   C3223010   5.940  -0.274   6.954  1.0703  0.4507  0.4226
  187DOPC   H2X23011   5.852  -0.323   7.001  0.4486  0.7383 -0.4129
  187DOPC   H2Y23012   5.983  -0.353   6.889  0.1630 -0.1900  0.5807
  187DOPC   C2323013   5.685  -0.574   6.651  0.0499  0.1985  0.3213
  187DOPC   H3R23014   5.599  -0.527   6.705  1.0012  1.4567  0.7890
  187DOPC   H3S23015   5.766  -0.597   6.722 -1.3269  0.7303  2.1511
  187DOPC   C2423016   5.633  -0.704   6.585  0.2026 -0.4210 -0.7653
  187DOPC   H4R23017   5.710  -0.752   6.521 -1.5357  0.3145 -3.5720
  187DOPC   H4S23018   5.551  -0.680   6.514 -0.0014  0.8128 -0.1334
  187DOPC   C2523019   5.584  -0.814   6.679  0.5173 -0.1395 -0.0772
  187DOPC   H5R23020   5.546  -0.894   6.612  2.1429 -0.7813 -0.2893
  187DOPC   H5S23021   5.504  -0.768   6.741  1.2846 -0.2390  1.0115
  187DOPC   C2623022   5.695  -0.862   6.778  0.1848 -0.3240 -0.1256
  187DOPC   H6R23023   5.734  -0.774   6.833  0.0916 -1.5799  2.0773
  187DOPC   H6S23024   5.778  -0.918   6.728  0.6997 -0.9863  1.3938
  187DOPC   C2723025   5.644  -0.942   6.894 -0.2933 -0.2113  0.1431
  187DOPC   H7R23026   5.622  -1.041   6.849  0.2998 -0.2011 -0.1707
  187DOPC   H7S23027   5.555  -0.894   6.941 -1.5498 -2.1154 -0.1835
  187DOPC   C2823028   5.759  -0.977   6.998 -0.4151  0.0740  0.2406
  187DOPC   H8R23029   5.842  -1.015   6.933 -0.9136 -0.7105  0.0505
  187DOPC   H8S23030   5.717  -1.060   7.059  0.7343 -0.1423  0.7769
  187DOPC   C2923031   5.804  -0.870   7.092  0.6394  0.1294 -0.3458
  187DOPC   H9R23032   5.735  -0.868   7.178 -0.7838  1.4401 -1.4711
  187DOPC  C21023033   5.909  -0.787   7.091  0.7701  0.0150 -0.5032
  187DOPC  H10R23034   5.928  -0.711   7.169  1.9236 -0.4462 -0.3149
  187DOPC  C21123035   6.014  -0.791   6.983  0.6260  0.1261  0.1151
  187DOPC  H11R23036   5.988  -0.726   6.897 -1.3811  1.2931  1.5106
  187DOPC  H11S23037   6.023  -0.895   6.944  0.6126 -0.0149  0.4787
  187DOPC  C21223038   6.149  -0.741   7.038 -0.0796  0.3758  0.0795
  187DOPC  H12R23039   6.177  -0.796   7.130 -1.0671 -0.2008  0.0593
  187DOPC  H12S23040   6.131  -0.635   7.065  0.3997  0.2496  0.9240
  187DOPC  C21323041   6.262  -0.768   6.942 -0.2328  0.5896  0.0189
  187DOPC  H13R23042   6.244  -0.717   6.845  1.2421  2.0604  0.4729
  187DOPC  H13S23043   6.271  -0.878   6.930  0.6081  0.6118  0.3541
  187DOPC  C21423044   6.402  -0.723   6.983  0.6184 -0.0904 -0.1942
  187DOPC  H14R23045   6.477  -0.789   6.934 -0.8647 -3.0449  1.2718
  187DOPC  H14S23046   6.424  -0.745   7.090  1.6007  0.2275 -0.3201
  187DOPC  C21523047   6.435  -0.572   6.963 -0.0805  0.2248 -0.4281
  187DOPC  H15R23048   6.360  -0.509   7.014  1.3562  2.1654 -0.6061
  187DOPC  H15S23049   6.432  -0.556   6.853  0.1069 -0.6380 -0.5626
  187DOPC  C21623050   6.570  -0.540   7.023  0.5997 -0.5341  0.2772
  187DOPC  H16R23051   6.642  -0.596   6.960  0.4890  1.2397 -1.5547
  187DOPC  H16S23052   6.572  -0.592   7.121  0.1251 -1.0060  0.0433
  187DOPC  C21723053   6.613  -0.398   7.030 -0.1089 -0.0662  0.0408
  187DOPC  H17R23054   6.536  -0.336   7.080 -0.5540 -0.6308  0.0569
  187DOPC  H17S23055   6.637  -0.358   6.929  1.0440  3.3546  1.4919
  187DOPC  C21823056   6.746  -0.394   7.102 -1.0749  0.2595 -0.5252
  187DOPC  H18R23057   6.825  -0.430   7.032 -0.7667  0.6839 -0.4063
  187DOPC  H18S23058   6.746  -0.445   7.201  1.5746  1.4951  0.2164
  187DOPC  H18T23059   6.794  -0.295   7.123 -0.3844  0.1524 -1.5547
  187DOPC   C3323060   6.036  -0.225   7.054  0.0926 -0.8119  0.0374
  187DOPC   H3X23061   5.986  -0.168   7.135  0.9000 -1.4864  1.0342
  187DOPC   H3Y23062   6.106  -0.151   7.009  0.0274 -1.3984 -1.0597
  187DOPC   C3423063   6.117  -0.334   7.111 -0.7550  0.4963  0.1462
  187DOPC   H4X23064   6.185  -0.380   7.036 -0.0750  0.0992  0.9893
  187DOPC   H4Y23065   6.069  -0.424   7.154  1.9725 -1.4389 -0.6024
  187DOPC   C3523066   6.195  -0.277   7.235 -0.2558  0.0014  0.0409
  187DOPC   H5X23067   6.136  -0.216   7.307  2.9847  1.0767  1.9788
  187DOPC   H5Y23068   6.263  -0.201   7.190 -0.0113 -0.7342 -0.8547
  187DOPC   C3623069   6.287  -0.376   7.310  0.5498 -0.2021  0.4352
  187DOPC   H6X23070   6.227  -0.466   7.334 -0.8005  0.3661 -0.6650
  187DOPC   H6Y23071   6.370  -0.409   7.244  0.9334  0.0855  0.7715
  187DOPC   C3723072   6.352  -0.320   7.441  0.5073  0.2299  0.1368
  187DOPC   H7X23073   6.267  -0.286   7.505  1.8584  0.9462  1.6149
  187DOPC   H7Y23074   6.400  -0.410   7.484  3.0124  1.3792 -0.0757
  187DOPC   C3823075   6.448  -0.204   7.420 -0.7516 -0.7457 -1.1857
  187DOPC   H8X23076   6.391  -0.129   7.359 -0.7145  0.6564  0.4442
  187DOPC   H8Y23077   6.525  -0.239   7.348  0.4949 -0.6358  0.0652
  187DOPC   C3923078   6.500  -0.132   7.540 -0.7190 -0.2255  1.0836
  187DOPC   H9X23079   6.426  -0.072   7.595  1.1605  0.2545  3.2559
  187DOPC  C31023080   6.626  -0.141   7.583 -0.2140  0.1123  0.3885
  187DOPC  H10X23081   6.673  -0.074   7.657  1.8109 -0.9671  0.1458
  187DOPC  C31123082   6.729  -0.231   7.511 -0.3140 -0.3082 -0.9005
  187DOPC  H11X23083   6.797  -0.177   7.441 -0.1708 -0.7198 -1.0824
  187DOPC  H11Y23084   6.673  -0.310   7.459 -1.2227 -2.5902  3.1255
  187DOPC  C31223085   6.823  -0.297   7.612  0.3019  0.2571  0.3044
  187DOPC  H12X23086   6.765  -0.342   7.696  0.8995  1.7562  1.5699
  187DOPC  H12Y23087   6.887  -0.217   7.654  0.4041  0.3049  0.0576
  187DOPC  C31323088   6.918  -0.402   7.545  0.2229  0.4999  0.4394
  187DOPC  H13X23089   6.856  -0.475   7.489 -1.3790  1.1866  1.2486
  187DOPC  H13Y23090   6.974  -0.352   7.463  1.7607  1.8982  2.2635
  187DOPC  C31423091   7.005  -0.457   7.656  0.3567  0.5668  0.1583
  187DOPC  H14X23092   7.028  -0.361   7.707  4.2077  1.8937 -3.4842
  187DOPC  H14Y23093   6.946  -0.510   7.734 -1.6951  1.7394 -0.4982
  187DOPC  C31523094   7.130  -0.546   7.618  0.1764 -0.2832  0.1274
  187DOPC  H15X23095   7.194  -0.502   7.539  0.5791  0.9265  1.1067
  187DOPC  H15Y23096   7.103  -0.650   7.591  2.0439 -0.6545 -0.4554
  187DOPC  C31623097   7.220  -0.568   7.743 -0.4778  0.2273 -0.2459
  187DOPC  H16X23098   7.251  -0.468   7.781  2.4860 -1.1883  1.4248
  187DOPC  H16Y23099   7.154  -0.604   7.825 -0.7382  1.2650  0.0223
  187DOPC  C31723100   7.332  -0.663   7.717  0.3248 -0.1055  0.0027
  187DOPC  H17X23101   7.401  -0.635   7.634  1.7737 -1.9836  0.4839
  187DOPC  H17Y23102   7.392  -0.673   7.811  0.4815 -1.3919 -0.2139
  187DOPC  C31823103   7.280  -0.806   7.681  0.2755  0.1106  0.7671
  187DOPC  H18X23104   7.208  -0.834   7.760 -4.0399  0.1497 -2.7910
  187DOPC  H18Y23105   7.223  -0.803   7.586 -0.0164  0.9617  0.9649
  187DOPC  H18Z23106   7.354  -0.889   7.682 -0.7220 -0.7944  1.2871
  188DOPC     N23107   2.888   0.078   6.547  0.1125  0.0148 -0.4197
  188DOPC   C1223108   2.969   0.160   6.643 -0.1970  0.3611  0.3132
  188DOPC  H12A23109   3.075   0.141   6.632 -0.6715 -1.3817 -2.0912
  188DOPC  H12B23110   2.947   0.123   6.742  0.3513  0.3211  0.4279
  188DOPC   C1323111   2.931   0.101   6.407  0.2848  0.6152  0.2706
  188DOPC  H13A23112   2.936   0.205   6.381 -0.9217 -0.3737 -5.2869
  188DOPC  H13B23113   3.028   0.055   6.392  0.3098  0.0834  1.8862
  188DOPC  H13C23114   2.859   0.072   6.332 -0.1007 -0.1615  0.9202
  188DOPC   C1423115   2.739   0.109   6.557  0.5287  0.4947  0.2988
  188DOPC  H14A23116   2.708   0.099   6.660  2.3413 -4.4149  0.6424
  188DOPC  H14B23117   2.713   0.208   6.522  0.9404  0.1038 -1.1960
  188DOPC  H14C23118   2.690   0.034   6.496  0.3744  0.0986  0.9041
  188DOPC   C1523119   2.903  -0.068   6.578 -0.1203  0.2852 -0.1488
  188DOPC  H15A23120   2.854  -0.128   6.502  0.5752  0.4600 -0.7413
  188DOPC  H15B23121   2.847  -0.106   6.663 -1.9409 -2.2199 -2.2977
  188DOPC  H15C23122   3.009  -0.089   6.579 -0.0038  0.8198  1.0598
  188DOPC   C1123123   2.948   0.308   6.644 -0.6357  0.6728 -0.3339
  188DOPC  H11A23124   2.839   0.325   6.661 -0.9647 -0.6684 -0.9826
  188DOPC  H11B23125   3.007   0.361   6.722  0.4156 -0.0209 -0.6310
  188DOPC     P23126   2.905   0.475   6.437 -0.2611 -0.3383 -0.1540
  188DOPC   O1323127   2.843   0.397   6.331  0.2966 -0.1439  0.4509
  188DOPC   O1423128   2.985   0.592   6.400 -0.1126  0.0810  0.0851
  188DOPC   O1223129   2.997   0.370   6.522 -0.1825 -0.2089  0.2684
  188DOPC   O1123130   2.796   0.523   6.543 -1.0170 -0.0897  0.7833
  188DOPC    C123131   2.836   0.640   6.625  0.2926 -0.6736 -0.2948
  188DOPC    HA23132   2.844   0.729   6.559  0.9008 -0.1130  0.5081
  188DOPC    HB23133   2.937   0.628   6.669  0.6107  0.5919 -0.6527
  188DOPC    C223134   2.739   0.683   6.739  0.1878  0.0932  0.9571
  188DOPC    HS23135   2.796   0.760   6.795  1.1627 -1.5705  2.3230
  188DOPC   O2123136   2.700   0.576   6.825  0.5430  0.0869  0.0166
  188DOPC   C2123137   2.793   0.511   6.893 -0.1263  0.3049 -0.1881
  188DOPC   O2223138   2.911   0.546   6.912 -0.0485  1.0464 -1.1979
  188DOPC   C2223139   2.743   0.380   6.938  0.3245  0.4975 -0.3725
  188DOPC   H2R23140   2.786   0.301   6.874 -0.6462  0.2279 -0.7044
  188DOPC   H2S23141   2.633   0.373   6.922  0.6120  1.5021 -3.4351
  188DOPC    C323142   2.618   0.759   6.679 -0.1369 -0.2765 -0.3922
  188DOPC    HX23143   2.573   0.699   6.597  0.0876 -3.0029  1.3182
  188DOPC    HY23144   2.653   0.859   6.647 -0.2048  0.3423  1.3511
  188DOPC   O3123145   2.516   0.776   6.783  0.0317 -0.6831 -0.0183
  188DOPC   C3123146   2.514   0.887   6.852  0.3179 -0.8412  0.0941
  188DOPC   O3223147   2.578   0.986   6.834 -0.3080  0.3625  0.3561
  188DOPC   C3223148   2.420   0.873   6.971 -0.0630  0.6332 -0.2540
  188DOPC   H2X23149   2.396   0.765   6.982 -2.0204  0.9118 -1.4181
  188DOPC   H2Y23150   2.482   0.897   7.060 -1.0384  2.0052  0.0858
  188DOPC   C2323151   2.782   0.352   7.083 -0.3916 -0.2835  0.0877
  188DOPC   H3R23152   2.890   0.328   7.086 -0.2074  0.6560  1.6128
  188DOPC   H3S23153   2.734   0.253   7.097  0.5970 -1.2129 -2.4441
  188DOPC   C2423154   2.739   0.455   7.189  0.3673 -0.1364  0.6825
  188DOPC   H4R23155   2.814   0.536   7.179  2.4013 -1.9044  1.1173
  188DOPC   H4S23156   2.748   0.420   7.294 -1.9923  0.6796  1.2273
  188DOPC   C2523157   2.588   0.501   7.176 -0.1717 -0.3677  0.4661
  188DOPC   H5R23158   2.516   0.421   7.205 -0.4568  0.5859  2.5901
  188DOPC   H5S23159   2.559   0.530   7.072  0.4487  0.1801  0.4449
  188DOPC   C2623160   2.565   0.612   7.276  0.0074 -0.3066  0.6874
  188DOPC   H6R23161   2.471   0.664   7.244  1.2066  1.1758 -0.5734
  188DOPC   H6S23162   2.640   0.694   7.271  1.1425 -1.3498  0.3781
  188DOPC   C2723163   2.550   0.562   7.421 -0.5335  0.1396 -0.1049
  188DOPC   H7R23164   2.646   0.520   7.457 -0.4265 -0.8236 -1.4562
  188DOPC   H7S23165   2.470   0.485   7.421  0.9386 -1.4569 -0.1848
  188DOPC   C2823166   2.510   0.673   7.514  0.3736 -0.8222  0.1350
  188DOPC   H8R23167   2.422   0.720   7.465 -1.0119 -2.7093  0.6736
  188DOPC   H8S23168   2.591   0.746   7.531  2.0163 -2.6720  0.6628
  188DOPC   C2923169   2.467   0.613   7.642 -0.0885  0.5402  0.5281
  188DOPC   H9R23170   2.365   0.573   7.651  0.2539 -0.0653  1.9996
  188DOPC  C21023171   2.538   0.622   7.752  0.1617  0.4492  0.5799
  188DOPC  H10R23172   2.507   0.550   7.829  0.1512  1.2424  1.3376
  188DOPC  C21123173   2.680   0.673   7.770  0.2090  0.3693 -0.2605
  188DOPC  H11R23174   2.684   0.780   7.739  1.0703  0.5018  0.2646
  188DOPC  H11S23175   2.755   0.613   7.714  1.2971 -1.1683  2.6370
  188DOPC  C21223176   2.728   0.662   7.914  0.6997  0.5521  0.1227
  188DOPC  H12R23177   2.766   0.560   7.937 -0.6664 -0.4897 -1.8635
  188DOPC  H12S23178   2.645   0.688   7.983 -0.8248 -2.2632 -0.4651
  188DOPC  C21323179   2.846   0.760   7.946 -0.8033  0.1669  0.0125
  188DOPC  H13R23180   2.928   0.758   7.871 -0.7300  0.8277  0.0667
  188DOPC  H13S23181   2.889   0.735   8.046  0.9061  0.7852 -0.5160
  188DOPC  C21423182   2.794   0.898   7.954  0.2249 -0.0974  0.2995
  188DOPC  H14R23183   2.711   0.903   8.028  0.7160 -0.7511  0.9040
  188DOPC  H14S23184   2.758   0.932   7.854  0.1809  0.8078  0.6137
  188DOPC  C21523185   2.916   0.996   7.978  0.5657  0.1968 -0.4651
  188DOPC  H15R23186   2.996   0.967   7.906  0.4269 -1.7541  0.1020
  188DOPC  H15S23187   2.962   0.984   8.078  0.7356 -1.4815 -0.7047
  188DOPC  C21623188   2.869   1.143   7.965  0.3321 -0.2002 -0.4091
  188DOPC  H16R23189   2.786   1.143   7.890 -0.6150 -0.9515  0.6011
  188DOPC  H16S23190   2.957   1.207   7.942 -1.1548  1.8610 -0.7589
  188DOPC  C21723191   2.803   1.204   8.090 -0.2640 -0.3338 -0.1011
  188DOPC  H17R23192   2.876   1.229   8.171 -1.6637  0.6729  0.8960
  188DOPC  H17S23193   2.729   1.128   8.123 -1.8950  1.6113  0.9451
  188DOPC  C21823194   2.737   1.336   8.055  0.2070 -0.0589  0.0398
  188DOPC  H18R23195   2.703   1.339   7.950 -1.9636  4.0315  0.6918
  188DOPC  H18S23196   2.804   1.424   8.068 -0.9436  1.0686 -1.3717
  188DOPC  H18T23197   2.644   1.347   8.115 -1.2455  1.5423 -2.3226
  188DOPC   C3323198   2.301   0.972   6.969  0.4160  0.0167  0.2568
  188DOPC   H3X23199   2.243   0.948   6.877  0.7085  1.3892 -0.3093
  188DOPC   H3Y23200   2.325   1.079   6.954 -1.6930  0.5593  0.5265
  188DOPC   C3423201   2.218   0.952   7.096 -0.6379  0.0269  0.1953
  188DOPC   H4X23202   2.170   0.852   7.085  0.7245 -0.5209 -1.1911
  188DOPC   H4Y23203   2.127   1.016   7.092 -1.6726 -1.3443  1.0246
  188DOPC   C3523204   2.293   0.964   7.231 -0.3175  0.4358 -0.1342
  188DOPC   H5X23205   2.352   1.057   7.229  0.6182 -0.0724  1.7683
  188DOPC   H5Y23206   2.368   0.882   7.238  0.1316  0.7742 -0.8449
  188DOPC   C3623207   2.208   0.980   7.353  0.1883 -0.1532  0.3873
  188DOPC   H6X23208   2.278   1.003   7.436 -1.6607  1.5271  1.5696
  188DOPC   H6Y23209   2.122   1.050   7.345 -2.0232 -2.5638  1.3307
  188DOPC   C3723210   2.134   0.842   7.389 -0.2022  0.2729  0.3949
  188DOPC   H7X23211   2.051   0.824   7.316 -0.0680 -0.0873  0.3334
  188DOPC   H7Y23212   2.210   0.762   7.380 -0.5885 -0.1174  0.5898
  188DOPC   C3823213   2.057   0.838   7.527 -0.2394  0.1928 -0.1502
  188DOPC   H8X23214   2.133   0.832   7.607  1.5299  0.1815 -1.7468
  188DOPC   H8Y23215   1.998   0.744   7.534  0.7105 -0.6347 -2.3049
  188DOPC   C3923216   1.980   0.966   7.543  0.2520 -0.1123 -0.2663
  188DOPC   H9X23217   2.034   1.061   7.551 -1.2730  0.6917  1.2215
  188DOPC  C31023218   1.850   0.986   7.524 -0.1482  0.2231 -0.7211
  188DOPC  H10X23219   1.812   1.082   7.562  1.8399  0.3505  1.1436
  188DOPC  C31123220   1.746   0.885   7.482  0.3252  0.0594 -0.2469
  188DOPC  H11X23221   1.785   0.783   7.499  1.8767  1.0446  2.9298
  188DOPC  H11Y23222   1.722   0.900   7.374 -1.2930  0.5058  0.1466
  188DOPC  C31223223   1.611   0.911   7.553  0.2790  0.0588  0.1664
  188DOPC  H12X23224   1.597   1.016   7.588  0.5040 -0.6508  2.4981
  188DOPC  H12Y23225   1.607   0.860   7.651  0.5319 -0.3588 -0.0353
  188DOPC  C31323226   1.486   0.860   7.474 -0.0274 -0.1639  0.8706
  188DOPC  H13X23227   1.406   0.906   7.536  2.6407  1.8599  3.0851
  188DOPC  H13Y23228   1.477   0.915   7.377  2.5798 -1.5210 -0.2379
  188DOPC  C31423229   1.479   0.711   7.453 -0.5888  0.6513 -0.4194
  188DOPC  H14X23230   1.568   0.676   7.397 -1.2146 -0.4021 -0.7810
  188DOPC  H14Y23231   1.479   0.659   7.551 -3.9222 -0.9926 -1.1301
  188DOPC  C31523232   1.355   0.678   7.369 -0.7155  0.4824  0.6518
  188DOPC  H15X23233   1.378   0.727   7.271  1.0359 -2.0809 -0.3257
  188DOPC  H15Y23234   1.275   0.725   7.430  0.9832  1.0445  2.5545
  188DOPC  C31623235   1.334   0.523   7.350  0.0866 -0.8008 -0.1957
  188DOPC  H16X23236   1.386   0.503   7.254 -1.4731 -0.6064 -1.0996
  188DOPC  H16Y23237   1.382   0.473   7.438  0.4991  0.9621  0.6293
  188DOPC  C31723238   1.183   0.479   7.351 -0.8858 -0.5447  0.4660
  188DOPC  H17X23239   1.141   0.495   7.452 -1.9729  1.5475 -0.2606
  188DOPC  H17Y23240   1.136   0.552   7.282  2.3329  1.4039  0.1242
  188DOPC  C31823241   1.156   0.332   7.300  0.1500  0.1225  0.4747
  188DOPC  H18X23242   1.052   0.296   7.319  0.6466 -1.6320  0.0919
  188DOPC  H18Y23243   1.166   0.336   7.190  1.7411  2.4521  0.6351
  188DOPC  H18Z23244   1.231   0.262   7.343 -0.2578 -1.7551 -1.6672
  189DOPC     N23245   4.490   0.665   6.229 -0.8215 -0.2339  0.1670
  189DOPC   C1223246   4.487   0.727   6.371  0.1547 -0.5703 -0.6024
  189DOPC  H12A23247   4.414   0.675   6.431  0.0808 -0.0371 -0.2180
  189DOPC  H12B23248   4.445   0.827   6.370 -1.6645 -1.2782  0.0743
  189DOPC   C1323249   4.353   0.626   6.193 -0.0593 -0.5275  0.7280
  189DOPC  H13A23250   4.353   0.620   6.085  1.5951  1.2791  0.5528
  189DOPC  H13B23251   4.322   0.535   6.242  0.4608 -0.3389  1.4178
  189DOPC  H13C23252   4.289   0.704   6.231  1.5645  1.2794 -0.0241
  189DOPC   C1423253   4.587   0.548   6.223  0.2014 -0.0379  0.2024
  189DOPC  H14A23254   4.686   0.582   6.249  0.0451  0.6731 -0.1224
  189DOPC  H14B23255   4.559   0.486   6.307 -0.2528  2.0629  1.6750
  189DOPC  H14C23256   4.580   0.487   6.134  2.8348 -1.3956  0.8227
  189DOPC   C1523257   4.530   0.782   6.127 -0.1827 -0.5090  0.0386
  189DOPC  H15A23258   4.510   0.743   6.028  0.3572  1.0484 -0.7259
  189DOPC  H15B23259   4.631   0.819   6.134 -0.7928  1.0040  1.2534
  189DOPC  H15C23260   4.467   0.868   6.145  1.1778  0.3775  0.7754
  189DOPC   C1123261   4.617   0.732   6.454  0.4151  0.2923 -0.4300
  189DOPC  H11A23262   4.603   0.785   6.550 -1.6811  0.7573 -0.9368
  189DOPC  H11B23263   4.641   0.625   6.471 -0.1699 -0.0462 -1.6359
  189DOPC     P23264   4.755   0.944   6.386 -0.1306  0.0182  0.0100
  189DOPC   O1323265   4.633   1.025   6.358 -0.4499 -0.0375  0.1981
  189DOPC   O1423266   4.877   0.974   6.304  0.4486 -0.4205 -0.4495
  189DOPC   O1223267   4.724   0.786   6.372 -0.0955  0.3586  0.3323
  189DOPC   O1123268   4.797   0.967   6.535 -1.0710  0.3403  0.3693
  189DOPC    C123269   4.894   0.880   6.595 -0.4105 -0.2147  0.1354
  189DOPC    HA23270   4.991   0.933   6.595 -0.6015  0.1844  1.3641
  189DOPC    HB23271   4.901   0.778   6.552  0.2549 -0.0449 -0.1708
  189DOPC    C223272   4.854   0.873   6.743 -0.1382 -0.3046  0.3086
  189DOPC    HS23273   4.946   0.839   6.796 -0.0042 -0.9564 -0.3374
  189DOPC   O2123274   4.742   0.787   6.763 -0.1406  0.2211 -0.0277
  189DOPC   C2123275   4.768   0.657   6.782 -0.2933 -0.0815 -0.1226
  189DOPC   O2223276   4.875   0.604   6.775  0.2986  0.0657  0.5577
  189DOPC   C2223277   4.638   0.588   6.814  0.0463 -0.2088  0.2275
  189DOPC   H2R23278   4.554   0.621   6.749  1.5597 -1.3772 -2.4965
  189DOPC   H2S23279   4.611   0.617   6.917 -2.0512  2.4621 -0.9345
  189DOPC    C323280   4.829   1.011   6.800 -0.4423  0.3217 -0.9429
  189DOPC    HX23281   4.737   1.050   6.752 -0.6552  1.3010  0.1967
  189DOPC    HY23282   4.909   1.081   6.769 -0.1176 -0.2804 -1.4898
  189DOPC   O3123283   4.799   1.014   6.940 -0.4238  0.1262 -0.4246
  189DOPC   C3123284   4.906   0.992   7.023 -0.1913  0.0338  0.4233
  189DOPC   O3223285   5.022   0.982   6.992  0.1583 -0.3759  0.5632
  189DOPC   C3223286   4.856   0.950   7.160 -0.2558 -0.0050  0.1405
  189DOPC   H2X23287   4.901   1.024   7.230 -1.1118  0.0772  0.6067
  189DOPC   H2Y23288   4.747   0.966   7.167 -0.1962  0.3046  0.3574
  189DOPC   C2323289   4.650   0.437   6.800 -0.0040 -0.0179  0.2205
  189DOPC   H3R23290   4.733   0.394   6.860 -0.2372 -1.4262 -0.4170
  189DOPC   H3S23291   4.669   0.404   6.696  2.0376 -0.9998  0.8492
  189DOPC   C2423292   4.527   0.360   6.853  0.5412 -0.5795  0.4380
  189DOPC   H4R23293   4.441   0.383   6.786  2.3784  0.7458 -1.6250
  189DOPC   H4S23294   4.514   0.408   6.952  1.1958 -0.7860  0.6291
  189DOPC   C2523295   4.555   0.212   6.858  0.5459  0.6595  0.2690
  189DOPC   H5R23296   4.630   0.198   6.939 -0.3899 -1.5202  0.8408
  189DOPC   H5S23297   4.590   0.166   6.763 -1.9600 -0.2234 -0.2862
  189DOPC   C2623298   4.430   0.135   6.902  0.9603  0.2690  0.2704
  189DOPC   H6R23299   4.445   0.025   6.905  2.0260  0.4264  2.4762
  189DOPC   H6S23300   4.351   0.160   6.829 -1.1363  0.3244  2.4311
  189DOPC   C2723301   4.367   0.178   7.041 -0.7230  0.0808  1.1880
  189DOPC   H7R23302   4.377   0.287   7.062  1.6183 -0.1248  1.3383
  189DOPC   H7S23303   4.454   0.148   7.102  1.6895 -0.7402 -2.3524
  189DOPC   C2823304   4.233   0.112   7.075  0.8910 -0.0000 -0.4926
  189DOPC   H8R23305   4.162   0.171   7.013  0.5755  0.4348  0.2708
  189DOPC   H8S23306   4.209   0.131   7.181 -0.1704  1.0387 -0.8999
  189DOPC   C2923307   4.221  -0.036   7.044  0.5504 -0.6330 -0.6850
  189DOPC   H9R23308   4.184  -0.060   6.944 -1.6795 -0.2174 -0.0076
  189DOPC  C21023309   4.263  -0.133   7.124  0.5402 -0.4061 -0.1034
  189DOPC  H10R23310   4.228  -0.236   7.108  0.8167 -0.0919 -3.4689
  189DOPC  C21123311   4.320  -0.110   7.263 -0.3014 -0.2767 -0.1157
  189DOPC  H11R23312   4.368  -0.010   7.273  2.1815 -1.3608 -0.2791
  189DOPC  H11S23313   4.401  -0.186   7.268  1.6471  1.7451  1.0217
  189DOPC  C21223314   4.220  -0.133   7.374  0.7782  0.4354 -0.3284
  189DOPC  H12R23315   4.191  -0.241   7.379  2.1995  0.0643  3.7675
  189DOPC  H12S23316   4.133  -0.066   7.357 -0.7552 -1.3501  0.0733
  189DOPC  C21323317   4.278  -0.098   7.509 -0.1614  0.5578 -0.0147
  189DOPC  H13R23318   4.302   0.011   7.505 -1.1364  0.7562 -3.4080
  189DOPC  H13S23319   4.384  -0.130   7.512  0.2548  1.6911 -1.5535
  189DOPC  C21423320   4.205  -0.161   7.635 -0.2004 -0.5165  0.1621
  189DOPC  H14R23321   4.186  -0.269   7.616 -2.3581  0.1376 -1.8708
  189DOPC  H14S23322   4.107  -0.109   7.635 -1.1092 -2.1296  1.2848
  189DOPC  C21523323   4.276  -0.130   7.767  0.0516  0.5925 -0.0876
  189DOPC  H15R23324   4.277  -0.021   7.788  2.5012  0.4316  0.9987
  189DOPC  H15S23325   4.383  -0.160   7.759 -0.2341 -0.6247  0.4546
  189DOPC  C21623326   4.204  -0.202   7.890  0.0743  0.2959 -0.2398
  189DOPC  H16R23327   4.200  -0.310   7.864 -2.7770  0.1911  0.3238
  189DOPC  H16S23328   4.100  -0.163   7.901 -0.0601  0.8268 -2.7731
  189DOPC  C21723329   4.275  -0.175   8.031  0.0206 -0.6419  0.2563
  189DOPC  H17R23330   4.203  -0.214   8.106 -1.0593  2.1692  0.8061
  189DOPC  H17S23331   4.281  -0.067   8.053  0.1952 -0.5846 -0.0775
  189DOPC  C21823332   4.408  -0.249   8.047  0.5935 -0.1626  0.1975
  189DOPC  H18R23333   4.395  -0.359   8.036  3.8547 -0.7430  1.1237
  189DOPC  H18S23334   4.437  -0.228   8.152 -2.0425  2.9635  0.4526
  189DOPC  H18T23335   4.493  -0.217   7.983 -0.2769  1.6099 -0.1368
  189DOPC   C3323336   4.892   0.805   7.202 -0.0046  0.4943  0.1697
  189DOPC   H3X23337   4.871   0.796   7.311 -1.8845 -0.4815 -0.2514
  189DOPC   H3Y23338   5.002   0.797   7.191  0.1658  1.4528  0.9683
  189DOPC   C3423339   4.812   0.708   7.116 -0.0703 -0.0083  0.3525
  189DOPC   H4X23340   4.847   0.719   7.011 -2.1280  2.1130 -0.1940
  189DOPC   H4Y23341   4.709   0.750   7.119 -0.7909 -1.6675  0.1201
  189DOPC   C3523342   4.808   0.563   7.166  0.8096  0.0655 -0.3539
  189DOPC   H5X23343   4.912   0.538   7.199  0.1878 -1.1231  0.7916
  189DOPC   H5Y23344   4.779   0.493   7.085  2.9577 -0.3814 -0.7971
  189DOPC   C3623345   4.710   0.539   7.286 -0.3856  0.1255  0.1003
  189DOPC   H6X23346   4.732   0.624   7.355  2.0313 -0.9842  0.8080
  189DOPC   H6Y23347   4.607   0.537   7.246 -0.0010  0.5575 -0.9582
  189DOPC   C3723348   4.741   0.408   7.356  0.9348  0.4509 -0.2285
  189DOPC   H7X23349   4.744   0.324   7.282  1.7704  0.4329 -0.1801
  189DOPC   H7Y23350   4.842   0.411   7.400  0.0299  1.4084  1.9241
  189DOPC   C3823351   4.641   0.375   7.466  0.5250 -0.3705 -0.6531
  189DOPC   H8X23352   4.607   0.465   7.522  1.8857  0.5259 -1.2173
  189DOPC   H8Y23353   4.688   0.304   7.536 -2.9868 -1.3651  0.9376
  189DOPC   C3923354   4.514   0.310   7.419  0.1286 -0.4217 -0.1695
  189DOPC   H9X23355   4.520   0.287   7.312  4.3632 -4.4301  0.5920
  189DOPC  C31023356   4.414   0.255   7.496  0.4092  0.3824 -0.5383
  189DOPC  H10X23357   4.324   0.210   7.451  0.5755  0.5320 -1.0366
  189DOPC  C31123358   4.407   0.257   7.649  0.3529  0.1559 -0.3161
  189DOPC  H11X23359   4.453   0.165   7.689 -0.0524 -0.7225 -1.8193
  189DOPC  H11Y23360   4.300   0.247   7.677  0.0484  2.8532 -0.2092
  189DOPC  C31223361   4.461   0.377   7.738 -0.3432 -0.4785  0.5320
  189DOPC  H12X23362   4.426   0.477   7.704  1.0388  0.8388  2.7441
  189DOPC  H12Y23363   4.572   0.373   7.735 -0.3765 -1.0468 -0.8333
  189DOPC  C31323364   4.422   0.374   7.886 -0.4179 -0.1783 -0.8907
  189DOPC  H13X23365   4.464   0.472   7.918  1.4057 -1.9111  2.7115
  189DOPC  H13Y23366   4.311   0.374   7.891 -0.4012 -1.5332  0.4115
  189DOPC  C31423367   4.478   0.256   7.967 -0.3414  0.0873  0.0834
  189DOPC  H14X23368   4.410   0.168   7.963 -1.8547  1.0086  2.7657
  189DOPC  H14Y23369   4.573   0.221   7.921  0.3591  0.0050  1.5483
  189DOPC  C31523370   4.510   0.308   8.110 -0.4222 -0.3009  0.1647
  189DOPC  H15X23371   4.417   0.345   8.158  0.1218 -0.6054  1.5305
  189DOPC  H15Y23372   4.588   0.388   8.112  0.2396 -0.9222 -0.4146
  189DOPC  C31623373   4.556   0.197   8.204 -0.0557  0.3902  0.7372
  189DOPC  H16X23374   4.466   0.132   8.213 -0.6272  1.2204  1.1313
  189DOPC  H16Y23375   4.641   0.140   8.161  0.2036 -0.2959  2.0714
  189DOPC  C31723376   4.594   0.249   8.344  0.4526 -0.0387  0.1141
  189DOPC  H17X23377   4.700   0.272   8.364 -0.2209  1.7941  1.9648
  189DOPC  H17Y23378   4.537   0.345   8.352 -0.9213 -0.6957 -1.2060
  189DOPC  C31823379   4.555   0.150   8.456 -0.0999  0.4495  0.1266
  189DOPC  H18X23380   4.448   0.120   8.448 -0.1936  0.6690  0.5426
  189DOPC  H18Y23381   4.617   0.058   8.465  0.7516  1.1357  1.5988
  189DOPC  H18Z23382   4.545   0.196   8.556 -2.5747  0.4946 -0.0776
  190DOPC     N23383   0.670   8.076   6.591 -0.4713 -0.1640 -0.0173
  190DOPC   C1223384   0.659   8.022   6.731 -0.4842  0.6770  0.2476
  190DOPC  H12A23385   0.737   7.948   6.746 -1.7075 -1.2378 -2.0186
  190DOPC  H12B23386   0.565   7.971   6.741  0.4458 -1.4241 -0.8929
  190DOPC   C1323387   0.539   8.125   6.546 -0.2490 -0.2722  0.3753
  190DOPC  H13A23388   0.468   8.044   6.536  0.2952 -0.9016  1.4349
  190DOPC  H13B23389   0.494   8.191   6.619  1.3357  0.6576  0.5512
  190DOPC  H13C23390   0.551   8.186   6.458 -0.8077 -2.6422 -1.4543
  190DOPC   C1423391   0.720   7.969   6.507  0.6292 -0.3619 -0.2413
  190DOPC  H14A23392   0.676   7.871   6.514 -1.4992  0.5719  0.3398
  190DOPC  H14B23393   0.718   7.993   6.402  1.2755 -0.6081 -0.3142
  190DOPC  H14C23394   0.823   7.945   6.526  0.5321 -1.3742 -0.9196
  190DOPC   C1523395   0.768   8.188   6.588  0.8639  0.0797 -0.2306
  190DOPC  H15A23396   0.727   8.273   6.642 -0.6592 -2.1890  2.4503
  190DOPC  H15B23397   0.765   8.209   6.482 -0.5027 -1.4375 -0.5228
  190DOPC  H15C23398   0.864   8.164   6.632  0.1475 -0.7224  0.9723
  190DOPC   C1123399   0.649   8.113   6.855 -0.0635  0.1809 -0.3288
  190DOPC  H11A23400   0.639   8.043   6.941 -1.2250  2.1300  1.2034
  190DOPC  H11B23401   0.733   8.180   6.884 -2.4062  1.8093  3.4715
  190DOPC     P23402   0.393   8.138   6.883  0.1868  0.1247  0.1481
  190DOPC   O1323403   0.376   7.993   6.838 -0.0194  0.0277 -0.4849
  190DOPC   O1423404   0.298   8.240   6.841  0.5480  0.3444 -0.7473
  190DOPC   O1223405   0.536   8.192   6.844  0.3314 -0.6141 -0.4447
  190DOPC   O1123406   0.391   8.136   7.045  0.2102  0.0422  0.4739
  190DOPC    C123407   0.378   8.248   7.129 -0.6459 -0.1366  0.7273
  190DOPC    HA23408   0.290   8.243   7.197  0.2430 -2.3170  1.7896
  190DOPC    HB23409   0.360   8.337   7.064 -0.2798 -0.5393  0.0662
  190DOPC    C223410   0.516   8.270   7.200 -0.3097  0.4730  0.3266
  190DOPC    HS23411   0.593   8.263   7.121 -1.2387 -1.6699 -0.4755
  190DOPC   O2123412   0.526   8.158   7.296  0.5853  0.3860 -0.3275
  190DOPC   C2123413   0.642   8.106   7.309 -0.4480 -0.2303 -0.5961
  190DOPC   O2223414   0.745   8.138   7.253  0.3080 -0.5143  0.2500
  190DOPC   C2223415   0.642   8.003   7.425 -0.0491 -0.0254  0.1647
  190DOPC   H2R23416   0.748   7.992   7.456 -0.3194 -0.9877  0.7904
  190DOPC   H2S23417   0.608   7.906   7.384 -0.5744  0.6311 -1.0090
  190DOPC    C323418   0.496   8.409   7.271  0.2833 -0.7308 -0.5624
  190DOPC    HX23419   0.406   8.392   7.334  1.1537 -2.6476  0.2613
  190DOPC    HY23420   0.465   8.492   7.204  1.2126  1.0033  1.0581
  190DOPC   O3123421   0.600   8.449   7.353  0.1540 -0.2610 -0.1482
  190DOPC   C3123422   0.706   8.497   7.290 -0.2151 -0.2514 -0.4280
  190DOPC   O3223423   0.735   8.490   7.175 -0.6315 -0.3128  0.7574
  190DOPC   C3223424   0.800   8.564   7.390 -0.5365  0.3836 -0.6644
  190DOPC   H2X23425   0.762   8.660   7.430  1.4552  0.5837  0.9118
  190DOPC   H2Y23426   0.818   8.488   7.469 -3.6142 -2.7242 -2.6658
  190DOPC   C2323427   0.563   8.047   7.549  0.7064 -0.1956 -0.3094
  190DOPC   H3R23428   0.561   7.970   7.630 -1.5751 -1.7968 -1.7592
  190DOPC   H3S23429   0.455   8.049   7.522  0.4001  0.7089  0.9016
  190DOPC   C2423430   0.606   8.181   7.607  0.1920  0.3496  0.3194
  190DOPC   H4R23431   0.525   8.228   7.667 -0.2877 -1.1961  0.9511
  190DOPC   H4S23432   0.636   8.252   7.527  0.7067 -0.4166 -0.1922
  190DOPC   C2523433   0.717   8.170   7.708 -0.1085  0.1984  0.6322
  190DOPC   H5R23434   0.770   8.086   7.659 -2.7412 -2.7495  2.4855
  190DOPC   H5S23435   0.685   8.139   7.810 -1.4048  1.0223  0.5045
  190DOPC   C2623436   0.799   8.295   7.729 -0.2347  0.2575  0.5888
  190DOPC   H6R23437   0.837   8.327   7.630 -0.5332  2.7209  1.1844
  190DOPC   H6S23438   0.890   8.265   7.786 -0.5195  0.4129  1.1338
  190DOPC   C2723439   0.731   8.419   7.793 -0.7499  0.4993  0.5684
  190DOPC   H7R23440   0.696   8.387   7.893  0.6733 -2.7067  0.1591
  190DOPC   H7S23441   0.639   8.439   7.733 -1.0811 -0.5781  0.6828
  190DOPC   C2823442   0.814   8.549   7.810  0.3599  0.0281 -0.8712
  190DOPC   H8R23443   0.748   8.631   7.845 -0.0614 -0.7740  0.2729
  190DOPC   H8S23444   0.839   8.591   7.710  0.9720  0.7440 -0.4298
  190DOPC   C2923445   0.933   8.537   7.905 -0.5192  0.4556  0.2516
  190DOPC   H9R23446   0.908   8.482   7.996 -1.7903 -2.8285 -1.8887
  190DOPC  C21023447   1.059   8.574   7.880 -0.4177 -0.2188 -0.6681
  190DOPC  H10R23448   1.134   8.575   7.960 -1.3224 -0.7877  0.2116
  190DOPC  C21123449   1.095   8.652   7.757  0.1694 -0.8209 -1.0991
  190DOPC  H11R23450   1.045   8.613   7.665 -0.6727 -1.1759 -0.4962
  190DOPC  H11S23451   1.198   8.616   7.738  0.8050  0.2549  0.1964
  190DOPC  C21223452   1.081   8.806   7.776  0.0179  0.5905 -0.7191
  190DOPC  H12R23453   0.978   8.827   7.811 -0.5828 -0.0723 -1.9895
  190DOPC  H12S23454   1.097   8.862   7.681 -0.4334  0.4416 -0.8815
  190DOPC  C21323455   1.185   8.864   7.877 -0.3809  0.0789  0.6245
  190DOPC  H13R23456   1.286   8.870   7.829  0.1606  4.6617  1.9085
  190DOPC  H13S23457   1.200   8.795   7.963  0.0565 -0.1910  0.3382
  190DOPC  C21423458   1.162   9.006   7.925  0.2078  0.8129 -1.0395
  190DOPC  H14R23459   1.249   9.023   7.991  0.5513 -0.5821 -1.1134
  190DOPC  H14S23460   1.070   9.009   7.988  0.3364  5.4247 -0.7387
  190DOPC  C21523461   1.146   9.107   7.813 -0.2306  0.9243  0.1552
  190DOPC  H15R23462   1.046   9.086   7.768  0.4346  0.7431 -1.2917
  190DOPC  H15S23463   1.227   9.096   7.738  0.2865  1.9793  0.5313
  190DOPC  C21623464   1.164   9.252   7.857  0.2919  0.2192 -0.4218
  190DOPC  H16R23465   1.270   9.258   7.893  1.1875  0.2285 -2.8629
  190DOPC  H16S23466   1.094   9.269   7.942  0.4521 -1.5310  0.0970
  190DOPC  C21723467   1.138   9.360   7.748 -0.3421 -0.0025 -0.5236
  190DOPC  H17R23468   1.135   9.461   7.795 -0.3404 -1.7059  3.5564
  190DOPC  H17S23469   1.035   9.332   7.718 -0.4408 -0.7981  0.4890
  190DOPC  C21823470   1.237   9.356   7.638 -0.8006  0.0714  0.5464
  190DOPC  H18R23471   1.231   9.431   7.556 -2.2639 -1.4360 -0.8087
  190DOPC  H18S23472   1.219   9.258   7.588  0.0350  0.0004  0.3664
  190DOPC  H18T23473   1.336   9.359   7.688 -1.4894 -2.4578  2.2653
  190DOPC   C3323474   0.942   8.593   7.331 -0.0063 -0.3094 -0.0312
  190DOPC   H3X23475   0.991   8.652   7.411 -1.6705  0.3628  0.5429
  190DOPC   H3Y23476   0.946   8.657   7.241  0.3988  1.2167  1.0368
  190DOPC   C3423477   1.031   8.466   7.304  0.8255 -0.2907 -0.4612
  190DOPC   H4X23478   0.970   8.393   7.247  2.7329 -2.5436  0.2250
  190DOPC   H4Y23479   1.061   8.412   7.396  3.1028  0.4134 -0.7182
  190DOPC   C3523480   1.154   8.490   7.222 -0.4639 -0.2885 -0.2655
  190DOPC   H5X23481   1.221   8.571   7.256  1.8467 -0.6736 -3.4300
  190DOPC   H5Y23482   1.117   8.516   7.121  0.2517 -2.0811 -1.0397
  190DOPC   C3623483   1.237   8.366   7.205  0.0267 -0.3402  0.2779
  190DOPC   H6X23484   1.177   8.274   7.189  0.1405 -1.0545  3.3412
  190DOPC   H6Y23485   1.304   8.385   7.118  1.8728 -1.4493  1.3873
  190DOPC   C3723486   1.343   8.334   7.314 -0.0723 -0.1231 -0.6061
  190DOPC   H7X23487   1.292   8.333   7.413  1.3183  0.0766  0.1311
  190DOPC   H7Y23488   1.370   8.226   7.310 -2.8207 -0.8593 -1.7235
  190DOPC   C3823489   1.459   8.427   7.304 -0.2298 -0.3692 -0.0601
  190DOPC   H8X23490   1.420   8.531   7.303 -2.4327 -1.1424  0.6923
  190DOPC   H8Y23491   1.501   8.416   7.202 -1.5604 -0.8409 -0.5724
  190DOPC   C3923492   1.564   8.410   7.411  0.3409  0.6083 -0.0246
  190DOPC   H9X23493   1.656   8.360   7.379  0.8951  0.4117  1.7589
  190DOPC  C31023494   1.570   8.459   7.535 -0.1096 -0.3959 -0.7856
  190DOPC  H10X23495   1.652   8.422   7.598  1.1792  0.2124 -2.0401
  190DOPC  C31123496   1.453   8.548   7.586 -0.6534  0.2860 -0.0022
  190DOPC  H11X23497   1.367   8.478   7.594  0.4613 -1.4327 -2.0299
  190DOPC  H11Y23498   1.423   8.620   7.506  0.3329  0.2747 -0.3879
  190DOPC  C31223499   1.476   8.615   7.724  0.2904  0.1000 -0.2361
  190DOPC  H12X23500   1.386   8.671   7.756 -1.4657 -3.2655  1.3526
  190DOPC  H12Y23501   1.564   8.682   7.726  1.0397 -0.7850 -1.7250
  190DOPC  C31323502   1.497   8.520   7.844  0.3475  0.8769 -0.1743
  190DOPC  H13X23503   1.418   8.443   7.852  0.3723  0.5040 -2.6599
  190DOPC  H13Y23504   1.582   8.455   7.817 -0.6152  0.3207 -2.0398
  190DOPC  C31423505   1.500   8.591   7.983  0.5136  0.3653 -0.1434
  190DOPC  H14X23506   1.571   8.676   7.982 -1.1623  1.8275 -1.1628
  190DOPC  H14Y23507   1.395   8.619   8.009  0.6567  0.6383  0.1474
  190DOPC  C31523508   1.534   8.491   8.096 -0.4601  0.8227  0.1485
  190DOPC  H15X23509   1.541   8.546   8.192  0.2771 -1.6865  1.6157
  190DOPC  H15Y23510   1.631   8.442   8.077 -0.8015 -0.1491  0.8640
  190DOPC  C31623511   1.428   8.376   8.110 -0.4040  1.3770  0.2411
  190DOPC  H16X23512   1.327   8.421   8.118 -1.1404 -0.2004  0.1569
  190DOPC  H16Y23513   1.437   8.319   8.015  3.8714 -0.1286  1.3374
  190DOPC  C31723514   1.446   8.277   8.229 -0.5462  0.0214  0.4351
  190DOPC  H17X23515   1.555   8.259   8.243 -0.4607 -0.4422 -0.6879
  190DOPC  H17Y23516   1.402   8.333   8.314  2.2571  1.7610  0.8673
  190DOPC  C31823517   1.384   8.141   8.202  0.5051  0.0072  0.1045
  190DOPC  H18X23518   1.370   8.087   8.298 -0.2710 -1.2345 -0.6796
  190DOPC  H18Y23519   1.281   8.151   8.162  0.4292  0.5092  0.4134
  190DOPC  H18Z23520   1.440   8.075   8.133 -1.5511  0.2957 -1.9695
  191DOPC     N23521   7.360   7.249   6.476  0.2090  0.4284 -0.2802
  191DOPC   C1223522   7.402   7.249   6.626  0.4399 -0.3311 -0.1724
  191DOPC  H12A23523   7.487   7.314   6.636  1.8081 -2.0068 -0.4672
  191DOPC  H12B23524   7.443   7.159   6.669  2.3435  1.5698  2.3122
  191DOPC   C1323525   7.247   7.155   6.453 -0.4544 -0.1443 -0.1332
  191DOPC  H13A23526   7.272   7.058   6.493  0.4197 -0.0348 -0.3998
  191DOPC  H13B23527   7.166   7.190   6.516 -1.1139 -1.6081 -0.1352
  191DOPC  H13C23528   7.215   7.160   6.350  1.4503  2.3049 -0.6896
  191DOPC   C1423529   7.476   7.212   6.394  0.1581 -0.2368 -0.1465
  191DOPC  H14A23530   7.498   7.109   6.418 -0.6059 -0.9730 -2.2874
  191DOPC  H14B23531   7.455   7.222   6.288  1.4315  0.0953 -0.3791
  191DOPC  H14C23532   7.559   7.280   6.404 -0.4659  0.5697 -0.2924
  191DOPC   C1523533   7.314   7.385   6.429  0.6540  0.5180  0.0730
  191DOPC  H15A23534   7.268   7.383   6.331  0.4053 -0.1125  0.1995
  191DOPC  H15B23535   7.395   7.456   6.439  2.0926 -1.1021  0.4881
  191DOPC  H15C23536   7.234   7.415   6.496 -0.9336 -0.3302 -1.3771
  191DOPC   C1123537   7.296   7.297   6.727  0.0634 -0.8890  0.0674
  191DOPC  H11A23538   7.202   7.238   6.720  0.1013 -0.7715 -2.4618
  191DOPC  H11B23539   7.336   7.287   6.830  2.8847  0.4746 -0.7864
  191DOPC     P23540   7.351   7.564   6.737  0.4020 -0.3824  0.4630
  191DOPC   O1323541   7.313   7.656   6.628 -0.5086  0.0408 -0.6607
  191DOPC   O1423542   7.490   7.517   6.735 -0.1407  0.1559 -0.2344
  191DOPC   O1223543   7.254   7.440   6.716 -0.4352 -0.2352 -0.2795
  191DOPC   O1123544   7.320   7.635   6.875  0.0506 -0.5676 -0.2768
  191DOPC    C123545   7.185   7.673   6.909 -0.3189 -0.0087 -1.0131
  191DOPC    HA23546   7.105   7.602   6.879 -0.0638 -0.5240 -0.5037
  191DOPC    HB23547   7.174   7.776   6.869  2.0456  0.6614 -0.1501
  191DOPC    C223548   7.172   7.684   7.062  0.3760  1.0567 -0.3414
  191DOPC    HS23549   7.260   7.730   7.112 -1.1565  0.1123  3.7062
  191DOPC   O2123550   7.144   7.554   7.123  0.2127 -0.2349 -0.7334
  191DOPC   C2123551   7.254   7.479   7.141  0.6388 -0.3026 -0.0359
  191DOPC   O2223552   7.368   7.516   7.139  0.3006 -0.2164 -0.4447
  191DOPC   C2223553   7.200   7.335   7.151 -0.8520  0.3249  0.0320
  191DOPC   H2R23554   7.145   7.324   7.055 -0.8780  0.1185  0.0699
  191DOPC   H2S23555   7.150   7.324   7.249  1.5143 -1.9290  1.1271
  191DOPC    C323556   7.042   7.765   7.089 -0.0520  0.2731 -0.1638
  191DOPC    HX23557   7.007   7.748   7.193  0.6786 -0.3333 -0.0038
  191DOPC    HY23558   6.966   7.718   7.023  0.9230 -0.3822 -0.8549
  191DOPC   O3123559   7.056   7.908   7.069 -0.5222  0.8774 -0.2859
  191DOPC   C3123560   6.984   7.977   6.988  0.0539  0.2310 -0.3044
  191DOPC   O3223561   6.900   7.928   6.915 -0.9232  0.0796 -0.1062
  191DOPC   C3223562   7.001   8.130   6.990  0.1054 -0.1704  0.0343
  191DOPC   H2X23563   7.109   8.146   7.010  0.2700  0.8111 -1.5283
  191DOPC   H2Y23564   6.996   8.177   6.890 -0.1876 -1.8831 -0.7975
  191DOPC   C2323565   7.308   7.222   7.158 -0.2800  0.6985  0.0915
  191DOPC   H3R23566   7.366   7.226   7.252 -1.3494 -1.3695  0.9069
  191DOPC   H3S23567   7.380   7.229   7.073 -2.7813 -1.4242 -2.4287
  191DOPC   C2423568   7.240   7.081   7.154 -0.1311 -0.6817  0.9886
  191DOPC   H4R23569   7.191   7.077   7.055  1.3060  1.3881  0.1129
  191DOPC   H4S23570   7.161   7.068   7.230 -0.4171  0.1695  0.8497
  191DOPC   C2523571   7.347   6.970   7.155 -0.2621 -0.0093 -0.0891
  191DOPC   H5R23572   7.407   6.984   7.063 -2.1687  0.7450 -1.2768
  191DOPC   H5S23573   7.300   6.870   7.144  0.6470 -0.9923  3.6329
  191DOPC   C2623574   7.431   6.966   7.282  0.2089 -0.2873  0.2358
  191DOPC   H6R23575   7.506   7.046   7.300 -0.9709  0.2000  3.9476
  191DOPC   H6S23576   7.496   6.876   7.276  0.9704  0.1875  1.0898
  191DOPC   C2723577   7.350   6.943   7.418 -0.0438  0.0514 -0.2344
  191DOPC   H7R23578   7.279   6.858   7.410 -1.6610  1.3165  0.1771
  191DOPC   H7S23579   7.272   7.021   7.434 -0.6022 -0.3455 -0.9613
  191DOPC   C2823580   7.438   6.937   7.545  0.7845 -0.4605 -0.0388
  191DOPC   H8R23581   7.493   7.033   7.533  0.5106 -0.3901 -0.8236
  191DOPC   H8S23582   7.500   6.848   7.521  0.4763 -1.0207  1.2002
  191DOPC   C2923583   7.357   6.940   7.677  0.9721 -0.4066 -0.2882
  191DOPC   H9R23584   7.378   6.857   7.745  0.7509 -1.0014 -0.9386
  191DOPC  C21023585   7.299   7.052   7.726  0.0159 -0.6722  0.5879
  191DOPC  H10R23586   7.261   7.054   7.829 -0.2929  0.2329  0.4746
  191DOPC  C21123587   7.302   7.194   7.662 -0.0757  0.0822  0.1306
  191DOPC  H11R23588   7.364   7.196   7.569 -0.4810  0.4399 -0.1350
  191DOPC  H11S23589   7.365   7.250   7.735  0.4865 -1.1569  0.6194
  191DOPC  C21223590   7.168   7.267   7.631  0.0958 -0.1098  0.5186
  191DOPC  H12R23591   7.119   7.285   7.729 -0.8287 -0.3604  0.1206
  191DOPC  H12S23592   7.096   7.203   7.575  1.1358 -2.3845  1.6863
  191DOPC  C21323593   7.191   7.393   7.548  0.1989 -0.8155  0.2010
  191DOPC  H13R23594   7.240   7.365   7.452  1.7055  2.6906 -0.2157
  191DOPC  H13S23595   7.255   7.469   7.599  0.5480 -0.1681 -1.1698
  191DOPC  C21423596   7.067   7.476   7.521  0.0931  0.1049 -0.0778
  191DOPC  H14R23597   6.987   7.412   7.478 -0.9639  1.8545 -0.8144
  191DOPC  H14S23598   7.087   7.553   7.443  3.8326  0.1227  0.7144
  191DOPC  C21523599   7.006   7.541   7.645  0.0911 -0.1786 -0.6477
  191DOPC  H15R23600   7.083   7.606   7.691  0.2543 -0.4167 -0.5815
  191DOPC  H15S23601   6.991   7.463   7.723  2.0634  0.3748  0.3429
  191DOPC  C21623602   6.872   7.623   7.628 -0.2324  0.2745 -0.3592
  191DOPC  H16R23603   6.792   7.553   7.596  1.7994 -2.1263 -0.5457
  191DOPC  H16S23604   6.884   7.708   7.558 -0.3554  0.4880 -0.1218
  191DOPC  C21723605   6.831   7.691   7.761 -0.3372  0.4511 -0.8336
  191DOPC  H17R23606   6.920   7.742   7.803  0.1587  1.1561 -2.6463
  191DOPC  H17S23607   6.802   7.609   7.829 -0.3913 -0.5435 -2.0337
  191DOPC  C21823608   6.719   7.796   7.756  0.2351 -1.2972 -0.2191
  191DOPC  H18R23609   6.721   7.871   7.839 -0.8693 -0.6337 -0.7681
  191DOPC  H18S23610   6.620   7.746   7.756 -0.7094  0.4569 -1.8850
  191DOPC  H18T23611   6.734   7.854   7.662 -1.4735  1.4580  1.0749
  191DOPC   C3323612   6.924   8.207   7.107 -0.0566  0.3964  0.0562
  191DOPC   H3X23613   6.952   8.141   7.192 -0.0297 -0.8957 -0.9140
  191DOPC   H3Y23614   6.815   8.198   7.091 -0.1306  0.5474  0.4766
  191DOPC   C3423615   6.949   8.356   7.118 -0.3251 -0.7125 -0.5665
  191DOPC   H4X23616   6.958   8.396   7.015  1.7006 -1.6583 -0.8090
  191DOPC   H4Y23617   7.045   8.378   7.169 -1.5483  0.9158  1.1703
  191DOPC   C3523618   6.843   8.443   7.191 -0.1481  0.9269 -0.0720
  191DOPC   H5X23619   6.752   8.440   7.128  0.2849  0.4901 -0.6916
  191DOPC   H5Y23620   6.879   8.547   7.200  2.2945  0.2307 -0.9981
  191DOPC   C3623621   6.809   8.394   7.331  0.1070  0.1791 -0.3721
  191DOPC   H6X23622   6.733   8.463   7.374  0.6817  0.1263  0.7623
  191DOPC   H6Y23623   6.766   8.292   7.329  2.9464 -1.1347 -2.7180
  191DOPC   C3723624   6.932   8.382   7.426  0.0560 -0.7611  0.5753
  191DOPC   H7X23625   6.991   8.294   7.393  0.2508 -0.4406  0.0575
  191DOPC   H7Y23626   6.998   8.472   7.428 -1.8278  0.7591 -1.1977
  191DOPC   C3823627   6.890   8.356   7.568  0.7891 -0.4742 -0.0739
  191DOPC   H8X23628   6.803   8.420   7.595  3.1416  2.3281  1.3984
  191DOPC   H8Y23629   6.972   8.380   7.640 -0.1130 -0.6202  1.0338
  191DOPC   C3923630   6.850   8.209   7.587 -0.2267  0.2614 -0.3889
  191DOPC   H9X23631   6.789   8.173   7.503  1.2241 -0.3079 -1.2408
  191DOPC  C31023632   6.903   8.127   7.682 -0.4232  0.0443 -1.3161
  191DOPC  H10X23633   6.889   8.019   7.669  2.7393 -0.9718  2.0908
  191DOPC  C31123634   6.984   8.170   7.804  0.2406  0.5503 -0.2861
  191DOPC  H11X23635   6.959   8.274   7.832  0.5746  0.0154  2.2090
  191DOPC  H11Y23636   7.094   8.157   7.792  0.1377 -0.1601 -0.5186
  191DOPC  C31223637   6.966   8.071   7.924 -0.8580 -0.5754 -0.1096
  191DOPC  H12X23638   6.985   7.967   7.889  1.1393 -0.2052 -0.2361
  191DOPC  H12Y23639   6.860   8.077   7.957 -0.5184  1.8179  0.7241
  191DOPC  C31323640   7.074   8.087   8.031 -0.0470 -0.0557  0.2946
  191DOPC  H13X23641   7.063   8.010   8.110  0.2722 -1.6863 -1.2000
  191DOPC  H13Y23642   7.164   8.055   7.974 -0.9024 -1.9568 -0.0628
  191DOPC  C31423643   7.074   8.229   8.090  0.6113  0.4926 -0.1560
  191DOPC  H14X23644   7.091   8.298   8.004 -0.6385  2.6920  1.2776
  191DOPC  H14Y23645   6.967   8.239   8.117  0.2678 -3.3227  0.3291
  191DOPC  C31523646   7.179   8.262   8.199 -1.2597  0.1406  0.8740
  191DOPC  H15X23647   7.168   8.191   8.284  0.4350  0.3732  1.3107
  191DOPC  H15Y23648   7.167   8.368   8.230 -3.4139  0.6884 -1.4782
  191DOPC  C31623649   7.323   8.241   8.134 -0.3068 -0.0043 -0.7180
  191DOPC  H16X23650   7.355   8.135   8.128 -0.5908 -0.1155 -0.2914
  191DOPC  H16Y23651   7.315   8.289   8.034 -0.5700 -0.5941 -0.9838
  191DOPC  C31723652   7.427   8.313   8.216 -0.2036 -0.2565 -0.0219
  191DOPC  H17X23653   7.419   8.421   8.192 -1.9885 -0.1990  0.6834
  191DOPC  H17Y23654   7.400   8.317   8.323 -0.5297  0.4473 -0.1287
  191DOPC  C31823655   7.573   8.262   8.200 -0.2307 -0.2361 -0.0923
  191DOPC  H18X23656   7.652   8.335   8.228  1.3601 -2.2237  0.9199
  191DOPC  H18Y23657   7.584   8.178   8.271 -0.6698  1.1539  1.6891
  191DOPC  H18Z23658   7.588   8.220   8.098 -2.4628  0.1387 -0.6251
  192DOPC     N23659   1.439   5.902   6.595  0.5698  0.3538 -0.1507
  192DOPC   C1223660   1.361   5.905   6.466  0.4324 -0.0420 -0.5101
  192DOPC  H12A23661   1.340   5.803   6.438  2.3634 -0.3152 -1.1246
  192DOPC  H12B23662   1.430   5.941   6.391  2.3292 -0.9264  0.7539
  192DOPC   C1323663   1.342   5.868   6.707 -1.0992 -0.5679  0.2842
  192DOPC  H13A23664   1.302   5.769   6.692 -0.1550 -0.9070 -0.0655
  192DOPC  H13B23665   1.382   5.863   6.807 -1.1852 -0.0820  0.3467
  192DOPC  H13C23666   1.256   5.934   6.714 -1.7107 -1.2561 -0.5196
  192DOPC   C1423667   1.501   6.031   6.630 -0.3250 -0.0941  0.6229
  192DOPC  H14A23668   1.564   6.068   6.551 -1.5164 -1.4085 -1.0144
  192DOPC  H14B23669   1.430   6.109   6.655 -1.9385 -1.6262  1.0631
  192DOPC  H14C23670   1.562   6.023   6.718  0.3525  1.3879  0.3123
  192DOPC   C1523671   1.544   5.792   6.589  0.0325  0.4700 -0.7606
  192DOPC  H15A23672   1.613   5.790   6.671 -1.3271  1.1421  0.4540
  192DOPC  H15B23673   1.604   5.814   6.502 -3.1255  0.6250 -3.1006
  192DOPC  H15C23674   1.506   5.691   6.580  0.9361 -0.0397  0.8329
  192DOPC   C1123675   1.236   5.988   6.470  0.7428 -0.2659 -0.5435
  192DOPC  H11A23676   1.163   5.974   6.387 -0.1217  0.7056  0.0390
  192DOPC  H11B23677   1.160   5.980   6.550 -0.9583 -0.3394 -2.0965
  192DOPC     P23678   1.219   6.243   6.398 -0.0317  0.1878  0.0314
  192DOPC   O1323679   1.148   6.200   6.277  0.1182  0.1649 -0.1088
  192DOPC   O1423680   1.323   6.353   6.384  0.7357 -0.1416  0.1161
  192DOPC   O1223681   1.288   6.122   6.466  0.2069 -0.4855 -0.3874
  192DOPC   O1123682   1.109   6.298   6.500  0.1349  0.3182  0.4159
  192DOPC    C123683   1.053   6.226   6.612 -0.3361 -0.3594  0.2559
  192DOPC    HA23684   1.137   6.185   6.673 -1.0378 -2.7834 -0.2700
  192DOPC    HB23685   1.000   6.135   6.576  0.7264 -0.4666 -1.1462
  192DOPC    C223686   0.965   6.320   6.698  0.9285 -0.3782 -0.3356
  192DOPC    HS23687   0.864   6.328   6.651 -0.3340  0.4127  2.3058
  192DOPC   O2123688   1.025   6.453   6.722 -0.0577  0.5685 -0.0417
  192DOPC   C2123689   0.942   6.541   6.765  0.6072 -0.0623 -0.9294
  192DOPC   O2223690   0.819   6.518   6.775 -0.6985 -0.1656  0.6350
  192DOPC   C2223691   0.996   6.683   6.789  0.1541 -0.2362  0.7902
  192DOPC   H2R23692   0.913   6.751   6.759  0.4142 -0.5295 -0.6702
  192DOPC   H2S23693   1.076   6.705   6.715 -0.9985 -1.2824 -0.8423
  192DOPC    C323694   0.921   6.249   6.837 -0.1215 -0.5447  0.3928
  192DOPC    HX23695   0.883   6.146   6.820 -0.2968 -0.2876 -0.8654
  192DOPC    HY23696   0.834   6.298   6.884  0.0037 -1.6669  1.8701
  192DOPC   O3123697   1.017   6.265   6.948  0.4504  0.2635 -0.1384
  192DOPC   C3123698   1.103   6.165   6.969  0.8456 -0.0305  0.0873
  192DOPC   O3223699   1.117   6.071   6.894  0.0492  0.4328 -0.5152
  192DOPC   C3223700   1.153   6.188   7.113  0.4145 -0.0950  0.2656
  192DOPC   H2X23701   1.166   6.297   7.126 -0.1309  0.2506 -1.7744
  192DOPC   H2Y23702   1.080   6.149   7.187 -0.5704  1.0858 -0.0592
  192DOPC   C2323703   1.031   6.716   6.932  0.0245 -0.4693 -0.8569
  192DOPC   H3R23704   0.972   6.679   7.020 -0.3764 -0.0383 -0.9419
  192DOPC   H3S23705   1.018   6.825   6.946 -1.7317 -0.7314 -0.0623
  192DOPC   C2423706   1.175   6.672   6.975  0.1776  0.0796  0.1276
  192DOPC   H4R23707   1.247   6.695   6.893  1.8182  0.7969  1.6963
  192DOPC   H4S23708   1.172   6.563   6.991 -2.8844  0.0799  0.0599
  192DOPC   C2523709   1.215   6.732   7.104 -0.2800 -0.0817 -0.4331
  192DOPC   H5R23710   1.142   6.697   7.179 -1.8549 -0.6825 -2.1590
  192DOPC   H5S23711   1.195   6.841   7.101  0.2599  0.2134  3.1270
  192DOPC   C2623712   1.362   6.692   7.149  0.3297 -0.5308 -0.1323
  192DOPC   H6R23713   1.430   6.750   7.082 -0.7088 -0.7040 -1.3878
  192DOPC   H6S23714   1.376   6.586   7.121 -1.4562 -0.1259 -3.0003
  192DOPC   C2723715   1.391   6.741   7.290  0.4050 -0.4751  0.7760
  192DOPC   H7R23716   1.333   6.670   7.354 -0.7410 -0.9495 -0.7328
  192DOPC   H7S23717   1.357   6.845   7.306 -1.4109 -0.8444 -0.3837
  192DOPC   C2823718   1.536   6.743   7.330 -0.1803  0.3570  0.1028
  192DOPC   H8R23719   1.535   6.772   7.438 -2.4480  2.6798 -0.4243
  192DOPC   H8S23720   1.588   6.825   7.276  0.7247 -0.5823 -0.4923
  192DOPC   C2923721   1.606   6.607   7.307  0.6088  0.6694 -0.7027
  192DOPC   H9R23722   1.603   6.569   7.204  0.1363  1.0534 -0.8378
  192DOPC  C21023723   1.648   6.522   7.405 -0.8967  0.1052 -0.3480
  192DOPC  H10R23724   1.693   6.430   7.367 -1.8712 -0.4873 -0.1041
  192DOPC  C21123725   1.628   6.537   7.556  0.4218 -0.2085  0.3034
  192DOPC  H11R23726   1.623   6.646   7.575 -0.9074 -0.0560 -0.8046
  192DOPC  H11S23727   1.716   6.495   7.609  0.6159 -2.2957 -1.5187
  192DOPC  C21223728   1.501   6.472   7.617  0.4539 -0.3520  0.2490
  192DOPC  H12R23729   1.511   6.361   7.610  2.2559 -0.1730 -0.7834
  192DOPC  H12S23730   1.409   6.504   7.565 -0.3503 -1.8760  0.6767
  192DOPC  C21323731   1.481   6.500   7.763 -0.5244 -0.6387 -0.0121
  192DOPC  H13R23732   1.444   6.605   7.769  1.5393  0.0558  2.9567
  192DOPC  H13S23733   1.583   6.497   7.808 -0.1724  1.5360 -0.5494
  192DOPC  C21423734   1.380   6.408   7.840 -1.0874 -0.0055  0.0390
  192DOPC  H14R23735   1.416   6.304   7.827  0.8406  0.7290 -0.8030
  192DOPC  H14S23736   1.275   6.415   7.805 -1.7798 -2.4181  1.4492
  192DOPC  C21523737   1.386   6.426   7.993 -0.2655  0.0937 -0.2881
  192DOPC  H15R23738   1.487   6.390   8.023  1.0026 -0.7352 -4.7466
  192DOPC  H15S23739   1.312   6.369   8.053  0.3851  0.1109  0.5551
  192DOPC  C21623740   1.379   6.573   8.038 -0.2169  0.4569  0.2215
  192DOPC  H16R23741   1.286   6.611   7.989 -0.9177 -0.8837  0.4650
  192DOPC  H16S23742   1.471   6.633   8.018  1.2148 -1.4914  0.7269
  192DOPC  C21723743   1.352   6.587   8.186  0.3848  0.1372  0.1372
  192DOPC  H17R23744   1.249   6.547   8.203  1.1324 -2.4072 -0.7521
  192DOPC  H17S23745   1.360   6.693   8.215  0.5330 -0.6970  3.5487
  192DOPC  C21823746   1.446   6.503   8.281 -0.0060 -0.8539 -0.3779
  192DOPC  H18R23747   1.546   6.548   8.269  0.9646 -2.9005 -0.3797
  192DOPC  H18S23748   1.447   6.395   8.255  0.5937 -0.7019 -0.9755
  192DOPC  H18T23749   1.398   6.509   8.382 -0.8037 -0.8941 -0.7446
  192DOPC   C3323750   1.287   6.131   7.142 -0.3555 -0.4723  0.6317
  192DOPC   H3X23751   1.365   6.146   7.064 -1.3184 -1.4697 -0.5515
  192DOPC   H3Y23752   1.268   6.021   7.146 -0.4248 -0.7092 -3.0203
  192DOPC   C3423753   1.342   6.181   7.277  0.4083 -0.6088  0.0650
  192DOPC   H4X23754   1.350   6.291   7.288  2.0827 -0.5920 -0.9885
  192DOPC   H4Y23755   1.445   6.141   7.287 -0.3323 -2.6164  0.2005
  192DOPC   C3523756   1.250   6.131   7.387  0.2931  0.6657  0.3459
  192DOPC   H5X23757   1.237   6.025   7.356  1.8465  1.0505 -1.8605
  192DOPC   H5Y23758   1.148   6.174   7.397  0.6700  1.7380 -0.2647
  192DOPC   C3623759   1.317   6.133   7.529 -0.5392 -0.2016 -0.3184
  192DOPC   H6X23760   1.420   6.092   7.521 -0.5729 -0.3141 -0.1750
  192DOPC   H6Y23761   1.331   6.234   7.572  0.6710 -0.8359  0.8532
  192DOPC   C3723762   1.246   6.047   7.623  0.7292  0.6493  0.0506
  192DOPC   H7X23763   1.209   5.954   7.574 -0.8002 -0.6275  3.3190
  192DOPC   H7Y23764   1.308   6.018   7.711  0.9486  1.8456  0.3084
  192DOPC   C3823765   1.126   6.129   7.689 -0.3964  0.2700 -0.4110
  192DOPC   H8X23766   1.057   6.150   7.605 -2.1403 -2.1680  0.3153
  192DOPC   H8Y23767   1.169   6.224   7.729  0.6029 -0.5956  0.6353
  192DOPC   C3923768   1.042   6.055   7.794 -0.2737  0.1994  0.2747
  192DOPC   H9X23769   1.106   5.995   7.861 -0.3426  0.6321  0.7376
  192DOPC  C31023770   0.905   6.053   7.819  0.1685  0.2820  0.2201
  192DOPC  H10X23771   0.873   5.983   7.897 -0.0201  0.7290  0.5449
  192DOPC  C31123772   0.800   6.120   7.738  0.0538 -0.1777 -0.1735
  192DOPC  H11X23773   0.714   6.051   7.727 -0.3766  0.3807 -0.3535
  192DOPC  H11Y23774   0.841   6.149   7.639 -0.3996  1.9569  0.2089
  192DOPC  C31223775   0.723   6.241   7.808 -0.2772  0.1711  0.4124
  192DOPC  H12X23776   0.792   6.308   7.864  2.0278 -2.3184  0.7999
  192DOPC  H12Y23777   0.679   6.185   7.894  1.3082 -1.5188  0.1977
  192DOPC  C31323778   0.632   6.319   7.715  0.2209 -0.6523 -0.2330
  192DOPC  H13X23779   0.688   6.354   7.625  0.1827  2.4823  0.8440
  192DOPC  H13Y23780   0.554   6.251   7.677  1.3320 -0.2650 -3.5827
  192DOPC  C31423781   0.587   6.441   7.795 -0.0743 -0.2665 -0.3488
  192DOPC  H14X23782   0.676   6.492   7.838 -0.8816  0.2554  0.7658
  192DOPC  H14Y23783   0.547   6.512   7.719  1.8304 -2.0360 -3.1850
  192DOPC  C31523784   0.484   6.402   7.902  0.4598  0.4809  0.1112
  192DOPC  H15X23785   0.532   6.349   7.987  1.7358  2.0493  0.4161
  192DOPC  H15Y23786   0.421   6.325   7.852  3.6341 -0.6980 -2.3599
  192DOPC  C31623787   0.392   6.514   7.953  0.3484 -0.9177 -0.0256
  192DOPC  H16X23788   0.459   6.594   7.989 -0.1748 -0.7542  0.6061
  192DOPC  H16Y23789   0.324   6.535   7.868 -2.6860 -1.2390  2.1604
  192DOPC  C31723790   0.294   6.483   8.064 -0.3570 -0.5932 -0.3960
  192DOPC  H17X23791   0.234   6.392   8.043 -0.4539 -0.9106  1.1699
  192DOPC  H17Y23792   0.348   6.471   8.160 -1.6021  2.8085  0.9150
  192DOPC  C31823793   0.201   6.601   8.087 -0.6267  0.2992  0.4259
  192DOPC  H18X23794   0.134   6.584   8.173  0.3402 -3.1911  0.6265
  192DOPC  H18Y23795   0.258   6.693   8.111  0.5828  0.0207 -1.1684
  192DOPC  H18Z23796   0.140   6.618   7.995 -2.4586 -3.7014  0.6937
  193DOPC     N23797   9.087   0.990   6.561 -0.2186 -0.0792  0.2184
  193DOPC   C1223798   9.031   1.128   6.541 -0.2765  0.0598 -0.4485
  193DOPC  H12A23799   8.924   1.123   6.555 -0.2018 -0.0846  0.1389
  193DOPC  H12B23800   9.036   1.150   6.436  0.1964  0.6512 -0.3045
  193DOPC   C1323801   9.094   0.964   6.709 -0.5456  0.3770  0.1652
  193DOPC  H13A23802   9.002   0.983   6.763  0.2465  1.2258  1.2564
  193DOPC  H13B23803   9.117   0.860   6.723 -0.0111  0.1633 -2.0013
  193DOPC  H13C23804   9.176   1.017   6.754  1.6430  1.4248 -4.4982
  193DOPC   C1423805   9.207   0.966   6.485 -0.3166 -0.8192 -0.4224
  193DOPC  H14A23806   9.262   0.875   6.505  0.2427 -0.6259 -1.0571
  193DOPC  H14B23807   9.197   0.979   6.379 -0.8996  1.0328 -0.1792
  193DOPC  H14C23808   9.283   1.038   6.513  0.8733 -0.6611 -3.6525
  193DOPC   C1523809   8.986   0.895   6.498 -0.7338  0.2556 -0.0396
  193DOPC  H15A23810   8.940   0.923   6.405 -1.9573 -0.0391  0.4607
  193DOPC  H15B23811   8.903   0.874   6.564 -1.6214 -1.2306 -1.5804
  193DOPC  H15C23812   9.044   0.805   6.483 -1.8511 -0.6147  0.7595
  193DOPC   C1123813   9.099   1.250   6.618  0.0912  0.4060 -0.6525
  193DOPC  H11A23814   9.209   1.239   6.612  0.4345  1.0738  2.5541
  193DOPC  H11B23815   9.080   1.347   6.566  1.5519  0.5973 -0.8716
  193DOPC     P23816   8.910   1.302   6.785  0.1315  0.2795  0.4468
  193DOPC   O1323817   8.811   1.230   6.697 -0.3244  0.2417 -0.0485
  193DOPC   O1423818   8.907   1.447   6.779 -0.1202  0.1300  0.3770
  193DOPC   O1223819   9.059   1.250   6.754  0.0078 -0.7504  0.2204
  193DOPC   O1123820   8.881   1.265   6.939 -0.0265 -0.2309 -0.4550
  193DOPC    C123821   8.965   1.174   7.008 -0.1622 -0.1059 -0.1144
  193DOPC    HA23822   9.073   1.200   7.004 -0.4013  0.7877 -1.4425
  193DOPC    HB23823   8.958   1.072   6.963  1.2288  0.1972 -1.0871
  193DOPC    C223824   8.919   1.154   7.163  0.4391  0.3138  0.6196
  193DOPC    HS23825   8.972   1.060   7.192  4.2300  1.7253 -1.0137
  193DOPC   O2123826   8.774   1.143   7.162  0.3538 -0.7004 -0.2346
  193DOPC   C2123827   8.728   1.027   7.127  0.8391  0.0299 -0.1002
  193DOPC   O2223828   8.797   0.936   7.075  0.3782 -0.1539 -0.2751
  193DOPC   C2223829   8.579   1.024   7.158 -0.1040 -0.2841  0.1328
  193DOPC   H2R23830   8.527   1.011   7.061 -0.3773  0.2366  0.2069
  193DOPC   H2S23831   8.541   1.120   7.199 -0.0493 -0.1386 -0.1539
  193DOPC    C323832   8.961   1.281   7.246 -0.1662  0.9988  0.4079
  193DOPC    HX23833   8.917   1.271   7.347 -0.1172  0.3552  0.3697
  193DOPC    HY23834   8.922   1.369   7.190 -1.3522  1.0573  1.2972
  193DOPC   O3123835   9.103   1.288   7.247  0.0353  0.5017  0.3674
  193DOPC   C3123836   9.166   1.336   7.356  0.4746 -1.3347 -0.0384
  193DOPC   O3223837   9.114   1.375   7.459 -0.3127 -0.0575  0.4358
  193DOPC   C3223838   9.321   1.328   7.338  0.8254 -0.0316  0.7517
  193DOPC   H2X23839   9.344   1.315   7.446  0.4786  0.6078  0.9062
  193DOPC   H2Y23840   9.349   1.237   7.281 -1.6117 -0.9421  0.8762
  193DOPC   C2323841   8.521   0.911   7.238  0.7210 -0.1085 -0.2073
  193DOPC   H3R23842   8.554   0.814   7.195  1.9171 -0.6127  1.7172
  193DOPC   H3S23843   8.410   0.914   7.233  0.5371 -0.2887  2.3967
  193DOPC   C2423844   8.540   0.921   7.392  0.1539  0.0687  0.0655
  193DOPC   H4R23845   8.468   0.851   7.441  0.0866 -0.4700 -0.7802
  193DOPC   H4S23846   8.513   1.025   7.418 -2.0183 -1.0426  2.7029
  193DOPC   C2523847   8.681   0.888   7.443  0.1579  0.6935  0.2242
  193DOPC   H5R23848   8.759   0.953   7.399 -0.6039 -0.3150 -2.8731
  193DOPC   H5S23849   8.701   0.783   7.412  0.6328  1.4442 -2.2929
  193DOPC   C2623850   8.688   0.872   7.594  0.3047 -0.1997 -0.6926
  193DOPC   H6R23851   8.795   0.843   7.608 -0.2686 -1.5542  1.2464
  193DOPC   H6S23852   8.620   0.793   7.631  1.2249 -0.1972  1.1203
  193DOPC   C2723853   8.650   1.005   7.665  0.6301  1.1367  0.5963
  193DOPC   H7R23854   8.643   0.985   7.774 -1.7511  1.8914  0.6387
  193DOPC   H7S23855   8.545   1.036   7.644  1.0588  2.2567 -0.0250
  193DOPC   C2823856   8.736   1.121   7.629  0.2893 -0.4274  1.1097
  193DOPC   H8R23857   8.725   1.136   7.519  1.6318  1.1059  1.1517
  193DOPC   H8S23858   8.842   1.088   7.637  0.8993  1.5340  1.4860
  193DOPC   C2923859   8.714   1.241   7.712 -0.0712  0.4672 -0.1224
  193DOPC   H9R23860   8.624   1.300   7.687 -0.3420 -0.5677 -1.6974
  193DOPC  C21023861   8.790   1.280   7.814 -0.4200 -0.3335  0.4870
  193DOPC  H10R23862   8.763   1.369   7.873  2.7793  0.0488  1.5649
  193DOPC  C21123863   8.908   1.205   7.874 -0.1540  0.0806  0.3226
  193DOPC  H11R23864   8.999   1.269   7.873  0.2306 -0.4717 -0.4653
  193DOPC  H11S23865   8.930   1.111   7.820 -0.0040 -0.1175  0.7195
  193DOPC  C21223866   8.876   1.162   8.016  0.2061 -0.2285  0.0170
  193DOPC  H12R23867   8.780   1.106   8.020  0.5921 -0.8630  0.7390
  193DOPC  H12S23868   8.869   1.252   8.080  2.0002  0.5107 -0.7699
  193DOPC  C21323869   8.986   1.072   8.081  0.6701  0.4567 -0.2432
  193DOPC  H13R23870   9.080   1.131   8.082  1.3318 -0.5806  0.1925
  193DOPC  H13S23871   8.997   0.976   8.027 -0.0433  0.8547 -1.1195
  193DOPC  C21423872   8.958   1.041   8.228 -0.2611  0.2143  0.4014
  193DOPC  H14R23873   8.878   0.965   8.237 -0.2063 -0.0503 -1.1363
  193DOPC  H14S23874   8.910   1.135   8.264 -0.5505 -0.0347  0.6760
  193DOPC  C21523875   9.082   1.016   8.315 -0.1149  0.1687  0.3144
  193DOPC  H15R23876   9.148   1.103   8.295  0.4751 -0.0657  1.2045
  193DOPC  H15S23877   9.132   0.924   8.276 -0.5838 -1.1272  2.6290
  193DOPC  C21623878   9.057   1.005   8.468  0.0632  0.1836  0.2266
  193DOPC  H16R23879   9.149   0.967   8.518 -1.0260 -0.5831  1.7255
  193DOPC  H16S23880   8.972   0.937   8.487  1.2079 -0.9427  1.4990
  193DOPC  C21723881   9.032   1.143   8.530  0.1073  0.2163 -0.2286
  193DOPC  H17R23882   8.938   1.177   8.481 -1.0735 -0.1641  1.6601
  193DOPC  H17S23883   9.108   1.212   8.488  0.8644 -0.0398  0.6774
  193DOPC  C21823884   9.013   1.158   8.685  0.1706 -0.3849 -0.0716
  193DOPC  H18R23885   9.009   1.268   8.698  1.5201 -0.2069 -0.8896
  193DOPC  H18S23886   9.113   1.125   8.722  1.6037  1.6614 -1.8332
  193DOPC  H18T23887   8.936   1.097   8.735 -0.3824 -1.1937 -1.8284
  193DOPC   C3323888   9.381   1.450   7.273 -0.0893  0.0215  0.5383
  193DOPC   H3X23889   9.316   1.498   7.198  0.0704  1.0583  1.0431
  193DOPC   H3Y23890   9.484   1.428   7.239  0.6999 -1.4093  3.4562
  193DOPC   C3423891   9.408   1.557   7.375 -0.3258 -0.1739  0.0289
  193DOPC   H4X23892   9.474   1.531   7.461 -0.3985 -2.0823 -0.4323
  193DOPC   H4Y23893   9.311   1.579   7.423 -0.3319 -0.1368 -0.0012
  193DOPC   C3523894   9.465   1.681   7.316 -0.2050  0.5482  0.3848
  193DOPC   H5X23895   9.384   1.727   7.255 -0.4329 -0.9696 -0.5030
  193DOPC   H5Y23896   9.552   1.655   7.252 -0.4759  1.6534 -0.4753
  193DOPC   C3623897   9.508   1.790   7.419 -0.0390  0.8682 -0.0133
  193DOPC   H6X23898   9.593   1.759   7.484  1.0711  1.8111 -0.9747
  193DOPC   H6Y23899   9.557   1.875   7.367  0.3043  0.2903 -0.6463
  193DOPC   C3723900   9.409   1.843   7.514 -0.4535 -0.5928  0.0603
  193DOPC   H7X23901   9.329   1.899   7.461 -1.3504 -1.1493  0.7836
  193DOPC   H7Y23902   9.345   1.767   7.565 -0.8027 -0.0071  0.5069
  193DOPC   C3823903   9.457   1.948   7.621  0.4222 -0.5495  0.3840
  193DOPC   H8X23904   9.506   2.031   7.566  1.1686 -0.3585  1.3111
  193DOPC   H8Y23905   9.546   1.905   7.672  1.7915  1.8424  0.1618
  193DOPC   C3923906   9.362   1.996   7.721  0.2949 -0.1963  0.1882
  193DOPC   H9X23907   9.332   1.925   7.800  0.5006 -1.4283 -0.8093
  193DOPC  C31023908   9.304   2.123   7.720  0.6192  0.1312 -0.0543
  193DOPC  H10X23909   9.234   2.144   7.803  0.8008 -3.1771  1.0898
  193DOPC  C31123910   9.328   2.234   7.621  0.1070 -0.0927 -0.3919
  193DOPC  H11X23911   9.242   2.304   7.618  1.8303  2.1045 -0.5912
  193DOPC  H11Y23912   9.350   2.191   7.521  2.2037  0.2227 -0.1106
  193DOPC  C31223913   9.446   2.322   7.669 -0.7214  0.2688 -0.2459
  193DOPC  H12X23914   9.464   2.399   7.591 -0.4045  0.5518  0.1047
  193DOPC  H12Y23915   9.543   2.268   7.670  0.1476  1.7629  0.8016
  193DOPC  C31323916   9.425   2.396   7.798 -0.1175  0.2139 -0.4056
  193DOPC  H13X23917   9.323   2.442   7.803  0.0828  0.4963  2.5126
  193DOPC  H13Y23918   9.415   2.318   7.876 -0.7828 -1.6234 -2.2163
  193DOPC  C31423919   9.534   2.492   7.833 -0.2622  0.1714 -0.1559
  193DOPC  H14X23920   9.629   2.437   7.843  1.1507  1.1891 -5.3915
  193DOPC  H14Y23921   9.540   2.560   7.746 -0.3966 -0.1586 -0.4236
  193DOPC  C31523922   9.507   2.563   7.967  0.0230 -0.3220 -0.1645
  193DOPC  H15X23923   9.404   2.604   7.965  0.6563  1.3445 -0.5240
  193DOPC  H15Y23924   9.568   2.654   7.988 -0.3992 -0.1017  0.1147
  193DOPC  C31623925   9.534   2.464   8.080  0.2654  0.4019 -0.2118
  193DOPC  H16X23926   9.456   2.386   8.075 -0.8086  1.3730  0.7563
  193DOPC  H16Y23927   9.629   2.407   8.072 -0.6972 -1.5143  1.4103
  193DOPC  C31723928   9.526   2.527   8.217  0.0387 -0.5368 -0.6664
  193DOPC  H17X23929   9.602   2.605   8.237 -1.3119  0.6413  0.1065
  193DOPC  H17Y23930   9.432   2.587   8.218  0.3471 -0.0497 -0.7339
  193DOPC  C31823931   9.529   2.423   8.328  0.3546  0.4696  0.2492
  193DOPC  H18X23932   9.550   2.485   8.417 -1.6234 -0.0359  1.1415
  193DOPC  H18Y23933   9.440   2.356   8.330  1.6218 -1.4505 -2.3252
  193DOPC  H18Z23934   9.612   2.354   8.301  0.0089  0.5889 -1.2061
  194DOPC     N23935   1.593   0.442   6.043  0.3695 -0.4512 -0.6514
  194DOPC   C1223936   1.734   0.389   6.017 -0.2879  0.3706  0.2341
  194DOPC  H12A23937   1.799   0.430   6.093 -2.9175  3.3748  1.0900
  194DOPC  H12B23938   1.767   0.431   5.923  0.0708  1.3697  0.7855
  194DOPC   C1323939   1.501   0.379   5.941 -0.0675  0.0602  0.3244
  194DOPC  H13A23940   1.546   0.392   5.843 -1.2829 -0.1798 -0.2827
  194DOPC  H13B23941   1.499   0.273   5.962 -0.1838  0.4694  2.6452
  194DOPC  H13C23942   1.404   0.427   5.943 -1.4252 -2.5350  1.7096
  194DOPC   C1423943   1.592   0.589   6.038 -0.5219  0.0478 -0.2629
  194DOPC  H14A23944   1.503   0.636   6.079 -0.1652 -0.6566  1.4315
  194DOPC  H14B23945   1.674   0.635   6.090  0.0603  0.7931 -1.7862
  194DOPC  H14C23946   1.590   0.620   5.935  0.5524  0.8118 -0.0716
  194DOPC   C1523947   1.548   0.402   6.182  0.0699  0.1625 -0.1065
  194DOPC  H15A23948   1.554   0.294   6.188 -0.6503  0.1883  1.4807
  194DOPC  H15B23949   1.449   0.440   6.199 -0.0796 -0.5984  0.7837
  194DOPC  H15C23950   1.622   0.445   6.247  1.1066  0.2388 -1.2814
  194DOPC   C1123951   1.750   0.226   6.012  0.6823  0.0099 -0.3904
  194DOPC  H11A23952   1.692   0.189   5.925 -1.2763  0.5834  0.6181
  194DOPC  H11B23953   1.859   0.212   5.993  1.0226  0.8099  0.8660
  194DOPC     P23954   1.705   0.005   6.146  0.2509  0.1329 -0.0294
  194DOPC   O1323955   1.836  -0.046   6.108  0.2710  0.4858 -0.1336
  194DOPC   O1423956   1.590  -0.041   6.066  0.8028  0.1414 -0.5926
  194DOPC   O1223957   1.711   0.157   6.131  0.0933 -0.2984  0.1863
  194DOPC   O1123958   1.672  -0.025   6.301 -0.5299 -0.4958  0.5153
  194DOPC    C123959   1.771   0.008   6.401  0.2602 -0.8901  0.0211
  194DOPC    HA23960   1.841   0.089   6.371  0.8679 -1.4513 -0.1118
  194DOPC    HB23961   1.834  -0.083   6.416  0.9614 -0.2155  1.2688
  194DOPC    C223962   1.693   0.049   6.529  0.3552  0.0778 -0.0979
  194DOPC    HS23963   1.752   0.096   6.610  0.5413 -2.2818  1.2337
  194DOPC   O2123964   1.620  -0.064   6.593 -0.2943  0.1465  0.5004
  194DOPC   C2123965   1.702  -0.150   6.650  0.2528  0.2536 -0.0782
  194DOPC   O2223966   1.821  -0.129   6.662 -0.1352  0.0132  0.2873
  194DOPC   C2223967   1.633  -0.279   6.700  0.1116 -0.5199  0.1880
  194DOPC   H2R23968   1.663  -0.353   6.623  1.5743 -0.8222  1.0250
  194DOPC   H2S23969   1.523  -0.269   6.715  0.4877  1.3537  2.1751
  194DOPC    C323970   1.587   0.159   6.490  0.1180  0.5220 -0.0903
  194DOPC    HX23971   1.521   0.110   6.417 -0.1323 -1.3734  1.3435
  194DOPC    HY23972   1.635   0.244   6.436 -1.1174  2.2276  1.3503
  194DOPC   O3123973   1.510   0.214   6.599 -0.2574 -0.0463  0.2430
  194DOPC   C3123974   1.393   0.275   6.564 -0.8772 -0.8760  0.2052
  194DOPC   O3223975   1.349   0.287   6.449 -0.2845  0.2778 -0.3742
  194DOPC   C3223976   1.343   0.346   6.688 -0.0818 -0.2562  0.0131
  194DOPC   H2X23977   1.405   0.309   6.773  0.5667 -1.6573 -1.0424
  194DOPC   H2Y23978   1.347   0.455   6.668  0.5254 -0.1351  0.7637
  194DOPC   C2323979   1.689  -0.329   6.847  0.7201 -0.5768  0.4452
  194DOPC   H3R23980   1.687  -0.248   6.923 -0.8299 -1.3441  1.2624
  194DOPC   H3S23981   1.797  -0.350   6.830  1.2781  2.2556 -0.0251
  194DOPC   C2423982   1.617  -0.454   6.900  0.6299 -0.4680 -0.1062
  194DOPC   H4R23983   1.670  -0.478   6.995 -0.6099  0.1698  0.7759
  194DOPC   H4S23984   1.641  -0.531   6.824  1.1491 -1.5816  1.1401
  194DOPC   C2523985   1.467  -0.452   6.914 -0.2659 -0.4573  0.0090
  194DOPC   H5R23986   1.429  -0.551   6.947 -1.2286  0.4934  1.8691
  194DOPC   H5S23987   1.426  -0.443   6.811  1.5603 -1.7491 -0.8925
  194DOPC   C2623988   1.411  -0.339   7.002 -0.7103  0.1416 -0.5732
  194DOPC   H6R23989   1.437  -0.245   6.947  0.7043 -0.5005 -1.0704
  194DOPC   H6S23990   1.459  -0.332   7.102 -0.8211 -1.7467 -0.3613
  194DOPC   C2723991   1.256  -0.352   7.012 -0.7126 -0.1122 -0.4395
  194DOPC   H7R23992   1.227  -0.444   7.067 -2.0974  0.8713  0.5553
  194DOPC   H7S23993   1.217  -0.362   6.909  0.4487  1.0034 -1.0210
  194DOPC   C2823994   1.190  -0.231   7.085  0.2840  0.0777  0.4697
  194DOPC   H8R23995   1.118  -0.189   7.012 -0.4605 -0.3102  0.9691
  194DOPC   H8S23996   1.269  -0.154   7.094  0.8878 -0.3930 -0.5879
  194DOPC   C2923997   1.111  -0.245   7.215  0.3648  0.6176 -0.4446
  194DOPC   H9R23998   1.008  -0.284   7.208  0.5429 -1.1735  3.8284
  194DOPC  C21023999   1.150  -0.215   7.342 -0.1363  1.1232  0.1862
  194DOPC  H10R24000   1.080  -0.214   7.427  1.9785  1.6469  2.0038
  194DOPC  C21124001   1.290  -0.167   7.376 -0.4028 -0.4668  0.1095
  194DOPC  H11R24002   1.296  -0.063   7.416  0.2744 -0.5863  0.3177
  194DOPC  H11S24003   1.354  -0.152   7.286  2.4470  1.7548  2.2888
  194DOPC  C21224004   1.342  -0.265   7.478 -0.0754  0.1962  0.2101
  194DOPC  H12R24005   1.342  -0.369   7.438 -0.6575 -0.5255  1.9864
  194DOPC  H12S24006   1.275  -0.282   7.565  0.7079 -2.1310  0.4378
  194DOPC  C21324007   1.474  -0.219   7.534 -0.5164  0.2978  0.4522
  194DOPC  H13R24008   1.498  -0.277   7.626 -0.2325 -0.1778  0.0765
  194DOPC  H13S24009   1.468  -0.111   7.563 -0.2617  0.1369  1.1101
  194DOPC  C21424010   1.596  -0.230   7.447 -0.1797 -0.5636  0.4027
  194DOPC  H14R24011   1.667  -0.145   7.457 -0.9598  0.1224  0.2325
  194DOPC  H14S24012   1.560  -0.228   7.342 -1.3874  2.1821  0.7766
  194DOPC  C21524013   1.668  -0.367   7.470 -0.9212  0.2712  0.3729
  194DOPC  H15R24014   1.590  -0.446   7.471  0.4595 -1.1689 -0.6379
  194DOPC  H15S24015   1.721  -0.363   7.567  1.6086  0.7267 -0.9496
  194DOPC  C21624016   1.784  -0.397   7.371 -0.0117  0.3066  0.5695
  194DOPC  H16R24017   1.872  -0.333   7.391 -0.5620  1.9956 -1.8583
  194DOPC  H16S24018   1.749  -0.377   7.267  4.7351  2.3330 -0.8936
  194DOPC  C21724019   1.843  -0.537   7.379 -0.8552 -0.7606 -0.0158
  194DOPC  H17R24020   1.764  -0.607   7.343 -0.5405 -2.3327  2.0922
  194DOPC  H17S24021   1.861  -0.559   7.487  1.4854 -0.4779 -0.3069
  194DOPC  C21824022   1.975  -0.549   7.306 -0.0817  0.3926  0.7400
  194DOPC  H18R24023   2.063  -0.515   7.366  1.0907 -2.2862  0.6853
  194DOPC  H18S24024   1.967  -0.484   7.217 -1.8743  0.5169  0.9637
  194DOPC  H18T24025   1.991  -0.654   7.275 -0.5320  0.8353 -1.0964
  194DOPC   C3324026   1.210   0.297   6.738 -0.1206  0.0493  0.2309
  194DOPC   H3X24027   1.203   0.186   6.736  1.2986 -0.1903  3.3483
  194DOPC   H3Y24028   1.139   0.325   6.657  2.1008 -1.6303 -2.4622
  194DOPC   C3424029   1.162   0.361   6.867 -0.4151  0.5557 -0.1539
  194DOPC   H4X24030   1.163   0.470   6.847 -0.0500  1.1417  2.6493
  194DOPC   H4Y24031   1.233   0.337   6.949 -0.7076  1.9896  0.5461
  194DOPC   C3524032   1.026   0.329   6.919 -0.1188 -0.0175  0.2475
  194DOPC   H5X24033   0.950   0.343   6.839 -0.7894  1.8722  1.1566
  194DOPC   H5Y24034   1.000   0.406   6.995  0.1917  1.5763 -1.1703
  194DOPC   C3624035   1.017   0.188   6.984 -0.5468  0.2840  0.2154
  194DOPC   H6X24036   1.043   0.101   6.919  0.6878  1.0884 -0.4036
  194DOPC   H6Y24037   1.091   0.184   7.066  0.0715 -0.7488 -0.3721
  194DOPC   C3724038   0.885   0.154   7.045  0.7177  0.0378 -0.0432
  194DOPC   H7X24039   0.838   0.236   7.104 -0.5590 -0.0067 -0.9531
  194DOPC   H7Y24040   0.813   0.133   6.964 -0.2419 -1.1302  1.0773
  194DOPC   C3824041   0.871   0.029   7.142  0.2779  0.0533 -0.0045
  194DOPC   H8X24042   0.918   0.051   7.241 -0.9651 -0.3902  0.7014
  194DOPC   H8Y24043   0.929  -0.056   7.100 -0.6318 -0.5838  0.0092
  194DOPC   C3924044   0.723  -0.005   7.153  0.0028  0.2454  0.3917
  194DOPC   H9X24045   0.682  -0.040   7.057 -1.7022 -0.0145  1.1935
  194DOPC  C31024046   0.648   0.010   7.265 -0.1901 -0.6555  0.4496
  194DOPC  H10X24047   0.542  -0.019   7.258 -0.7391  1.5420 -1.9059
  194DOPC  C31124048   0.705   0.062   7.396 -0.4518  1.0793 -0.0967
  194DOPC  H11X24049   0.631   0.127   7.447 -1.2851  1.1416 -1.3591
  194DOPC  H11Y24050   0.791   0.130   7.386 -0.0982  0.5507 -0.7472
  194DOPC  C31224051   0.757  -0.050   7.489  0.4338 -0.3828  0.4829
  194DOPC  H12X24052   0.818  -0.005   7.571 -1.8427 -1.1310  2.6982
  194DOPC  H12Y24053   0.824  -0.112   7.426 -0.8556 -0.5621 -0.7521
  194DOPC  C31324054   0.652  -0.121   7.564  0.8758 -0.5763 -0.4762
  194DOPC  H13X24055   0.574  -0.048   7.594  0.0811 -1.3251 -0.6631
  194DOPC  H13Y24056   0.609  -0.196   7.494 -0.6747 -0.5751  0.4412
  194DOPC  C31424057   0.703  -0.205   7.682  0.2699  0.9162  0.3948
  194DOPC  H14X24058   0.629  -0.286   7.700 -1.0301  2.2685  1.3676
  194DOPC  H14Y24059   0.800  -0.253   7.657 -0.2589  0.5040 -0.9428
  194DOPC  C31524060   0.730  -0.119   7.807  0.0623 -0.2951 -0.6250
  194DOPC  H15X24061   0.641  -0.056   7.830 -0.0525 -0.2387 -1.2018
  194DOPC  H15Y24062   0.812  -0.047   7.783 -1.1696  1.8458  1.1371
  194DOPC  C31624063   0.762  -0.209   7.933 -0.0507 -0.1503  0.6207
  194DOPC  H16X24064   0.849  -0.272   7.904  0.2169  0.9976 -1.2442
  194DOPC  H16Y24065   0.798  -0.137   8.010 -0.1983  1.0046 -0.3640
  194DOPC  C31724066   0.651  -0.294   8.002  0.0896 -0.6583  0.6467
  194DOPC  H17X24067   0.564  -0.230   8.028  0.3291 -0.4443  0.9331
  194DOPC  H17Y24068   0.615  -0.374   7.934  2.3947 -0.0936 -1.3793
  194DOPC  C31824069   0.693  -0.366   8.130 -1.0207 -0.2869  0.1480
  194DOPC  H18X24070   0.600  -0.417   8.164 -1.3476  0.2965  0.1417
  194DOPC  H18Y24071   0.775  -0.438   8.111  0.4041  1.6017 -1.3157
  194DOPC  H18Z24072   0.714  -0.305   8.221 -2.2398  0.5075 -0.0782
  195DOPC     N24073   9.179   8.143   6.604  0.6121  0.1692  0.4980
  195DOPC   C1224074   9.112   8.006   6.593 -0.1935  0.5823  0.1548
  195DOPC  H12A24075   9.110   7.980   6.488  1.0668  1.3185 -0.0756
  195DOPC  H12B24076   9.008   8.015   6.619 -0.2364 -1.2662  0.7603
  195DOPC   C1324077   9.326   8.145   6.570  0.9255  0.3784  0.0256
  195DOPC  H13A24078   9.370   8.217   6.638  0.5878  0.2597  0.3734
  195DOPC  H13B24079   9.378   8.052   6.584  3.2245  1.3801 -1.2585
  195DOPC  H13C24080   9.348   8.175   6.469  0.4488 -1.4464 -0.6605
  195DOPC   C1424081   9.171   8.192   6.746  0.5648 -0.5216 -0.6787
  195DOPC  H14A24082   9.197   8.296   6.753  2.4992 -1.0039  0.0737
  195DOPC  H14B24083   9.075   8.188   6.795 -0.1755 -0.0737 -2.0546
  195DOPC  H14C24084   9.230   8.126   6.808 -0.1991 -1.0589 -0.5067
  195DOPC   C1524085   9.115   8.247   6.514  0.3853  0.5894 -0.3613
  195DOPC  H15A24086   9.104   8.219   6.410  0.7490  0.9141 -0.4897
  195DOPC  H15B24087   9.179   8.334   6.516 -0.8157  1.5148 -0.9930
  195DOPC  H15C24088   9.021   8.273   6.561  1.6815 -0.5138  3.1998
  195DOPC   C1124089   9.171   7.897   6.683  0.0181 -0.0913 -0.0948
  195DOPC  H11A24090   9.281   7.890   6.671 -0.1793 -0.3932 -1.9769
  195DOPC  H11B24091   9.157   7.906   6.793 -2.7941  0.4245 -0.4136
  195DOPC     P24092   9.180   7.673   6.545 -0.1246 -0.3552  0.2813
  195DOPC   O1324093   9.237   7.736   6.420  0.0926 -0.1228  0.0788
  195DOPC   O1424094   9.096   7.558   6.521 -0.0781 -0.0531 -0.4242
  195DOPC   O1224095   9.108   7.780   6.635  0.7372  0.0630  1.2708
  195DOPC   O1124096   9.308   7.630   6.622  0.1412  0.1224  0.2653
  195DOPC    C124097   9.312   7.512   6.710  0.1596 -0.6689  0.3034
  195DOPC    HA24098   9.413   7.467   6.711  0.5516  0.0606  3.3296
  195DOPC    HB24099   9.237   7.435   6.681 -0.0462 -0.1697 -0.5185
  195DOPC    C224100   9.294   7.540   6.860 -0.5455  0.5720  0.0762
  195DOPC    HS24101   9.186   7.557   6.874 -1.2375 -2.4514 -0.8060
  195DOPC   O2124102   9.376   7.651   6.909 -0.6798  0.0717 -0.0357
  195DOPC   C2124103   9.321   7.719   7.004  0.2002  0.3324 -0.0670
  195DOPC   O2224104   9.202   7.715   7.034 -0.4244 -0.0159  0.0549
  195DOPC   C2224105   9.430   7.800   7.077 -0.2071  0.6878  0.4314
  195DOPC   H2R24106   9.479   7.862   6.999 -0.0324 -0.7510 -0.6408
  195DOPC   H2S24107   9.512   7.733   7.111  0.0194  0.5637 -0.3282
  195DOPC    C324108   9.329   7.409   6.932  0.4489 -0.3949  0.2093
  195DOPC    HX24109   9.435   7.386   6.911  0.9966  1.2142  1.0091
  195DOPC    HY24110   9.269   7.326   6.889  0.4213  0.9018 -2.4873
  195DOPC   O3124111   9.318   7.415   7.076 -0.6689  0.1626 -0.6404
  195DOPC   C3124112   9.198   7.393   7.133  0.1321  0.1385  0.3854
  195DOPC   O3224113   9.095   7.380   7.071  0.4882  1.1264  0.1470
  195DOPC   C3224114   9.207   7.381   7.281  0.3440  0.4067 -0.3311
  195DOPC   H2X24115   9.126   7.445   7.323  1.0032  0.3106  1.1712
  195DOPC   H2Y24116   9.175   7.278   7.309 -4.3460  2.1303  1.7332
  195DOPC   C2324117   9.377   7.893   7.181 -0.1627  0.3199 -0.3383
  195DOPC   H3R24118   9.275   7.925   7.150  0.6545  1.8627 -1.5243
  195DOPC   H3S24119   9.444   7.978   7.205 -0.2850 -0.0110  1.2677
  195DOPC   C2424120   9.361   7.807   7.308 -0.8075 -0.1488 -0.6776
  195DOPC   H4R24121   9.455   7.765   7.351 -1.0655 -0.7213 -0.6627
  195DOPC   H4S24122   9.302   7.719   7.274 -1.4157 -0.2938  0.7024
  195DOPC   C2524123   9.291   7.876   7.428 -0.1946  0.2878  0.5299
  195DOPC   H5R24124   9.289   7.806   7.514 -0.7217 -0.2046  0.1222
  195DOPC   H5S24125   9.189   7.901   7.393 -0.6063 -2.5461 -0.5397
  195DOPC   C2624126   9.370   7.997   7.486 -0.4685  0.1648  0.3155
  195DOPC   H6R24127   9.406   8.065   7.406  0.9057  1.0699  1.6539
  195DOPC   H6S24128   9.464   7.962   7.533  1.1155  1.1948 -1.9019
  195DOPC   C2724129   9.280   8.079   7.584 -0.0226 -0.2522  0.1035
  195DOPC   H7R24130   9.186   8.096   7.527  0.1519 -0.5606 -0.2892
  195DOPC   H7S24131   9.325   8.180   7.586  0.2445 -0.2436 -2.5704
  195DOPC   C2824132   9.254   8.013   7.715 -0.0091 -0.0601 -0.4553
  195DOPC   H8R24133   9.338   7.961   7.765  0.3362  0.2483 -0.7094
  195DOPC   H8S24134   9.183   7.929   7.700 -1.1880  0.5476  1.3761
  195DOPC   C2924135   9.187   8.111   7.812  0.0821 -0.1411 -0.3974
  195DOPC   H9R24136   9.083   8.142   7.797 -0.2995 -1.0957  0.1895
  195DOPC  C21024137   9.254   8.152   7.923 -0.3138 -0.0801 -0.5388
  195DOPC  H10R24138   9.211   8.227   7.991 -0.1134  0.7618 -1.3197
  195DOPC  C21124139   9.391   8.115   7.968 -0.5607 -1.1499  0.2498
  195DOPC  H11R24140   9.424   8.015   7.934  0.3800 -0.3257 -1.3685
  195DOPC  H11S24141   9.391   8.117   8.079  2.8088 -0.5931  0.3261
  195DOPC  C21224142   9.502   8.218   7.925 -0.7607  0.1158 -0.3492
  195DOPC  H12R24143   9.486   8.307   7.990 -0.6176 -0.1722  0.0824
  195DOPC  H12S24144   9.498   8.259   7.822  0.2540  1.2304  0.0228
  195DOPC  C21324145   9.648   8.155   7.952 -0.1744 -0.1748 -0.3257
  195DOPC  H13R24146   9.724   8.235   7.936 -0.9575  1.0427  1.6605
  195DOPC  H13S24147   9.653   8.073   7.878  2.7589 -0.5670  0.1792
  195DOPC  C21424148   9.667   8.096   8.094 -0.5941  0.4532  0.2721
  195DOPC  H14R24149   9.574   8.037   8.111 -0.9461  0.7048 -0.6918
  195DOPC  H14S24150   9.676   8.181   8.165 -0.5759  1.6081 -1.0735
  195DOPC  C21524151   9.794   8.013   8.103  0.6544 -0.1109  0.4590
  195DOPC  H15R24152   9.883   8.079   8.100 -0.1738  1.0728  1.1961
  195DOPC  H15S24153   9.792   7.946   8.014  0.9864  1.6481 -0.9185
  195DOPC  C21624154   9.793   7.935   8.230  0.1965 -0.2076 -0.5291
  195DOPC  H16R24155   9.693   7.888   8.236  0.0659 -0.3908 -3.1567
  195DOPC  H16S24156   9.798   8.021   8.301 -3.8249  1.2051 -1.6639
  195DOPC  C21724157   9.914   7.849   8.265  0.3535  0.7682 -0.0030
  195DOPC  H17R24158   9.900   7.793   8.360  0.8083  1.2135  0.3318
  195DOPC  H17S24159   9.996   7.918   8.293  0.8443 -0.3793  1.5381
  195DOPC  C21824160   9.964   7.747   8.164  0.1657 -0.2571  0.2677
  195DOPC  H18R24161   9.884   7.684   8.121  0.3549  0.9578 -2.0371
  195DOPC  H18S24162  10.044   7.680   8.201 -0.0066  0.1170  1.3534
  195DOPC  H18T24163   9.998   7.810   8.078 -3.5985 -1.1572 -2.1409
  195DOPC   C3324164   9.344   7.408   7.350  0.5048  0.1428  0.6627
  195DOPC   H3X24165   9.374   7.511   7.322 -0.9475  0.4872  0.2987
  195DOPC   H3Y24166   9.415   7.334   7.308  0.0392  0.4624 -0.7526
  195DOPC   C3424167   9.336   7.383   7.501 -0.2238  0.0087 -0.2319
  195DOPC   H4X24168   9.437   7.364   7.543 -0.6410 -0.2022  0.7162
  195DOPC   H4Y24169   9.275   7.291   7.517 -0.3440  0.1293  0.0081
  195DOPC   C3524170   9.271   7.506   7.570 -0.0435  0.2035  0.5385
  195DOPC   H5X24171   9.192   7.551   7.505  0.2591 -1.0023 -0.6980
  195DOPC   H5Y24172   9.348   7.587   7.576 -1.2106  1.5226 -1.1029
  195DOPC   C3624173   9.216   7.483   7.719 -0.1853 -0.2910  0.3247
  195DOPC   H6X24174   9.124   7.422   7.709 -0.6950 -0.0142  2.7386
  195DOPC   H6Y24175   9.284   7.416   7.777  1.0125 -0.0983 -0.8023
  195DOPC   C3724176   9.169   7.606   7.810 -0.5144 -0.4036  0.0802
  195DOPC   H7X24177   9.255   7.674   7.831 -1.2813  1.1927 -1.6724
  195DOPC   H7Y24178   9.093   7.656   7.746  1.2951  1.9546 -0.3520
  195DOPC   C3824179   9.109   7.558   7.944 -0.3600 -0.0278 -1.1724
  195DOPC   H8X24180   9.066   7.457   7.925 -2.0478  0.6719 -1.2598
  195DOPC   H8Y24181   9.028   7.632   7.961  0.6159  0.5357  1.3061
  195DOPC   C3924182   9.211   7.555   8.051  0.0057 -0.2957  0.0367
  195DOPC   H9X24183   9.298   7.495   8.019  0.6335  1.1408 -1.0527
  195DOPC  C31024184   9.221   7.628   8.165  0.3573  0.0246 -0.6006
  195DOPC  H10X24185   9.300   7.605   8.237 -0.2955 -3.9082 -0.9301
  195DOPC  C31124186   9.133   7.736   8.209  0.0696 -0.6697 -0.3936
  195DOPC  H11X24187   9.144   7.747   8.319  1.7896 -3.4648 -0.2018
  195DOPC  H11Y24188   9.025   7.722   8.185  0.0726  2.1942 -2.6061
  195DOPC  C31224189   9.176   7.876   8.151  0.3767  0.5992  0.1579
  195DOPC  H12X24190   9.209   7.855   8.048 -1.6106 -0.8423 -0.2553
  195DOPC  H12Y24191   9.266   7.918   8.201  1.1768  1.3885 -1.8406
  195DOPC  C31324192   9.069   7.981   8.170 -0.0496  0.3118  0.2050
  195DOPC  H13X24193   9.025   7.981   8.272  0.0115 -0.7327  0.2416
  195DOPC  H13Y24194   9.122   8.078   8.163 -0.2807  0.4463  0.3062
  195DOPC  C31424195   8.961   7.970   8.056 -0.5414 -0.1082 -0.5465
  195DOPC  H14X24196   9.019   7.968   7.962  2.0981  0.9246  0.9610
  195DOPC  H14Y24197   8.900   7.877   8.064 -4.3201  2.2496  1.2860
  195DOPC  C31524198   8.869   8.089   8.049 -0.2909 -0.3730 -0.9723
  195DOPC  H15X24199   8.932   8.178   8.031 -0.4424 -0.1368 -0.3594
  195DOPC  H15Y24200   8.810   8.102   8.143 -2.9969 -4.1165 -1.9099
  195DOPC  C31624201   8.774   8.071   7.932  0.3898  0.3644 -0.2140
  195DOPC  H16X24202   8.826   8.096   7.838  2.0382 -1.0303  0.2808
  195DOPC  H16Y24203   8.726   7.971   7.941 -0.2244  0.6943  0.3855
  195DOPC  C31724204   8.659   8.173   7.949 -0.4451  0.2892  0.3037
  195DOPC  H17X24205   8.564   8.119   7.932  0.7240 -1.6824 -0.3525
  195DOPC  H17Y24206   8.646   8.198   8.056  3.2046 -0.3475  1.0331
  195DOPC  C31824207   8.674   8.292   7.863  0.1132 -0.4195  0.4262
  195DOPC  H18X24208   8.602   8.374   7.888  1.0358  0.7219 -0.5153
  195DOPC  H18Y24209   8.780   8.319   7.885  0.2792 -0.1270 -0.6916
  195DOPC  H18Z24210   8.667   8.262   7.756  1.9348 -1.9532  0.6882
  196DOPC     N24211   1.245   2.287   6.278 -0.1109 -0.6065  0.6424
  196DOPC   C1224212   1.292   2.348   6.408  0.2592 -0.2929 -0.5228
  196DOPC  H12A24213   1.218   2.419   6.443 -0.3938 -0.5211 -1.3957
  196DOPC  H12B24214   1.385   2.399   6.389 -1.1875  2.9587  0.4159
  196DOPC   C1324215   1.350   2.206   6.217 -0.0841  0.0437 -0.3231
  196DOPC  H13A24216   1.422   2.271   6.169 -0.9633  0.6452 -0.8649
  196DOPC  H13B24217   1.401   2.149   6.293  2.9078  1.9796 -0.7034
  196DOPC  H13C24218   1.303   2.137   6.148 -0.9027  0.2525  0.0101
  196DOPC   C1424219   1.214   2.410   6.187 -0.0685  0.7612  0.2332
  196DOPC  H14A24220   1.178   2.370   6.094 -0.2475 -0.4511  0.8087
  196DOPC  H14B24221   1.124   2.457   6.225  0.3021  1.5498  0.1736
  196DOPC  H14C24222   1.305   2.470   6.185 -0.1088  0.8650  0.9654
  196DOPC   C1524223   1.124   2.211   6.302  0.7559  0.1146  0.2309
  196DOPC  H15A24224   1.045   2.277   6.336 -1.8602 -2.1006 -1.1801
  196DOPC  H15B24225   1.134   2.137   6.380 -0.0128 -1.5148 -1.1501
  196DOPC  H15C24226   1.082   2.167   6.213  1.1493  1.4663 -0.6647
  196DOPC   C1124227   1.304   2.257   6.534 -0.2644  0.0191  0.3368
  196DOPC  H11A24228   1.351   2.325   6.607 -1.5916  0.7306  0.5631
  196DOPC  H11B24229   1.204   2.231   6.576  0.0133 -0.4001  0.7390
  196DOPC     P24230   1.333   1.996   6.523  0.0475 -0.5198 -0.2574
  196DOPC   O1324231   1.441   1.917   6.454 -0.1086  0.5296  0.4368
  196DOPC   O1424232   1.195   1.977   6.472  0.1860 -0.7911  0.0849
  196DOPC   O1224233   1.383   2.143   6.517  0.2287  0.0707  0.7368
  196DOPC   O1124234   1.338   1.972   6.676 -1.0975  0.5566  0.2446
  196DOPC    C124235   1.469   1.986   6.743 -0.3423  0.4897 -0.2428
  196DOPC    HA24236   1.468   2.082   6.798  2.1603  0.4100  0.0815
  196DOPC    HB24237   1.550   1.989   6.666  0.2241 -1.3066  0.2255
  196DOPC    C224238   1.502   1.872   6.845  0.2906 -0.0492 -0.2581
  196DOPC    HS24239   1.477   1.778   6.791  1.1049 -1.1300  1.1758
  196DOPC   O2124240   1.411   1.893   6.960  0.1896  0.0565  0.4281
  196DOPC   C2124241   1.376   1.787   7.025  0.2131 -0.7946 -0.0263
  196DOPC   O2224242   1.367   1.677   6.976  0.5531  0.1063  0.1764
  196DOPC   C2224243   1.379   1.822   7.173  0.1231 -0.0763 -0.0675
  196DOPC   H2R24244   1.349   1.929   7.182  3.2097  0.8513  0.2996
  196DOPC   H2S24245   1.488   1.819   7.191  0.5495 -1.4293 -2.4551
  196DOPC    C324246   1.643   1.856   6.901 -0.7782 -0.4244 -0.1119
  196DOPC    HX24247   1.672   1.951   6.951  0.4734 -0.3960 -0.8600
  196DOPC    HY24248   1.706   1.838   6.812 -0.2353  1.3249 -0.1261
  196DOPC   O3124249   1.648   1.750   6.996 -0.1216  0.0968  0.0905
  196DOPC   C3124250   1.775   1.729   7.036  0.1792 -0.6407 -0.4434
  196DOPC   O3224251   1.875   1.784   6.988  0.2793 -0.3678 -0.5559
  196DOPC   C3224252   1.790   1.616   7.134 -0.1345 -0.1965 -0.0613
  196DOPC   H2X24253   1.839   1.534   7.077 -1.6602 -0.9471 -0.3265
  196DOPC   H2Y24254   1.871   1.631   7.209 -1.4266  1.5809  1.0797
  196DOPC   C2324255   1.317   1.707   7.253 -0.6615 -0.1840  0.6747
  196DOPC   H3R24256   1.339   1.731   7.360  0.2611  0.5195  0.3403
  196DOPC   H3S24257   1.370   1.612   7.232 -2.2249 -0.7411 -0.9425
  196DOPC   C2424258   1.163   1.721   7.249 -0.7721  0.3625  0.5830
  196DOPC   H4R24259   1.129   1.710   7.144  1.3423 -1.0438 -0.0190
  196DOPC   H4S24260   1.129   1.825   7.267 -0.7731  0.3372  0.7258
  196DOPC   C2524261   1.081   1.624   7.335 -0.8178 -0.2969 -0.5901
  196DOPC   H5R24262   1.088   1.520   7.298  1.4776 -0.7315  0.8942
  196DOPC   H5S24263   0.977   1.658   7.315 -0.1779  2.3240  0.0931
  196DOPC   C2624264   1.110   1.638   7.481  0.0610 -0.5044  0.4692
  196DOPC   H6R24265   1.110   1.747   7.501 -0.3916 -0.5966  0.9828
  196DOPC   H6S24266   1.215   1.602   7.484  0.4483  0.5103 -0.1423
  196DOPC   C2724267   1.012   1.551   7.571 -0.1416  0.7847 -0.2839
  196DOPC   H7R24268   1.019   1.442   7.552 -0.8327  0.5918  0.5466
  196DOPC   H7S24269   0.906   1.583   7.559 -0.2368 -0.3019 -3.2858
  196DOPC   C2824270   1.056   1.562   7.720 -0.9787 -0.6275  0.5809
  196DOPC   H8R24271   1.153   1.509   7.734 -1.6548 -2.1051 -0.0837
  196DOPC   H8S24272   0.988   1.512   7.792 -1.0286  0.3596  1.2392
  196DOPC   C2924273   1.081   1.701   7.769 -0.6306  0.5382  0.3783
  196DOPC   H9R24274   1.148   1.766   7.709 -1.4249  0.2036 -0.9161
  196DOPC  C21024275   1.040   1.749   7.888 -0.3131  0.2720 -0.0668
  196DOPC  H10R24276   1.078   1.850   7.912  1.4248 -0.4439  0.3085
  196DOPC  C21124277   0.956   1.678   7.998 -0.2202 -0.3386 -0.4147
  196DOPC  H11R24278   0.959   1.569   7.977  3.1705 -0.1266 -1.6721
  196DOPC  H11S24279   0.859   1.730   8.011 -0.0417  0.1778 -1.1296
  196DOPC  C21224280   1.016   1.704   8.136  0.3044 -0.4219  0.2647
  196DOPC  H12R24281   0.934   1.684   8.209  0.2472 -0.3326  0.2247
  196DOPC  H12S24282   1.034   1.813   8.150 -0.6604 -0.3519  1.1488
  196DOPC  C21324283   1.145   1.626   8.165 -0.5400  0.3905  0.1953
  196DOPC  H13R24284   1.191   1.665   8.259 -0.1298 -0.9486  0.5646
  196DOPC  H13S24285   1.218   1.655   8.086 -2.0820  1.2321 -0.9727
  196DOPC  C21424286   1.114   1.474   8.183 -0.1794 -0.4108 -0.0015
  196DOPC  H14R24287   1.062   1.442   8.091  2.9795 -1.6882 -1.5043
  196DOPC  H14S24288   1.047   1.467   8.271  0.1676  2.6303  0.6231
  196DOPC  C21524289   1.240   1.395   8.198  0.2001 -0.6311 -0.8332
  196DOPC  H15R24290   1.280   1.412   8.300 -1.0400 -1.4095 -0.1856
  196DOPC  H15S24291   1.311   1.442   8.127  0.4115  1.2490  0.5757
  196DOPC  C21624292   1.227   1.242   8.178 -0.0197  0.5353 -0.3591
  196DOPC  H16R24293   1.316   1.183   8.210 -1.2217 -1.0546  0.1670
  196DOPC  H16S24294   1.208   1.229   8.069  0.5101  0.9117 -0.5049
  196DOPC  C21724295   1.121   1.155   8.252 -0.1014 -1.3769 -0.0178
  196DOPC  H17R24296   1.017   1.173   8.218  0.2921  0.7760 -0.2200
  196DOPC  H17S24297   1.135   1.184   8.358 -2.6364 -1.0176  0.2635
  196DOPC  C21824298   1.157   1.004   8.244  0.3277 -0.2531  0.3556
  196DOPC  H18R24299   1.155   0.969   8.138 -1.2426 -1.5060  0.7609
  196DOPC  H18S24300   1.081   0.940   8.293 -1.5024  1.5132 -0.0420
  196DOPC  H18T24301   1.251   0.980   8.298  0.2192  1.9499  1.6527
  196DOPC   C3324302   1.665   1.581   7.209 -0.1141  0.1180  0.8239
  196DOPC   H3X24303   1.581   1.545   7.146 -0.4387  0.5406  1.0131
  196DOPC   H3Y24304   1.627   1.669   7.265  0.1030  0.7482 -0.0004
  196DOPC   C3424305   1.701   1.469   7.308  0.5254 -0.7794  0.1742
  196DOPC   H4X24306   1.772   1.500   7.387 -0.1851  0.7800  0.2349
  196DOPC   H4Y24307   1.743   1.383   7.252 -1.0219 -0.6698 -1.2451
  196DOPC   C3524308   1.579   1.443   7.397  0.2629  0.8784 -0.5253
  196DOPC   H5X24309   1.491   1.425   7.332  0.1340 -1.8890  0.3064
  196DOPC   H5Y24310   1.548   1.530   7.460  1.9770  0.6292  0.7318
  196DOPC   C3624311   1.598   1.317   7.481  0.1569  0.5906  0.3172
  196DOPC   H6X24312   1.636   1.227   7.428 -1.4858  0.9799 -1.6738
  196DOPC   H6Y24313   1.657   1.343   7.571 -1.0844  1.3347  0.9513
  196DOPC   C3724314   1.456   1.272   7.529  0.1619  0.4818  0.0326
  196DOPC   H7X24315   1.384   1.264   7.444 -0.9152 -1.4281  1.0703
  196DOPC   H7Y24316   1.475   1.168   7.562  2.3130  0.8105 -0.0046
  196DOPC   C3824317   1.402   1.343   7.651 -1.1583  0.1370  0.0551
  196DOPC   H8X24318   1.365   1.447   7.639  0.3972  0.5594 -1.5803
  196DOPC   H8Y24319   1.489   1.340   7.720 -2.9643 -0.4671  2.4096
  196DOPC   C3924320   1.280   1.278   7.697 -0.1562 -0.3221 -0.9333
  196DOPC   H9X24321   1.192   1.301   7.636 -0.1186 -0.6643 -1.1218
  196DOPC  C31024322   1.273   1.189   7.796 -0.3343 -1.0459  0.0773
  196DOPC  H10X24323   1.179   1.139   7.820 -0.9416  0.1876  0.3685
  196DOPC  C31124324   1.396   1.130   7.863 -0.0619 -0.1606 -0.4615
  196DOPC  H11X24325   1.391   1.167   7.968 -3.0270 -2.1479  0.2245
  196DOPC  H11Y24326   1.491   1.154   7.811  0.0300  0.0092 -0.2153
  196DOPC  C31224327   1.390   0.973   7.868  0.0848 -0.0972  0.4352
  196DOPC  H12X24328   1.383   0.944   7.761  1.5327 -2.1152  0.8296
  196DOPC  H12Y24329   1.293   0.941   7.911  0.1068 -1.9961 -0.8290
  196DOPC  C31324330   1.517   0.911   7.934 -0.0117  0.4641  0.1532
  196DOPC  H13X24331   1.521   0.802   7.918  1.1460  0.4245  0.6344
  196DOPC  H13Y24332   1.608   0.951   7.884 -0.1159 -1.0377 -1.3105
  196DOPC  C31424333   1.526   0.938   8.091 -0.8437  0.1212  0.4190
  196DOPC  H14X24334   1.525   1.047   8.115  1.0444 -0.3635  3.1838
  196DOPC  H14Y24335   1.443   0.882   8.137  1.3519 -2.0178  2.0295
  196DOPC  C31524336   1.660   0.888   8.156  0.1787 -0.1406  0.1740
  196DOPC  H15X24337   1.747   0.942   8.113  0.5040  0.3622  1.4072
  196DOPC  H15Y24338   1.682   0.781   8.138 -0.1710 -1.0197  4.0902
  196DOPC  C31624339   1.669   0.922   8.302  0.6738 -0.5452 -0.0696
  196DOPC  H16X24340   1.653   1.032   8.314 -1.4921 -0.9271  1.0204
  196DOPC  H16Y24341   1.589   0.867   8.356  0.4467 -2.0334 -1.8310
  196DOPC  C31724342   1.809   0.907   8.371  0.0031  0.4874  0.0738
  196DOPC  H17X24343   1.854   0.806   8.361  0.6647  0.5680  1.9704
  196DOPC  H17Y24344   1.872   0.976   8.310 -0.5634 -0.6094 -1.8365
  196DOPC  C31824345   1.800   0.949   8.520 -0.3183 -0.2747  0.5319
  196DOPC  H18X24346   1.730   0.887   8.581 -1.9101  0.9042 -0.0008
  196DOPC  H18Y24347   1.902   0.952   8.564 -0.5161  1.3410  0.9558
  196DOPC  H18Z24348   1.757   1.052   8.531 -1.3584 -0.5102 -1.0470
  197DOPC     N24349   3.301   8.232   6.197  0.6400  0.6005  0.3377
  197DOPC   C1224350   3.211   8.320   6.276 -0.1020  0.3154 -0.1908
  197DOPC  H12A24351   3.131   8.355   6.212  0.2586 -0.0629 -0.8595
  197DOPC  H12B24352   3.260   8.412   6.303 -1.8598  0.4622  3.0067
  197DOPC   C1324353   3.214   8.145   6.105  0.1543 -1.0414 -0.4371
  197DOPC  H13A24354   3.127   8.108   6.157  0.6083 -0.5367  0.7099
  197DOPC  H13B24355   3.191   8.201   6.016  4.2050 -1.5553 -2.0058
  197DOPC  H13C24356   3.254   8.051   6.070 -4.3115 -2.2331 -3.2429
  197DOPC   C1424357   3.386   8.156   6.288  0.0690 -0.9748 -0.1099
  197DOPC  H14A24358   3.440   8.232   6.342  2.6084 -1.2052 -2.1031
  197DOPC  H14B24359   3.321   8.101   6.354  0.8748 -1.4217  0.3255
  197DOPC  H14C24360   3.452   8.092   6.230 -0.1837 -2.7577  1.4751
  197DOPC   C1524361   3.391   8.312   6.106 -0.4853 -0.0323  0.3144
  197DOPC  H15A24362   3.463   8.255   6.049 -0.8906  1.5400 -1.9321
  197DOPC  H15B24363   3.461   8.369   6.166 -0.8776  0.0788  0.6672
  197DOPC  H15C24364   3.328   8.364   6.035 -2.3399 -0.4635  1.5823
  197DOPC   C1124365   3.146   8.262   6.403  0.0080 -0.3542  0.4683
  197DOPC  H11A24366   3.220   8.251   6.486  2.2957  1.6909 -1.1632
  197DOPC  H11B24367   3.068   8.332   6.439  0.3960 -0.4860  1.6014
  197DOPC     P24368   2.993   8.043   6.462  0.0097  0.2555 -0.4987
  197DOPC   O1324369   3.022   7.902   6.433 -0.1327 -0.1770  0.5240
  197DOPC   O1424370   2.856   8.090   6.440  0.0542  0.7039  0.0709
  197DOPC   O1224371   3.092   8.136   6.375 -0.2292 -0.0633  0.6316
  197DOPC   O1124372   3.041   8.063   6.615 -0.1359  0.0825  0.5597
  197DOPC    C124373   3.023   8.184   6.691  0.7364 -0.2440  0.0192
  197DOPC    HA24374   2.938   8.173   6.761  0.5477 -0.0223 -0.1738
  197DOPC    HB24375   2.992   8.271   6.628 -0.1481  0.5561  1.5031
  197DOPC    C224376   3.139   8.210   6.791  0.5078 -0.6370 -0.4467
  197DOPC    HS24377   3.233   8.239   6.740  1.7823 -0.8001  1.6888
  197DOPC   O2124378   3.166   8.089   6.854 -0.0718 -0.4668  0.2572
  197DOPC   C2124379   3.285   8.083   6.912  0.1178  0.4899 -0.2958
  197DOPC   O2224380   3.375   8.164   6.895  0.0473  0.2991  0.3324
  197DOPC   C2224381   3.295   7.968   7.009  0.1137 -0.3025 -0.4124
  197DOPC   H2R24382   3.405   7.960   7.020  0.4071 -0.4668 -2.8733
  197DOPC   H2S24383   3.269   7.866   6.973  1.2218 -0.5525 -0.5600
  197DOPC    C324384   3.103   8.324   6.891  0.3176  0.2521  0.3559
  197DOPC    HX24385   3.027   8.280   6.959 -0.0687 -0.4371 -0.4927
  197DOPC    HY24386   3.059   8.409   6.834 -0.0161 -0.5587 -0.6384
  197DOPC   O3124387   3.214   8.359   6.969 -0.4799  0.0523 -0.0680
  197DOPC   C3124388   3.191   8.431   7.077  0.7838 -0.1259  0.5720
  197DOPC   O3224389   3.079   8.469   7.108 -0.4766 -0.9903  0.6951
  197DOPC   C3224390   3.315   8.471   7.149 -0.7308 -0.0852  0.1604
  197DOPC   H2X24391   3.348   8.397   7.225 -2.5775 -1.0484  0.0590
  197DOPC   H2Y24392   3.398   8.483   7.076  0.7974 -2.6840  1.3108
  197DOPC   C2324393   3.243   7.992   7.149  0.6583  0.2252  0.5481
  197DOPC   H3R24394   3.278   8.089   7.190  0.9431  0.2184  0.3249
  197DOPC   H3S24395   3.279   7.922   7.227 -1.2928  1.5025  2.7305
  197DOPC   C2424396   3.088   7.984   7.154 -0.7872 -0.1002  0.5527
  197DOPC   H4R24397   3.062   7.888   7.104  1.2627 -0.3877 -0.0445
  197DOPC   H4S24398   3.043   8.065   7.092 -1.5770 -0.6719  0.3575
  197DOPC   C2524399   3.033   7.991   7.306 -0.4448  1.0469 -0.3265
  197DOPC   H5R24400   3.044   7.891   7.353  2.8881  1.0466 -0.8797
  197DOPC   H5S24401   2.923   8.009   7.305 -0.8934 -1.2178 -2.4923
  197DOPC   C2624402   3.097   8.084   7.404 -0.4423  0.3160 -0.8993
  197DOPC   H6R24403   3.206   8.067   7.413 -0.0121  2.8715 -0.3422
  197DOPC   H6S24404   3.069   8.068   7.511  0.3984 -1.1338 -0.8758
  197DOPC   C2724405   3.066   8.225   7.367  0.5327  0.3209 -0.1423
  197DOPC   H7R24406   3.083   8.235   7.258 -1.5115 -3.0097 -0.9010
  197DOPC   H7S24407   3.131   8.299   7.418  1.2151  1.5028 -2.6113
  197DOPC   C2824408   2.917   8.260   7.390  0.0956  0.0020 -0.1555
  197DOPC   H8R24409   2.878   8.214   7.484  1.0216 -2.2672 -0.8127
  197DOPC   H8S24410   2.866   8.205   7.308  1.7290 -2.1472  0.1717
  197DOPC   C2924411   2.875   8.402   7.375  0.7233 -0.2320  0.8235
  197DOPC   H9R24412   2.942   8.447   7.300  0.4827  0.4656  1.0255
  197DOPC  C21024413   2.780   8.476   7.438  0.7824 -0.1907 -0.5638
  197DOPC  H10R24414   2.749   8.577   7.407 -0.3407 -1.0231 -2.3175
  197DOPC  C21124415   2.683   8.420   7.544 -0.3143  0.0413 -0.3636
  197DOPC  H11R24416   2.688   8.481   7.637 -1.4062  0.3327 -0.4872
  197DOPC  H11S24417   2.700   8.317   7.582  1.5105  0.4508  0.0560
  197DOPC  C21224418   2.534   8.419   7.507 -0.5438  0.5636  1.1423
  197DOPC  H12R24419   2.524   8.351   7.420  0.2405  1.9112 -0.0388
  197DOPC  H12S24420   2.506   8.524   7.481  1.7391  1.4303  1.8724
  197DOPC  C21324421   2.427   8.381   7.612  0.5445 -0.2140  0.1487
  197DOPC  H13R24422   2.327   8.389   7.565  0.1165 -1.0766  0.8820
  197DOPC  H13S24423   2.430   8.449   7.700 -3.7434  1.2487 -0.6036
  197DOPC  C21424424   2.440   8.240   7.663 -0.0936  0.5604  0.1570
  197DOPC  H14R24425   2.534   8.235   7.723 -0.9581 -0.4302  1.5016
  197DOPC  H14S24426   2.426   8.173   7.575 -1.3399 -0.2777  0.9518
  197DOPC  C21524427   2.331   8.185   7.757 -0.0356 -0.2987 -0.4087
  197DOPC  H15R24428   2.230   8.196   7.712  0.5022 -0.5774 -1.7185
  197DOPC  H15S24429   2.327   8.234   7.857  2.6373 -1.1095  0.1538
  197DOPC  C21624430   2.343   8.036   7.793 -0.2457  0.1862  0.0247
  197DOPC  H16R24431   2.437   8.013   7.848 -0.2803  0.2767  0.1244
  197DOPC  H16S24432   2.357   7.969   7.706 -0.0238  0.2324  0.0224
  197DOPC  C21724433   2.229   7.981   7.883  0.0860 -0.1249 -0.1232
  197DOPC  H17R24434   2.225   7.870   7.889 -1.3640 -0.0239  2.6784
  197DOPC  H17S24435   2.134   7.999   7.828  0.6851 -3.0550 -2.3899
  197DOPC  C21824436   2.227   8.037   8.028 -0.1663 -0.1683  0.4843
  197DOPC  H18R24437   2.219   8.148   8.034  0.3616 -0.1341  0.6919
  197DOPC  H18S24438   2.320   8.004   8.080  0.0663 -2.0147 -0.9963
  197DOPC  H18T24439   2.140   7.999   8.085 -1.5770  0.6475 -1.0556
  197DOPC   C3324440   3.306   8.604   7.226 -0.2576 -0.6638 -0.0120
  197DOPC   H3X24441   3.244   8.669   7.161  0.6690 -0.8937 -1.1756
  197DOPC   H3Y24442   3.403   8.658   7.215 -1.6904  2.3817  1.1216
  197DOPC   C3424443   3.270   8.599   7.376  0.1545 -0.2493  0.3199
  197DOPC   H4X24444   3.341   8.528   7.424  1.0558  2.2272  2.9671
  197DOPC   H4Y24445   3.167   8.560   7.391 -0.2432  0.9633  0.9201
  197DOPC   C3524446   3.294   8.733   7.452  0.0119  0.1521 -0.6898
  197DOPC   H5X24447   3.249   8.706   7.551  1.2357 -1.2048 -0.4713
  197DOPC   H5Y24448   3.228   8.813   7.411  0.0132  0.1371 -0.7202
  197DOPC   C3624449   3.434   8.780   7.458 -0.6222 -0.1781 -0.0363
  197DOPC   H6X24450   3.495   8.699   7.503 -0.7887  0.5710  1.5795
  197DOPC   H6Y24451   3.475   8.808   7.359 -0.6085  0.7140  0.2166
  197DOPC   C3724452   3.457   8.899   7.553 -0.3882 -0.4381  0.7188
  197DOPC   H7X24453   3.408   8.986   7.505  2.7557  0.5577 -0.9195
  197DOPC   H7Y24454   3.405   8.864   7.645  0.7530 -2.2860  0.7212
  197DOPC   C3824455   3.604   8.922   7.581 -0.0546 -1.0196  0.4905
  197DOPC   H8X24456   3.658   8.977   7.501 -0.3229  0.9599  1.5875
  197DOPC   H8Y24457   3.660   8.826   7.585  1.0788 -0.5265 -1.6973
  197DOPC   C3924458   3.622   9.016   7.697 -0.1648  0.1018 -0.1200
  197DOPC   H9X24459   3.585   9.118   7.676 -2.5915 -0.3031  1.6963
  197DOPC  C31024460   3.669   8.989   7.825 -1.2116 -0.4406  0.4460
  197DOPC  H10X24461   3.658   9.060   7.909 -1.7651 -1.3428  1.1537
  197DOPC  C31124462   3.713   8.851   7.875  0.0392  0.2592  0.1019
  197DOPC  H11X24463   3.822   8.840   7.892  0.3175  0.2356 -1.5312
  197DOPC  H11Y24464   3.687   8.772   7.801  0.1434 -0.8161  1.1829
  197DOPC  C31224465   3.629   8.819   8.000  0.2080 -0.2688 -0.2325
  197DOPC  H12X24466   3.630   8.709   8.019  0.1407 -0.4322 -1.1213
  197DOPC  H12Y24467   3.523   8.849   7.991 -0.6656 -3.0739 -0.2485
  197DOPC  C31324468   3.668   8.879   8.132  0.1706  0.0589 -0.5132
  197DOPC  H13X24469   3.660   8.989   8.126 -0.0998  0.1730  1.2947
  197DOPC  H13Y24470   3.586   8.846   8.199  1.2048  1.3993  1.5337
  197DOPC  C31424471   3.820   8.851   8.169 -0.2991 -0.4989 -0.0176
  197DOPC  H14X24472   3.837   8.750   8.125  0.0433 -0.6017  0.3387
  197DOPC  H14Y24473   3.880   8.931   8.120 -0.1821 -0.0507  0.8431
  197DOPC  C31524474   3.838   8.838   8.316  0.1162  0.0897 -0.0333
  197DOPC  H15X24475   3.773   8.754   8.348 -0.1195  0.2469 -0.1055
  197DOPC  H15Y24476   3.803   8.929   8.369 -0.7818 -0.5699  0.5420
  197DOPC  C31624477   3.972   8.797   8.366 -0.0239 -0.6079 -0.2040
  197DOPC  H16X24478   3.971   8.748   8.465  0.1901  0.3936  0.3036
  197DOPC  H16Y24479   4.019   8.725   8.295 -1.9872 -1.2444 -0.9633
  197DOPC  C31724480   4.076   8.915   8.381 -0.3095  0.4615 -0.0970
  197DOPC  H17X24481   4.179   8.877   8.397 -0.7687 -1.0878 -0.6665
  197DOPC  H17Y24482   4.075   8.960   8.279  2.9119 -1.3283 -1.0273
  197DOPC  C31824483   4.040   9.020   8.487  0.4131  0.2030  0.7290
  197DOPC  H18X24484   4.023   8.977   8.588 -2.5295  0.6848  0.5084
  197DOPC  H18Y24485   4.121   9.094   8.508  0.1985  0.1593  1.7642
  197DOPC  H18Z24486   3.948   9.079   8.468  0.4812  1.1395  2.9247
  198DOPC     N24487   0.129   6.048   6.396 -0.2433 -0.4947  1.0777
  198DOPC   C1224488   0.233   6.155   6.435 -1.0088  0.0842 -0.0226
  198DOPC  H12A24489   0.238   6.224   6.352 -0.8673  1.6940  1.2691
  198DOPC  H12B24490   0.329   6.107   6.451  0.6435  3.2319  0.4069
  198DOPC   C1324491   0.193   5.962   6.293 -0.0125 -0.2010 -0.1626
  198DOPC  H13A24492   0.282   5.907   6.320 -1.3280 -2.8878 -1.0181
  198DOPC  H13B24493   0.126   5.879   6.280  1.7952 -1.9002  0.8021
  198DOPC  H13C24494   0.204   6.020   6.203 -1.0240  0.2708  0.0024
  198DOPC   C1424495   0.008   6.116   6.328 -1.2394 -0.0715 -0.4163
  198DOPC  H14A24496  -0.080   6.053   6.327 -1.2516 -0.0576 -1.7185
  198DOPC  H14B24497  -0.007   6.200   6.395  0.2450 -0.1762  0.0921
  198DOPC  H14C24498   0.039   6.151   6.231 -0.7913  2.1755  0.4713
  198DOPC   C1524499   0.077   5.968   6.512 -0.2808 -0.8033 -0.5730
  198DOPC  H15A24500   0.157   5.907   6.553  1.0976  2.5003  2.2057
  198DOPC  H15B24501  -0.009   5.909   6.483 -0.6337 -0.3722 -0.4116
  198DOPC  H15C24502   0.037   6.028   6.592 -0.7670  0.6168 -1.8409
  198DOPC   C1124503   0.208   6.231   6.566 -1.1076  0.7755 -0.6961
  198DOPC  H11A24504   0.204   6.167   6.657 -2.5767  1.1865 -0.4311
  198DOPC  H11B24505   0.292   6.304   6.575  0.3556 -0.9536  0.2169
  198DOPC     P24506  -0.023   6.298   6.667  0.3990  0.4240  0.3355
  198DOPC   O1324507  -0.031   6.168   6.728 -0.3392 -0.0518  0.0543
  198DOPC   O1424508  -0.141   6.351   6.606 -0.3073 -0.2790  0.3338
  198DOPC   O1224509   0.090   6.303   6.555 -0.3602 -0.0065  0.0848
  198DOPC   O1124510   0.024   6.411   6.765 -0.2511  0.6069  0.1552
  198DOPC    C124511   0.116   6.399   6.875  0.3717 -0.4508  0.2579
  198DOPC    HA24512   0.147   6.497   6.917  1.0137  0.5771 -2.3997
  198DOPC    HB24513   0.212   6.349   6.850  0.3764 -0.7792  0.8933
  198DOPC    C224514   0.057   6.320   6.998 -0.2750  0.3803 -0.0088
  198DOPC    HS24515  -0.016   6.250   6.951  0.2895 -1.0467  1.1364
  198DOPC   O2124516  -0.014   6.397   7.098 -0.0440 -0.6875  0.4726
  198DOPC   C2124517  -0.095   6.335   7.173 -0.2951 -0.5764  0.4951
  198DOPC   O2224518  -0.106   6.211   7.186 -0.3580 -0.3771  0.2372
  198DOPC   C2224519  -0.166   6.432   7.265 -0.4113 -0.2940  0.1017
  198DOPC   H2R24520  -0.236   6.487   7.198  1.7047  3.3025  0.5365
  198DOPC   H2S24521  -0.097   6.507   7.310  0.1366  0.3155 -1.6680
  198DOPC    C324522   0.160   6.227   7.069 -0.6138 -0.4009  0.0420
  198DOPC    HX24523   0.203   6.164   6.988 -0.6467 -1.5044  0.8648
  198DOPC    HY24524   0.106   6.152   7.131  0.5598 -1.5402 -0.2795
  198DOPC   O3124525   0.256   6.300   7.147  0.0407 -0.2065  0.2419
  198DOPC   C3124526   0.380   6.308   7.090  0.7275 -0.4945  0.4497
  198DOPC   O3224527   0.404   6.252   6.986 -0.4331 -0.0840 -0.2631
  198DOPC   C3224528   0.476   6.394   7.165  0.2558  0.2648  0.4389
  198DOPC   H2X24529   0.440   6.498   7.147  0.1806  0.2206  0.3266
  198DOPC   H2Y24530   0.463   6.377   7.274 -1.0799  0.5059  0.3333
  198DOPC   C2324531  -0.246   6.356   7.380  0.0586 -0.3429  0.6930
  198DOPC   H3R24532  -0.179   6.314   7.458 -1.2009 -1.9336  0.9573
  198DOPC   H3S24533  -0.294   6.265   7.338 -0.2367 -1.1972  2.7724
  198DOPC   C2424534  -0.349   6.438   7.438  0.0258 -0.0151 -0.3856
  198DOPC   H4R24535  -0.434   6.450   7.368  0.1687 -1.4153 -0.8429
  198DOPC   H4S24536  -0.311   6.540   7.457 -1.3317  0.4382 -0.0401
  198DOPC   C2524537  -0.403   6.369   7.568 -0.5760 -0.8125 -0.5708
  198DOPC   H5R24538  -0.489   6.429   7.604  0.4958 -0.7898  2.3012
  198DOPC   H5S24539  -0.321   6.371   7.644  0.2412  2.0075 -1.3974
  198DOPC   C2624540  -0.446   6.222   7.557  0.1023 -0.5604  0.3796
  198DOPC   H6R24541  -0.373   6.162   7.498  1.0255 -0.1926  1.1141
  198DOPC   H6S24542  -0.535   6.237   7.493  0.0189  0.4784  0.7220
  198DOPC   C2724543  -0.472   6.157   7.689  0.5197  0.5650 -0.1610
  198DOPC   H7R24544  -0.472   6.230   7.772  0.1121 -1.5833  1.8276
  198DOPC   H7S24545  -0.386   6.091   7.714 -0.4105  0.0825  1.9495
  198DOPC   C2824546  -0.596   6.068   7.695 -0.3725  0.3227 -0.6651
  198DOPC   H8R24547  -0.587   6.015   7.792  1.7215 -0.4814 -1.2605
  198DOPC   H8S24548  -0.587   5.982   7.626  1.8189  1.2991 -1.6716
  198DOPC   C2924549  -0.733   6.125   7.693 -0.3691  0.1783 -0.1564
  198DOPC   H9R24550  -0.743   6.219   7.749  0.7581 -0.7532  1.7120
  198DOPC  C21024551  -0.851   6.068   7.650  0.2756 -0.2505 -0.1000
  198DOPC  H10R24552  -0.939   6.132   7.640  0.5068  0.2304  0.8197
  198DOPC  C21124553  -0.866   5.929   7.593  0.4265  0.0285 -0.0788
  198DOPC  H11R24554  -0.932   5.876   7.665 -0.5814  0.7164 -0.4850
  198DOPC  H11S24555  -0.774   5.867   7.593 -0.5389 -1.5879 -2.9396
  198DOPC  C21224556  -0.931   5.925   7.455 -0.5370  0.2452  0.2741
  198DOPC  H12R24557  -0.856   5.967   7.385 -1.4960  0.0123 -0.9182
  198DOPC  H12S24558  -1.021   5.989   7.444 -0.6249  0.1261  0.2997
  198DOPC  C21324559  -0.953   5.775   7.415 -0.5585 -0.1381  1.2273
  198DOPC  H13R24560  -1.009   5.726   7.498 -1.6222  1.0474  1.2445
  198DOPC  H13S24561  -0.858   5.719   7.426 -0.5809  0.1592  3.3951
  198DOPC  C21424562  -1.038   5.757   7.283 -0.1031  0.2657  0.2145
  198DOPC  H14R24563  -1.134   5.813   7.288 -0.5750 -0.5357  0.2141
  198DOPC  H14S24564  -1.071   5.651   7.281 -0.0575  0.2429  0.6543
  198DOPC  C21524565  -0.950   5.783   7.166  0.9792 -0.5060  0.1280
  198DOPC  H15R24566  -0.847   5.745   7.180  1.7920  0.8650 -1.7412
  198DOPC  H15S24567  -0.937   5.893   7.155 -1.1475 -0.4027 -2.3021
  198DOPC  C21624568  -1.008   5.737   7.027 -0.4925  0.5180  0.4545
  198DOPC  H16R24569  -0.959   5.795   6.946 -2.7401  2.1487  0.1846
  198DOPC  H16S24570  -1.109   5.782   7.020 -0.5349  0.3120 -0.3588
  198DOPC  C21724571  -1.013   5.585   7.002 -0.7578  0.0425 -0.5244
  198DOPC  H17R24572  -1.061   5.557   6.906  0.8148 -0.8216 -1.1004
  198DOPC  H17S24573  -1.085   5.535   7.071  2.1976  0.0655  2.9166
  198DOPC  C21824574  -0.874   5.525   7.014 -0.1666 -0.0989 -0.3674
  198DOPC  H18R24575  -0.877   5.420   6.977  0.2336 -0.5774  0.9104
  198DOPC  H18S24576  -0.838   5.530   7.119  0.1275  0.6698 -0.4945
  198DOPC  H18T24577  -0.801   5.579   6.949 -0.2490 -0.3021 -0.6319
  198DOPC   C3324578   0.627   6.370   7.133 -0.0477 -0.3789 -0.0188
  198DOPC   H3X24579   0.655   6.402   7.030  1.9518 -0.8219  0.3326
  198DOPC   H3Y24580   0.648   6.261   7.138  0.5435 -0.6766 -4.4082
  198DOPC   C3424581   0.718   6.418   7.242  0.0463 -0.5253  0.5920
  198DOPC   H4X24582   0.696   6.370   7.339  3.3715  0.7669  2.1205
  198DOPC   H4Y24583   0.691   6.523   7.269  2.3124 -0.1632  1.6036
  198DOPC   C3524584   0.862   6.399   7.202 -0.4126 -0.0355 -0.6030
  198DOPC   H5X24585   0.884   6.428   7.097  0.6245 -0.9913 -0.6642
  198DOPC   H5Y24586   0.876   6.289   7.203 -1.0271 -0.1171  0.1290
  198DOPC   C3624587   0.967   6.470   7.292 -0.5267  0.0847  0.2466
  198DOPC   H6X24588   1.073   6.444   7.272 -0.2824 -0.5605  2.1720
  198DOPC   H6Y24589   0.967   6.576   7.260  1.3387 -0.6722 -2.6353
  198DOPC   C3724590   0.955   6.454   7.442 -0.3195 -0.2888  0.0945
  198DOPC   H7X24591   0.853   6.468   7.482 -0.2725 -1.5017  0.6901
  198DOPC   H7Y24592   0.975   6.350   7.475 -3.7728 -1.2954 -0.5774
  198DOPC   C3824593   1.048   6.549   7.519 -0.5680 -0.1426  0.4255
  198DOPC   H8X24594   1.149   6.550   7.472 -1.0490  1.7454 -0.6851
  198DOPC   H8Y24595   1.064   6.509   7.621  0.0532  0.3953  0.5481
  198DOPC   C3924596   0.989   6.693   7.512  0.2761  0.1415 -0.3737
  198DOPC   H9X24597   0.907   6.716   7.443  0.3848  2.5100  0.2244
  198DOPC  C31024598   1.042   6.785   7.586  0.3913  0.3981 -0.4703
  198DOPC  H10X24599   0.993   6.882   7.566 -2.9536 -1.2471 -0.8049
  198DOPC  C31124600   1.161   6.783   7.675 -0.4904 -0.4743 -0.5196
  198DOPC  H11X24601   1.231   6.698   7.659  1.1461  0.7834 -0.4097
  198DOPC  H11Y24602   1.133   6.793   7.782 -0.0338 -1.3043 -0.3164
  198DOPC  C31224603   1.240   6.914   7.639  0.5380  0.8415 -0.3665
  198DOPC  H12X24604   1.176   6.995   7.680 -0.5655  0.6087 -1.5616
  198DOPC  H12Y24605   1.244   6.919   7.528  1.2398 -1.6697 -0.5148
  198DOPC  C31324606   1.382   6.928   7.697 -0.1894  0.2924 -0.0359
  198DOPC  H13X24607   1.367   6.925   7.807 -1.4881 -0.9346 -0.2198
  198DOPC  H13Y24608   1.444   6.843   7.665 -2.8303 -1.1580 -1.7010
  198DOPC  C31424609   1.461   7.059   7.659  0.2424 -0.3720 -0.3971
  198DOPC  H14X24610   1.487   7.058   7.551 -2.4668 -1.0524 -1.1440
  198DOPC  H14Y24611   1.387   7.140   7.677  0.7043  0.3020 -1.4390
  198DOPC  C31524612   1.590   7.076   7.744  0.2600  0.0763 -0.6065
  198DOPC  H15X24613   1.558   7.053   7.848  0.0374 -0.6739 -0.8342
  198DOPC  H15Y24614   1.629   7.179   7.735 -1.2655  0.8239  0.8042
  198DOPC  C31624615   1.702   6.965   7.717  0.0216  0.6343 -0.3840
  198DOPC  H16X24616   1.662   6.885   7.651 -2.1823 -0.6115  2.2655
  198DOPC  H16Y24617   1.794   7.009   7.671  0.7015 -2.1698 -1.9866
  198DOPC  C31724618   1.760   6.902   7.843 -0.0628 -0.4112 -0.0023
  198DOPC  H17X24619   1.852   6.843   7.819 -0.1315 -0.2089 -0.7972
  198DOPC  H17Y24620   1.793   6.987   7.906  0.8258  0.8515 -2.0661
  198DOPC  C31824621   1.661   6.799   7.913 -0.0187 -0.2591 -0.3886
  198DOPC  H18X24622   1.700   6.753   8.006  1.5057  1.9186  0.1246
  198DOPC  H18Y24623   1.570   6.860   7.931 -0.2743 -0.1072 -1.9996
  198DOPC  H18Z24624   1.631   6.719   7.842 -0.9100  1.3217 -1.8696
  199DOPC     N24625   8.069   7.327   6.386  0.4672  0.1787  0.3766
  199DOPC   C1224626   7.984   7.406   6.490  0.3956  0.2562 -0.4189
  199DOPC  H12A24627   7.920   7.331   6.534 -2.1824  0.7302 -3.0654
  199DOPC  H12B24628   7.919   7.480   6.445 -0.9807  0.7795  2.2378
  199DOPC   C1324629   7.981   7.272   6.274  0.0488  0.0726  0.9446
  199DOPC  H13A24630   7.926   7.351   6.224 -2.0040 -0.3529  2.4202
  199DOPC  H13B24631   8.041   7.216   6.204  0.7782 -0.4880  1.9911
  199DOPC  H13C24632   7.910   7.199   6.310  0.3437 -0.1822  1.0217
  199DOPC   C1424633   8.152   7.221   6.446  0.0444  0.0948  0.7370
  199DOPC  H14A24634   8.237   7.192   6.384  1.3239 -0.1611  2.5402
  199DOPC  H14B24635   8.187   7.249   6.544 -0.7637 -2.3941  1.8334
  199DOPC  H14C24636   8.092   7.139   6.482 -0.7649 -0.4565 -1.6366
  199DOPC   C1524637   8.158   7.422   6.323 -0.3047 -0.6629  0.1457
  199DOPC  H15A24638   8.219   7.382   6.243 -0.0429  0.6702 -0.3392
  199DOPC  H15B24639   8.233   7.453   6.393 -1.5558  3.2478 -0.0519
  199DOPC  H15C24640   8.106   7.507   6.281 -3.4543 -2.3419  0.2658
  199DOPC   C1124641   8.058   7.467   6.605  0.3704  0.6866 -0.4044
  199DOPC  H11A24642   8.112   7.558   6.572  0.9301  0.8696  0.9690
  199DOPC  H11B24643   8.001   7.519   6.685  1.1098  2.0148 -0.7156
  199DOPC     P24644   8.182   7.379   6.833 -0.2096 -0.2192 -0.3017
  199DOPC   O1324645   8.237   7.515   6.853 -0.0830 -0.1754 -0.3613
  199DOPC   O1424646   8.260   7.254   6.861  0.1325 -0.8251 -0.1216
  199DOPC   O1224647   8.141   7.364   6.680 -0.5598 -0.1762 -0.2330
  199DOPC   O1124648   8.039   7.372   6.902 -0.8668 -0.6157  0.0202
  199DOPC    C124649   7.949   7.269   6.872  0.1873 -0.7728  0.6255
  199DOPC    HA24650   7.976   7.209   6.782  1.2443 -0.0583  0.4475
  199DOPC    HB24651   7.853   7.317   6.846  0.5886 -0.1861  0.2119
  199DOPC    C224652   7.927   7.172   6.997 -1.0246 -0.8110 -0.4690
  199DOPC    HS24653   7.859   7.094   6.957 -1.3862 -0.2659 -0.9344
  199DOPC   O2124654   7.884   7.247   7.110 -0.2961 -0.8751  0.5021
  199DOPC   C2124655   7.790   7.204   7.189 -0.0733  0.1623  0.3464
  199DOPC   O2224656   7.727   7.100   7.174  0.4604  0.2468 -0.0826
  199DOPC   C2224657   7.762   7.301   7.299  0.6239 -0.5680 -0.0882
  199DOPC   H2R24658   7.677   7.366   7.267  0.4646 -0.4060  0.6511
  199DOPC   H2S24659   7.853   7.362   7.319  0.5663  0.7270 -3.1389
  199DOPC    C324660   8.054   7.091   7.045  0.1663 -0.8058 -0.0217
  199DOPC    HX24661   8.116   7.162   7.104 -0.6906 -0.2369  0.2033
  199DOPC    HY24662   8.123   7.053   6.967 -0.9931 -1.1916 -0.8846
  199DOPC   O3124663   8.012   6.984   7.142 -0.4121 -0.7900 -0.2303
  199DOPC   C3124664   7.994   6.869   7.091  0.2019 -0.3202  1.0574
  199DOPC   O3224665   8.009   6.834   6.972  0.0079  0.2654 -0.0275
  199DOPC   C3224666   7.936   6.786   7.205  0.5040 -0.0156 -0.1876
  199DOPC   H2X24667   8.002   6.781   7.294 -0.2568  0.9279  0.4540
  199DOPC   H2Y24668   7.851   6.845   7.246  0.1029 -0.6285 -0.1063
  199DOPC   C2324669   7.732   7.221   7.432 -0.2988 -0.3665 -0.4370
  199DOPC   H3R24670   7.828   7.178   7.470 -0.1700  0.4787  0.2395
  199DOPC   H3S24671   7.677   7.129   7.405  2.0796 -1.8776 -0.4712
  199DOPC   C2424672   7.669   7.308   7.542  0.8093  0.3293  0.0069
  199DOPC   H4R24673   7.636   7.238   7.622 -0.7465 -1.8806 -2.3891
  199DOPC   H4S24674   7.574   7.339   7.493  1.1382 -2.1612 -2.4595
  199DOPC   C2524675   7.745   7.428   7.592  0.3125 -0.3458  0.2174
  199DOPC   H5R24676   7.763   7.490   7.501  0.4166 -0.5179  0.1179
  199DOPC   H5S24677   7.841   7.391   7.635  0.0342 -1.5376 -0.1252
  199DOPC   C2624678   7.667   7.510   7.694 -0.8777 -0.2310  0.1215
  199DOPC   H6R24679   7.739   7.589   7.722  0.2461 -1.4566  0.7523
  199DOPC   H6S24680   7.646   7.442   7.780 -1.3876 -2.4337 -1.6497
  199DOPC   C2724681   7.534   7.580   7.657  0.0395 -0.7732  0.0899
  199DOPC   H7R24682   7.499   7.641   7.742 -1.5619 -1.5116 -0.0020
  199DOPC   H7S24683   7.452   7.508   7.636 -1.5245  1.2161 -0.9788
  199DOPC   C2824684   7.549   7.683   7.541 -0.1459 -0.3704 -0.1383
  199DOPC   H8R24685   7.590   7.630   7.452  1.0992  3.5120 -2.1184
  199DOPC   H8S24686   7.625   7.760   7.567 -1.1111  0.1138  1.3961
  199DOPC   C2924687   7.417   7.736   7.495 -0.1953  0.0338 -0.3799
  199DOPC   H9R24688   7.368   7.669   7.424 -2.0596  1.9372 -0.9849
  199DOPC  C21024689   7.361   7.862   7.523  0.3019  0.5568  0.2683
  199DOPC  H10R24690   7.262   7.897   7.492  0.3623  0.9572  0.5275
  199DOPC  C21124691   7.429   7.977   7.602  0.1126  0.6154 -0.1714
  199DOPC  H11R24692   7.438   8.069   7.541 -0.8813  0.4698 -0.5540
  199DOPC  H11S24693   7.534   7.948   7.623 -0.2816 -0.9040 -0.1305
  199DOPC  C21224694   7.351   8.005   7.729  0.1551 -0.0842  0.3767
  199DOPC  H12R24695   7.242   8.018   7.712  0.2238  1.9849  1.1737
  199DOPC  H12S24696   7.382   8.105   7.766 -1.2535  0.2483  0.7182
  199DOPC  C21324697   7.361   7.901   7.849  0.3895  0.3464  0.1815
  199DOPC  H13R24698   7.344   7.957   7.943 -0.0445  1.3409 -0.4720
  199DOPC  H13S24699   7.469   7.875   7.855  1.7216  5.0003  0.9152
  199DOPC  C21424700   7.269   7.774   7.839  0.0958  0.1403 -0.0100
  199DOPC  H14R24701   7.295   7.719   7.746 -0.9314 -2.1179  0.9724
  199DOPC  H14S24702   7.162   7.804   7.844  0.4405  1.1671  2.4254
  199DOPC  C21524703   7.298   7.667   7.943  0.1963  0.2136 -0.7411
  199DOPC  H15R24704   7.284   7.717   8.041  2.6531 -0.8907  0.2652
  199DOPC  H15S24705   7.402   7.627   7.943 -0.6393 -2.1772 -1.8331
  199DOPC  C21624706   7.217   7.529   7.935 -0.1434 -0.5773  0.5595
  199DOPC  H16R24707   7.261   7.474   7.849  0.0989  2.1305 -1.1604
  199DOPC  H16S24708   7.112   7.559   7.918  0.5782  0.0056 -4.2719
  199DOPC  C21724709   7.245   7.439   8.055  0.6068 -0.2083  0.0039
  199DOPC  H17R24710   7.205   7.488   8.147 -0.0481  2.1040 -1.4403
  199DOPC  H17S24711   7.352   7.409   8.062 -0.0238 -2.5701  0.3787
  199DOPC  C21824712   7.162   7.308   8.051 -0.2720 -0.2070 -0.2015
  199DOPC  H18R24713   7.172   7.262   7.950  1.0641 -0.6182  0.1004
  199DOPC  H18S24714   7.055   7.332   8.067 -1.0748 -1.2795 -3.2596
  199DOPC  H18T24715   7.203   7.231   8.120 -0.4673 -0.1465 -0.0176
  199DOPC   C3324716   7.882   6.641   7.163  0.0200  0.6132 -0.3249
  199DOPC   H3X24717   7.975   6.592   7.127 -1.0245 -0.6820 -1.3175
  199DOPC   H3Y24718   7.828   6.647   7.066 -0.4939  0.8305 -0.0284
  199DOPC   C3424719   7.806   6.570   7.269 -0.2806  0.3868  0.1667
  199DOPC   H4X24720   7.852   6.564   7.371 -2.6169  1.7862  1.3834
  199DOPC   H4Y24721   7.791   6.465   7.238  0.1368  1.1730 -3.0300
  199DOPC   C3524722   7.667   6.634   7.311  0.1183  0.6329 -0.2234
  199DOPC   H5X24723   7.612   6.661   7.218 -0.9503  0.6805  0.4065
  199DOPC   H5Y24724   7.682   6.721   7.379  0.3224  0.1327  0.3866
  199DOPC   C3624725   7.570   6.537   7.380  0.4016  0.6517 -0.0595
  199DOPC   H6X24726   7.484   6.606   7.396 -0.2753 -0.1602 -0.1064
  199DOPC   H6Y24727   7.541   6.456   7.310  0.8478  0.8865 -0.5257
  199DOPC   C3724728   7.616   6.482   7.513 -0.1441  0.0601 -0.5788
  199DOPC   H7X24729   7.538   6.414   7.553  2.3578 -0.6507  3.7663
  199DOPC   H7Y24730   7.700   6.409   7.505 -1.9936 -2.2159 -0.2382
  199DOPC   C3824731   7.665   6.582   7.623  0.7252 -0.1189  0.5641
  199DOPC   H8X24732   7.632   6.675   7.573 -1.8584 -0.9879  0.4696
  199DOPC   H8Y24733   7.776   6.591   7.619  0.7531 -0.3291  0.8104
  199DOPC   C3924734   7.610   6.580   7.765 -0.3775  0.4144  0.2519
  199DOPC   H9X24735   7.521   6.515   7.775 -1.5968  1.7045 -1.6299
  199DOPC  C31024736   7.662   6.656   7.861 -0.5841  0.2415 -0.6262
  199DOPC  H10X24737   7.615   6.645   7.960 -1.0423 -0.6459 -0.9266
  199DOPC  C31124738   7.781   6.748   7.848  0.0184 -0.3430 -0.2617
  199DOPC  H11X24739   7.844   6.720   7.761  2.8096 -0.2124  1.6103
  199DOPC  H11Y24740   7.843   6.747   7.939 -1.8632  0.7332  1.1051
  199DOPC  C31224741   7.733   6.894   7.815 -0.0308  0.1970 -0.6272
  199DOPC  H12X24742   7.664   6.888   7.728 -1.2220 -2.2749  0.3829
  199DOPC  H12Y24743   7.830   6.943   7.792 -1.5525  3.3922 -0.7481
  199DOPC  C31324744   7.666   6.967   7.933  0.2298 -0.3971  0.4944
  199DOPC  H13X24745   7.571   6.919   7.961  0.2931 -0.3211  0.8419
  199DOPC  H13Y24746   7.734   6.976   8.020 -2.1840 -1.2957  2.5915
  199DOPC  C31424747   7.638   7.114   7.898 -0.0826 -0.1231  0.5554
  199DOPC  H14X24748   7.734   7.160   7.866 -0.9058  1.4518  0.2615
  199DOPC  H14Y24749   7.575   7.124   7.807 -0.4847 -0.8718  0.7411
  199DOPC  C31524750   7.565   7.198   8.006 -0.0721  0.0048  0.4317
  199DOPC  H15X24751   7.473   7.144   8.035  0.3119  0.4850  2.6960
  199DOPC  H15Y24752   7.540   7.297   7.962 -2.6256  0.0055  1.7271
  199DOPC  C31624753   7.646   7.217   8.138 -0.2071 -0.4510 -0.0672
  199DOPC  H16X24754   7.674   7.120   8.186  2.2590  0.7415  1.0309
  199DOPC  H16Y24755   7.740   7.271   8.116 -0.5264  0.6922  1.2627
  199DOPC  C31724756   7.570   7.314   8.240  0.0200  1.0506 -0.3035
  199DOPC  H17X24757   7.543   7.413   8.198 -0.8309  0.7634 -0.4460
  199DOPC  H17Y24758   7.474   7.263   8.264  0.6219  0.7172  1.5674
  199DOPC  C31824759   7.647   7.338   8.372  0.2162 -0.8362 -0.4487
  199DOPC  H18X24760   7.703   7.432   8.354 -0.0199 -0.5971  0.0681
  199DOPC  H18Y24761   7.579   7.348   8.459  0.1443  0.5929 -0.6441
  199DOPC  H18Z24762   7.728   7.265   8.387  0.1440 -0.8979 -0.3553
  200DOPC     N24763   0.618   1.334   5.925  0.1408  0.0025  0.4459
  200DOPC   C1224764   0.729   1.374   6.023 -0.2315 -0.5355 -0.3484
  200DOPC  H12A24765   0.683   1.416   6.111  1.5384 -1.2331  0.9413
  200DOPC  H12B24766   0.796   1.450   5.987  1.6310 -1.7128  0.5086
  200DOPC   C1324767   0.533   1.443   5.875 -0.6350  0.4705  0.0005
  200DOPC  H13A24768   0.573   1.489   5.786  1.5763 -0.3627  0.5060
  200DOPC  H13B24769   0.430   1.413   5.860 -0.4665 -0.1970  0.1292
  200DOPC  H13C24770   0.510   1.522   5.944 -1.8296 -0.2806  0.4945
  200DOPC   C1424771   0.537   1.237   5.994  0.1899 -0.1656 -0.2189
  200DOPC  H14A24772   0.453   1.210   5.932 -0.1808 -0.0796  0.2410
  200DOPC  H14B24773   0.589   1.147   6.022  0.1722 -0.0265  0.2649
  200DOPC  H14C24774   0.490   1.272   6.084 -0.8386 -0.6250 -0.5661
  200DOPC   C1524775   0.666   1.254   5.803 -0.0857 -0.2706 -0.7110
  200DOPC  H15A24776   0.683   1.322   5.722 -0.9058  0.3789 -0.3545
  200DOPC  H15B24777   0.585   1.191   5.769 -0.1190  0.3101 -1.7397
  200DOPC  H15C24778   0.739   1.181   5.835 -0.1119  0.2327  0.5689
  200DOPC   C1124779   0.826   1.263   6.068 -0.3933  0.5602  0.1743
  200DOPC  H11A24780   0.877   1.218   5.979 -0.1918 -1.7997  1.3850
  200DOPC  H11B24781   0.901   1.303   6.139 -2.0768  1.3166  1.5930
  200DOPC     P24782   0.737   1.123   6.273  0.3318 -0.3473 -0.1335
  200DOPC   O1324783   0.741   0.977   6.304 -0.1756 -0.1689 -0.7388
  200DOPC   O1424784   0.609   1.199   6.305 -0.2678 -0.6046  0.1630
  200DOPC   O1224785   0.763   1.147   6.125 -0.0536 -0.4980 -0.1393
  200DOPC   O1124786   0.856   1.195   6.350  0.4095  0.1183 -0.0712
  200DOPC    C124787   0.868   1.173   6.495 -0.0238 -0.6602  0.9934
  200DOPC    HA24788   0.838   1.072   6.528  0.7943 -1.0429  0.5920
  200DOPC    HB24789   0.801   1.246   6.546 -0.6330  0.7716 -1.6461
  200DOPC    C224790   1.017   1.179   6.551  0.0961  0.0796  0.1626
  200DOPC    HS24791   1.062   1.259   6.488  0.3304  1.5269  2.0913
  200DOPC   O2124792   1.079   1.047   6.532 -0.3502 -0.7288 -0.0608
  200DOPC   C2124793   1.202   1.053   6.591 -0.0819  0.2047  0.1537
  200DOPC   O2224794   1.274   1.149   6.608  0.8797 -1.1432  0.0774
  200DOPC   C2224795   1.241   0.907   6.626 -0.5372 -0.3860  0.0031
  200DOPC   H2R24796   1.285   0.857   6.537 -1.4148 -0.8609 -0.1711
  200DOPC   H2S24797   1.147   0.858   6.658 -1.1126  1.5010  1.4114
  200DOPC    C324798   1.009   1.225   6.698 -0.0898 -0.6003  0.3376
  200DOPC    HX24799   0.922   1.294   6.707  0.3298  0.0727 -0.5924
  200DOPC    HY24800   1.095   1.288   6.730  1.3588 -3.5223  2.7482
  200DOPC   O3124801   1.000   1.124   6.802 -0.0221  0.1804 -0.0291
  200DOPC   C3124802   0.882   1.087   6.853  0.4653 -0.4032  0.0302
  200DOPC   O3224803   0.776   1.113   6.801 -0.0652  0.4318  0.4523
  200DOPC   C3224804   0.899   1.010   6.987 -0.2057  0.0005 -0.2371
  200DOPC   H2X24805   0.971   0.928   6.966  0.0742  0.2510 -0.2516
  200DOPC   H2Y24806   0.945   1.067   7.070  0.2005 -1.1129  0.3312
  200DOPC   C2324807   1.342   0.898   6.744  0.4013 -0.6505 -0.5303
  200DOPC   H3R24808   1.283   0.924   6.835 -1.3157  0.4711 -1.9056
  200DOPC   H3S24809   1.424   0.972   6.733 -0.0862  0.0615  0.4393
  200DOPC   C2424810   1.395   0.760   6.767 -0.2919  0.2510  0.4378
  200DOPC   H4R24811   1.460   0.739   6.680  0.1298  0.5669  0.6676
  200DOPC   H4S24812   1.323   0.676   6.761  0.2981 -0.1631 -1.0285
  200DOPC   C2524813   1.475   0.747   6.893 -0.1857  0.2669  0.3771
  200DOPC   H5R24814   1.418   0.798   6.973 -1.3851  0.4406 -0.5495
  200DOPC   H5S24815   1.567   0.804   6.867 -0.2883  0.1717 -0.2319
  200DOPC   C2624816   1.514   0.602   6.933 -0.4595 -0.3124 -0.3397
  200DOPC   H6R24817   1.512   0.532   6.847 -1.5467 -0.1420 -0.4645
  200DOPC   H6S24818   1.428   0.571   6.996  0.1490  0.9281  1.1874
  200DOPC   C2724819   1.653   0.594   6.999 -0.1438  0.3760  0.4398
  200DOPC   H7R24820   1.651   0.659   7.089 -0.0316  1.3155 -0.2140
  200DOPC   H7S24821   1.734   0.626   6.930  0.4790 -0.9103  0.5549
  200DOPC   C2824822   1.696   0.454   7.042 -0.0512  0.0569 -0.0155
  200DOPC   H8R24823   1.618   0.408   7.107  0.5378  0.7274  1.1949
  200DOPC   H8S24824   1.784   0.463   7.109  0.4249  3.5597 -0.9454
  200DOPC   C2924825   1.716   0.354   6.936 -0.1061  0.7006  0.3788
  200DOPC   H9R24826   1.806   0.374   6.876  0.8217 -1.9526  0.7478
  200DOPC  C21024827   1.658   0.234   6.913 -0.3574  0.3558 -0.1612
  200DOPC  H10R24828   1.722   0.165   6.856 -0.2486  0.9926 -0.8299
  200DOPC  C21124829   1.542   0.179   6.983 -0.3123  0.3573  0.5159
  200DOPC  H11R24830   1.470   0.131   6.915 -0.1076  1.5287 -0.5671
  200DOPC  H11S24831   1.491   0.267   7.027  1.9092  1.3336  1.3385
  200DOPC  C21224832   1.576   0.073   7.089  0.2337  0.9205  0.4878
  200DOPC  H12R24833   1.620  -0.012   7.032 -0.8275  1.5948 -1.4281
  200DOPC  H12S24834   1.490   0.021   7.136  0.7448  0.8352  1.3584
  200DOPC  C21324835   1.660   0.117   7.207  0.1306 -0.9912 -0.6230
  200DOPC  H13R24836   1.622   0.061   7.295  0.2533 -1.2854 -0.7551
  200DOPC  H13S24837   1.631   0.221   7.233  2.4437 -0.6566  0.9911
  200DOPC  C21424838   1.812   0.101   7.196  0.3616 -1.2603 -0.7922
  200DOPC  H14R24839   1.855   0.134   7.292  1.0899  0.6019 -1.7135
  200DOPC  H14S24840   1.848   0.170   7.117  1.2095 -0.0235  0.6301
  200DOPC  C21524841   1.852  -0.042   7.168 -0.2038 -0.6764 -0.2556
  200DOPC  H15R24842   1.792  -0.080   7.083 -0.3082 -0.9588 -0.0586
  200DOPC  H15S24843   1.828  -0.106   7.255 -1.5501  1.7295  1.2655
  200DOPC  C21624844   2.000  -0.051   7.125  0.5011  0.3732  0.6246
  200DOPC  H16R24845   2.066  -0.036   7.213  2.0334  1.4703 -0.6839
  200DOPC  H16S24846   2.027   0.029   7.054 -0.2314  0.6133  0.6068
  200DOPC  C21724847   2.026  -0.189   7.048  0.3703  0.4440  0.3383
  200DOPC  H17R24848   1.971  -0.186   6.951  0.2852  2.0804  0.4184
  200DOPC  H17S24849   1.990  -0.277   7.107  1.1137  0.0505  0.2170
  200DOPC  C21824850   2.179  -0.205   7.025  0.8475 -0.6067  0.1568
  200DOPC  H18R24851   2.206  -0.286   7.097  0.6881 -1.5078 -0.7752
  200DOPC  H18S24852   2.238  -0.115   7.051 -1.1438  0.3227  1.7454
  200DOPC  H18T24853   2.201  -0.224   6.918 -0.9946 -0.4290 -0.2892
  200DOPC   C3324854   0.766   0.946   7.035 -0.7255 -0.2296  0.2306
  200DOPC   H3X24855   0.719   0.887   6.953 -0.1476  0.6374 -0.7566
  200DOPC   H3Y24856   0.679   1.009   7.060 -0.3618 -0.3592  1.9040
  200DOPC   C3424857   0.779   0.848   7.158 -0.2768  0.3362  0.0683
  200DOPC   H4X24858   0.797   0.905   7.251 -1.2075  0.7066  0.0335
  200DOPC   H4Y24859   0.872   0.788   7.149  0.6506  1.0377  3.6555
  200DOPC   C3524860   0.657   0.758   7.185  0.2436  0.0354 -0.6204
  200DOPC   H5X24861   0.617   0.717   7.090 -1.3377 -0.0282  0.0507
  200DOPC   H5Y24862   0.584   0.827   7.233 -0.5649 -1.0186 -0.3166
  200DOPC   C3624863   0.692   0.641   7.273 -0.4122  0.1658 -0.1284
  200DOPC   H6X24864   0.744   0.566   7.211 -0.2298 -0.3833  0.6703
  200DOPC   H6Y24865   0.760   0.676   7.354  0.1851  0.0650 -0.5877
  200DOPC   C3724866   0.575   0.576   7.343  0.3794 -0.2015 -0.6180
  200DOPC   H7X24867   0.555   0.631   7.438 -0.1455  1.6963 -1.7643
  200DOPC   H7Y24868   0.479   0.567   7.288 -1.3550  1.0725  1.9749
  200DOPC   C3824869   0.609   0.438   7.400  0.1565  0.1835  0.4861
  200DOPC   H8X24870   0.621   0.360   7.321  1.2233 -1.1577  1.8977
  200DOPC   H8Y24871   0.522   0.410   7.463 -1.3872  2.5148 -0.4933
  200DOPC   C3924872   0.734   0.427   7.478 -0.2674  0.1449  0.5196
  200DOPC   H9X24873   0.819   0.401   7.413 -0.6532  1.4393 -0.5654
  200DOPC  C31024874   0.766   0.448   7.608  0.4058 -0.6849  0.3696
  200DOPC  H10X24875   0.866   0.421   7.644 -0.4472 -0.0441  3.6258
  200DOPC  C31124876   0.676   0.495   7.716  0.5759 -0.1765  0.6783
  200DOPC  H11X24877   0.582   0.536   7.674  2.0030  2.1518 -0.4550
  200DOPC  H11Y24878   0.731   0.574   7.773  3.0538 -0.2505 -1.4208
  200DOPC  C31224879   0.653   0.379   7.807 -0.3719  0.4676  0.1205
  200DOPC  H12X24880   0.603   0.295   7.755 -0.9076  0.1229  1.1663
  200DOPC  H12Y24881   0.596   0.419   7.893 -0.9067 -1.3883  0.6624
  200DOPC  C31324882   0.780   0.314   7.865  0.2746 -0.3070 -0.0196
  200DOPC  H13X24883   0.844   0.272   7.784 -0.8110  1.5766 -1.9623
  200DOPC  H13Y24884   0.841   0.393   7.914  0.8775 -0.9664  0.3209
  200DOPC  C31424885   0.758   0.200   7.974  0.0703 -0.4460 -0.0670
  200DOPC  H14X24886   0.698   0.121   7.923 -0.4211  0.4962 -1.0049
  200DOPC  H14Y24887   0.859   0.159   7.992  0.4062 -1.4678 -3.5618
  200DOPC  C31524888   0.683   0.242   8.107 -0.0918  0.2271 -0.6182
  200DOPC  H15X24889   0.583   0.279   8.074  0.1092  0.4750 -0.9667
  200DOPC  H15Y24890   0.733   0.334   8.144  0.3531  0.5531 -1.9522
  200DOPC  C31624891   0.685   0.126   8.211  0.1398 -0.4540  0.8562
  200DOPC  H16X24892   0.650   0.034   8.159  1.0402  0.2679 -1.0931
  200DOPC  H16Y24893   0.786   0.099   8.250  0.8322  0.0455 -0.5435
  200DOPC  C31724894   0.598   0.154   8.335 -0.1587 -0.7523 -0.1432
  200DOPC  H17X24895   0.624   0.251   8.381 -2.1935 -0.5277  0.6440
  200DOPC  H17Y24896   0.494   0.158   8.296 -0.3695 -0.7115  0.4170
  200DOPC  C31824897   0.608   0.046   8.437  0.0994  1.0639  0.1580
  200DOPC  H18X24898   0.613  -0.049   8.380  0.5372  0.7483  0.7156
  200DOPC  H18Y24899   0.700   0.047   8.499 -0.7934 -1.2814  1.6591
  200DOPC  H18Z24900   0.511   0.048   8.491  0.5420  0.6679  0.9757
  201SOD    SOD24901   3.781   3.992   9.548  0.1406 -0.3321 -0.0701
  202SOD    SOD24902   8.929   7.729   5.570 -0.1039  0.2432 -0.0755
  203SOD    SOD24903   1.892   7.051  10.450 -0.5096 -0.1599 -0.0528
  204SOD    SOD24904   2.255   1.205   5.343 -0.1676  0.0879  0.2093
  205SOD    SOD24905   6.773   1.921   9.873 -0.2107 -0.1103  0.3783
  206SOD    SOD24906   5.793   5.545   6.302 -0.6503 -0.0273  0.4934
  207SOD    SOD24907   7.453   9.005   6.948 -0.5407 -0.2615 -0.1157
  208SOD    SOD24908   2.992   1.485   9.955 -0.0813 -0.5947 -0.1626
  209SOD    SOD24909   4.475   7.637   6.509  0.2285  0.1876 -0.4758
  210SOD    SOD24910   6.945   8.180  10.092  0.1990  0.3957 -0.0468
  211SOD    SOD24911   7.593   7.524  10.302  0.0038 -0.1271 -0.1348
  212SOD    SOD24912   5.219   2.967  10.000  0.3503 -0.3866  0.7189
  213SOD    SOD24913   0.181   3.449   6.602 -0.1962  0.2899  0.8846
  214SOD    SOD24914   5.759   1.529  10.661  0.2058 -0.4509 -0.7217
  215SOD    SOD24915   5.372   7.357  10.011 -0.3101 -0.4036  0.0714
  216SOD    SOD24916   7.710   1.659   9.924  0.0422  0.2857  0.2098
  217SOD    SOD24917   7.312   4.794   5.067 -0.7466 -1.0496  0.5642
  218SOD    SOD24918   5.905   4.750  10.688 -0.0647  0.0814 -0.0232
  219SOD    SOD24919   7.651   3.976  10.494  0.6100  0.2482 -0.0420
  220SOD    SOD24920   0.936   7.297   6.200 -0.3527  0.0969  0.1233
  221SOD    SOD24921   8.496   6.695   5.955 -0.2596  0.2884 -0.4342
  222SOD    SOD24922   0.731   2.226  10.369  0.5619  0.2527  0.2388
  223SOD    SOD24923   6.483   7.040   6.116 -0.1956 -0.3295 -0.5638
  224SOD    SOD24924   7.319   3.043   5.986  0.6234 -0.0965  0.1059
  225SOD    SOD24925   8.611   6.263   6.209 -0.2958 -0.0718 -0.4922
  226SOD    SOD24926   6.006   5.373  11.331 -0.2570 -0.1719 -0.0029
  227CLA    CLA24927   7.443   6.728   6.359  0.1756 -0.3164  0.1199
  228CLA    CLA24928   4.333   8.866   5.638  0.0701 -0.5551  0.1923
  229CLA    CLA24929   7.944   4.919   5.283 -0.0082 -0.1741 -0.1639
  230CLA    CLA24930   9.184   7.804   9.870  0.0471 -0.0468 -0.6441
  231CLA    CLA24931   3.389   1.043  10.069 -0.3137 -0.1703  0.0025
  232CLA    CLA24932   2.547   7.781  10.683  0.2503 -0.0648  0.0712
  233CLA    CLA24933   5.728   4.924  10.792 -0.5270 -0.0769 -0.0509
  234CLA    CLA24934   5.551   2.608  10.309 -0.1806  0.3737 -0.1373
  235CLA    CLA24935   7.543   0.105   6.527  0.0935  0.0906  0.4570
  236CLA    CLA24936   3.476   6.039   9.944  0.1071  0.1611 -0.3383
  237CLA    CLA24937   6.841   7.337  10.430  0.5246  0.2850 -0.1920
  238CLA    CLA24938   0.547   1.270   5.479 -0.6013  0.0273 -0.0013
  239CLA    CLA24939   1.334   4.802   5.331 -0.2587 -0.0855 -0.1862
  240CLA    CLA24940   0.849   5.345   9.951  0.1424 -0.1665 -0.3067
  241CLA    CLA24941   6.806   7.913   5.551 -0.4717  0.3286  0.1645
  242CLA    CLA24942   6.339   4.651  10.428  0.3160  0.4457 -0.3254
  243CLA    CLA24943   0.336   7.723   5.933  0.0145 -0.1389 -0.3062
  244CLA    CLA24944   5.547   6.389   5.898  0.0914 -0.4456 -0.1297
  245CLA    CLA24945   5.044   5.626   6.129 -0.0319 -0.2885  0.1719
  246CLA    CLA24946   6.116   7.946  10.404  0.2089  0.2793 -0.4979
  247CLA    CLA24947   8.440   4.461   5.369 -0.3893 -0.1675  0.3541
  248CLA    CLA24948   8.997   0.397   6.418  0.0809  0.5252  0.3318
  249CLA    CLA24949   2.987   7.387   5.739 -0.0656  0.0390 -0.1532
  250CLA    CLA24950   7.944   4.337  10.154 -0.0361 -0.0093 -0.4644
  251CLA    CLA24951   8.817   1.681  10.417  0.1967  0.0673 -0.0243
  252CLA    CLA24952   2.352   0.748   5.652 -0.2888  0.1506  0.2696
  253TIP3   OH224953   6.384   0.212   9.668 -0.0074  0.2455  0.3432
  253TIP3    H124954   6.419   0.276   9.606 -0.9285  1.6268  1.1879
  253TIP3    H224955   6.403   0.127   9.628  2.6205  0.9564 -0.0879
  254TIP3   OH224956   3.430   4.269  10.752  0.2540  0.1755 -0.0736
  254TIP3    H124957   3.417   4.316  10.835 -0.0395  1.7487 -0.9662
  254TIP3    H224958   3.419   4.177  10.775  0.7323  0.5244  1.7389
  255TIP3   OH224959   2.618   3.015  10.812  0.0957  0.1001  0.0777
  255TIP3    H124960   2.707   2.979  10.812  0.4133  0.7154 -2.2693
  255TIP3    H224961   2.561   2.938  10.816  0.7191 -0.3434  0.6791
  256TIP3   OH224962   6.289   6.755   9.571  0.0664 -0.0548 -0.5195
  256TIP3    H124963   6.301   6.841   9.529  2.0031 -0.2781 -0.4830
  256TIP3    H224964   6.194   6.740   9.565 -0.2221  1.7059 -1.2560
  257TIP3   OH224965   2.677   3.684  10.417 -0.4424 -0.1456 -0.2715
  257TIP3    H124966   2.674   3.736  10.336 -0.3644  1.1997  0.5640
  257TIP3    H224967   2.586   3.667  10.438 -0.6426  1.8886  0.7974
  258TIP3   OH224968   0.723   2.235  10.979  0.6651 -0.2644  0.0891
  258TIP3    H124969   0.637   2.269  10.957  1.6010  0.7133 -2.3866
  258TIP3    H224970   0.730   2.246  11.074 -1.8649 -0.3206  0.3443
  259TIP3   OH224971   2.361   7.579  10.541 -0.1459 -0.2290 -0.2905
  259TIP3    H124972   2.414   7.619  10.610 -0.5937 -1.0488  0.5506
  259TIP3    H224973   2.422   7.524  10.492  0.2580  0.6646 -0.8104
  260TIP3   OH224974   6.468   9.174  11.052  0.0366  0.4555 -0.8936
  260TIP3    H124975   6.487   9.267  11.041  0.2236  0.2689 -2.3550
  260TIP3    H224976   6.543   9.129  11.011  0.1663 -0.3490  0.1825
  261TIP3   OH224977   7.941   4.938  10.264  0.4252 -0.0186  0.0423
  261TIP3    H124978   8.027   4.950  10.224  0.4792 -1.5887 -0.3627
  261TIP3    H224979   7.879   4.960  10.194  0.4760  1.3175  0.3988
  262TIP3   OH224980   7.225   3.388  10.278  0.1722 -0.0860  0.3099
  262TIP3    H124981   7.175   3.385  10.359  0.9317  0.4739  0.8066
  262TIP3    H224982   7.191   3.314  10.226  0.3029 -1.0056  1.4989
  263TIP3   OH224983   0.083   3.357   9.755 -0.7471  0.5611 -0.4626
  263TIP3    H124984   0.076   3.435   9.810  0.2281  0.1359  0.2772
  263TIP3    H224985   0.064   3.390   9.666 -0.9128  1.5206 -0.0891
  264TIP3   OH224986   8.268   7.010   9.998 -0.2916  0.0420 -0.7457
  264TIP3    H124987   8.322   7.088   9.989  1.4314 -0.7017  1.9315
  264TIP3    H224988   8.220   7.024  10.080 -1.7556 -0.7369 -1.4232
  265TIP3   OH224989   3.628   4.644  10.925 -0.0083  0.4871 -0.4969
  265TIP3    H124990   3.580   4.640  10.842 -2.5071  1.1284  0.8261
  265TIP3    H224991   3.593   4.571  10.976 -0.5439  1.7182  0.9671
  266TIP3   OH224992   4.511   5.949  10.702  0.0926 -0.1445 -0.0604
  266TIP3    H124993   4.419   5.927  10.712  0.7750 -2.3414  3.2749
  266TIP3    H224994   4.523   6.028  10.756  0.0582  0.6128 -1.1371
  267TIP3   OH224995   7.288   8.466  10.199  0.4919 -0.3945 -0.1043
  267TIP3    H124996   7.308   8.490  10.109  2.2500 -2.3572 -0.3259
  267TIP3    H224997   7.371   8.432  10.233 -0.4869 -1.0466  1.7831
  268TIP3   OH224998   0.059   6.373  10.175  0.0611 -0.3242 -0.0026
  268TIP3    H124999   0.028   6.294  10.220 -1.7208  0.1680 -0.2800
  268TIP3    H225000   0.066   6.439  10.244  0.3218 -0.3932  0.0357
  269TIP3   OH225001   7.471   5.533  10.992  0.3133 -0.1527  0.0688
  269TIP3    H125002   7.558   5.515  11.025 -0.5997 -1.4925  1.9271
  269TIP3    H225003   7.440   5.449  10.958 -0.8451 -0.1129  0.9601
  270TIP3   OH225004   6.798   8.015  10.007 -0.5872 -0.2846 -0.3223
  270TIP3    H125005   6.771   7.937  10.056 -1.7836  0.4415  0.2113
  270TIP3    H225006   6.717   8.047   9.967 -0.7364  2.2952  1.7679
  271TIP3   OH225007   8.616   1.340   9.181  0.2215 -0.1454  0.3478
  271TIP3    H125008   8.612   1.355   9.276  0.0621 -0.0708  0.3293
  271TIP3    H225009   8.697   1.382   9.154  0.9244 -1.2639  0.6523
  272TIP3   OH225010   5.377   2.395   9.423 -0.5253 -0.1747 -0.1801
  272TIP3    H125011   5.314   2.368   9.490  0.5255  1.0182  1.3938
  272TIP3    H225012   5.393   2.316   9.371 -0.3630 -1.5654  1.8522
  273TIP3   OH225013   9.098   6.307   9.689  0.0159 -0.1795 -1.0767
  273TIP3    H125014   9.099   6.357   9.771 -0.3428 -2.0474  0.1295
  273TIP3    H225015   9.130   6.369   9.623  0.3097  1.3913  0.4560
  274TIP3   OH225016   8.131   4.255  10.916  0.2480  0.2510 -0.1329
  274TIP3    H125017   8.060   4.315  10.892 -0.0963 -0.5129 -1.0709
  274TIP3    H225018   8.135   4.261  11.011 -1.2105  0.1696 -0.0378
  275TIP3   OH225019   6.342   8.626  10.365  0.0602 -0.2064  0.0347
  275TIP3    H125020   6.423   8.648  10.412 -0.1919 -1.2145  0.9783
  275TIP3    H225021   6.316   8.541  10.401  0.6251 -1.7871 -2.9040
  276TIP3   OH225022   4.653   5.599  10.398 -0.3003  0.1523 -0.4375
  276TIP3    H125023   4.635   5.691  10.419 -0.8989  0.0520 -0.5047
  276TIP3    H225024   4.606   5.583  10.316 -0.2779 -0.2438 -0.3767
  277TIP3   OH225025   0.680   5.278  10.750 -0.0052 -0.8210  0.2850
  277TIP3    H125026   0.731   5.204  10.784 -0.1573 -0.9815  0.1626
  277TIP3    H225027   0.745   5.333  10.706  0.4956  0.2728  2.2853
  278TIP3   OH225028   2.246   3.295  10.111  0.0323  0.1914  0.3045
  278TIP3    H125029   2.329   3.342  10.123  0.7989 -1.1236  0.3855
  278TIP3    H225030   2.272   3.203  10.104 -1.0657 -0.0169 -3.1674
  279TIP3   OH225031   3.031   7.202  10.741 -0.2919 -0.1060  0.5222
  279TIP3    H125032   2.968   7.246  10.798 -1.0275 -0.9048  0.3356
  279TIP3    H225033   3.020   7.109  10.760 -0.9354 -0.4425 -1.2913
  280TIP3   OH225034   4.240   6.199   9.581  0.3660  0.7091  0.0090
  280TIP3    H125035   4.259   6.291   9.600 -0.1469  0.5138  1.5921
  280TIP3    H225036   4.173   6.175   9.645  1.6112 -1.1884  0.6842
  281TIP3   OH225037   5.146   0.723   9.576 -0.4354 -0.1472 -0.2697
  281TIP3    H125038   5.159   0.641   9.529 -0.5546 -0.7910  0.8004
  281TIP3    H225039   5.231   0.743   9.615 -0.9168 -0.8839  1.2174
  282TIP3   OH225040   6.196   6.429  10.691  0.3987 -0.3772  0.2304
  282TIP3    H125041   6.165   6.353  10.739  1.5867  0.1936  2.0215
  282TIP3    H225042   6.283   6.446  10.727 -0.1867  2.3576  0.5432
  283TIP3   OH225043   2.026   8.002  10.093  0.3304 -0.1425 -0.3358
  283TIP3    H125044   2.057   8.092  10.098 -0.6084  0.2496 -1.2169
  283TIP3    H225045   1.965   7.993  10.166  1.5679 -0.5602  0.6902
  284TIP3   OH225046   4.608   7.768   6.637  0.1712  0.4418  0.7769
  284TIP3    H125047   4.699   7.740   6.636 -0.4755 -1.9019  1.4111
  284TIP3    H225048   4.612   7.862   6.654  2.4470  0.2974  1.3354
  285TIP3   OH225049   3.667   0.901   5.366 -0.3878 -0.1248  0.5123
  285TIP3    H125050   3.744   0.857   5.401 -0.2849  1.1379  1.9764
  285TIP3    H225051   3.623   0.938   5.442 -0.0986  2.8374 -0.6269
  286TIP3   OH225052   4.123   5.697   5.905 -0.4999 -0.4575  0.0103
  286TIP3    H125053   4.114   5.714   5.998 -1.5752 -1.8848  0.1994
  286TIP3    H225054   4.089   5.775   5.862 -2.2844 -0.7538  0.8224
  287TIP3   OH225055   0.868   7.713   4.762  0.3473  0.3603  0.8466
  287TIP3    H125056   0.839   7.781   4.823 -0.0265 -1.0458  2.3093
  287TIP3    H225057   0.800   7.647   4.766  0.1602  0.3490 -1.3896
  288TIP3   OH225058   5.142   1.617   5.324 -0.6043 -0.3326  0.0659
  288TIP3    H125059   5.148   1.683   5.392 -0.1034  0.3060 -0.5840
  288TIP3    H225060   5.133   1.534   5.371  0.8200 -0.0152  0.9323
  289TIP3   OH225061   2.318   2.517   6.675 -0.3438 -0.5707  0.8856
  289TIP3    H125062   2.315   2.600   6.628 -1.5198 -1.0622  0.0732
  289TIP3    H225063   2.237   2.515   6.726 -1.1347 -1.9156 -0.3519
  290TIP3   OH225064   0.731   8.095   5.746  0.5491  0.1106  0.0588
  290TIP3    H125065   0.650   8.144   5.763  0.4857  0.1115 -0.2247
  290TIP3    H225066   0.777   8.148   5.680 -0.4218 -1.1486 -1.7351
  291TIP3   OH225067   5.338   8.093   6.256  0.4369 -0.0240  0.0880
  291TIP3    H125068   5.330   8.090   6.161  1.3587 -0.3695  0.0123
  291TIP3    H225069   5.272   8.157   6.284 -0.2241 -0.3333 -0.7298
  292TIP3   OH225070   2.472   8.218   5.637 -1.3046  0.1069  0.6506
  292TIP3    H125071   2.540   8.284   5.653 -0.4570 -0.3056 -1.0117
  292TIP3    H225072   2.461   8.174   5.721 -0.7659  1.3461  1.3904
  293TIP3   OH225073   8.832   5.201   5.363  0.6815 -0.8740 -0.4659
  293TIP3    H125074   8.907   5.143   5.379  0.4642 -0.5286  2.3302
  293TIP3    H225075   8.765   5.143   5.328  0.6407 -2.3016  1.7654
  294TIP3   OH225076   2.753   7.865   5.931  0.3002  0.6786  0.1030
  294TIP3    H125077   2.727   7.957   5.920 -0.3783  0.5181  0.2713
  294TIP3    H225078   2.749   7.851   6.026  0.4471  0.4913  0.0800
  295TIP3   OH225079   1.862   0.186   5.017  1.0787 -0.4463  0.3203
  295TIP3    H125080   1.774   0.218   4.998  1.2046 -0.6774 -0.7645
  295TIP3    H225081   1.849   0.109   5.072  0.6755  0.2314  1.2007
  296TIP3   OH225082   6.898   8.782   6.472 -0.0221  0.2319 -0.1040
  296TIP3    H125083   6.985   8.807   6.440 -0.5983  1.5115 -0.7769
  296TIP3    H225084   6.880   8.698   6.430  1.2483 -0.5209  0.7803
  297TIP3   OH225085   5.303   7.548   5.196 -0.1482  0.0096 -0.7738
  297TIP3    H125086   5.381   7.587   5.156  0.4882 -0.1049  0.3065
  297TIP3    H225087   5.337   7.476   5.250 -1.0493 -0.3264 -0.6366
  298TIP3   OH225088   4.775   2.700   5.942  0.1861 -0.4977 -0.1610
  298TIP3    H125089   4.818   2.762   6.001  0.3418  0.9283 -1.6903
  298TIP3    H225090   4.840   2.632   5.926  0.5091 -0.3412  0.4522
  299TIP3   OH225091   2.363   3.697   6.216 -0.2754 -0.0860 -0.3598
  299TIP3    H125092   2.432   3.632   6.232  1.4247  1.6454 -0.2655
  299TIP3    H225093   2.407   3.781   6.226 -1.1895  1.2384 -5.0942
  300TIP3   OH225094   4.605   7.938   6.240  0.4196 -0.6147 -0.3789
  300TIP3    H125095   4.674   7.962   6.301 -1.1710  1.1891  0.8249
  300TIP3    H225096   4.540   7.894   6.295 -0.0185 -1.0314 -1.2205
  301TIP3   OH225097   1.664   0.864   5.200  0.1823  0.2209  0.3441
  301TIP3    H125098   1.706   0.940   5.160 -0.5010  0.3166 -0.2052
  301TIP3    H225099   1.732   0.796   5.201  0.1950  0.2053 -1.0066
  302TIP3   OH225100   1.449   2.389   5.401 -0.2218 -0.6579 -0.0958
  302TIP3    H125101   1.445   2.397   5.496  1.2500 -0.0248 -0.0591
  302TIP3    H225102   1.373   2.335   5.378 -1.7917  0.8670  1.2150
  303TIP3   OH225103   0.699   1.526   5.568 -0.2070  0.0003  0.4642
  303TIP3    H125104   0.645   1.447   5.566  0.2155 -0.2766 -1.2826
  303TIP3    H225105   0.693   1.561   5.479 -0.9429  2.3370  1.3645
  304TIP3   OH225106   0.391   5.856   5.913 -0.0363 -0.9757  0.1096
  304TIP3    H125107   0.422   5.827   5.999 -1.0938  1.2391  1.3443
  304TIP3    H225108   0.471   5.865   5.862  1.0163  0.4654  1.8517
  305TIP3   OH225109   0.166   6.916   5.431  0.2580 -0.6674  0.1042
  305TIP3    H125110   0.201   6.891   5.517 -1.5972 -0.6522  0.8936
  305TIP3    H225111   0.233   6.886   5.369  0.6992 -2.5485  1.3905
  306TIP3   OH225112   7.559   5.571   5.909 -0.1616  0.3920  0.4734
  306TIP3    H125113   7.491   5.633   5.936  1.7384  2.1918  1.3657
  306TIP3    H225114   7.593   5.535   5.991  0.4126  0.0286  0.0841
  307TIP3   OH225115   6.709   8.356   6.266  0.1152 -0.2900  1.0160
  307TIP3    H125116   6.682   8.344   6.357 -1.4053 -1.6729  0.4395
  307TIP3    H225117   6.628   8.348   6.216  0.7033  1.7877 -0.3957
  308TIP3   OH225118   2.034   5.252   5.318  0.8316 -0.4704 -0.2634
  308TIP3    H125119   1.957   5.276   5.370  1.0819  0.2878 -0.2272
  308TIP3    H225120   2.059   5.165   5.351  0.3773 -0.4415  0.1710
  309TIP3   OH225121   7.824   0.288   5.724 -0.0971  0.7006  0.2095
  309TIP3    H125122   7.887   0.347   5.684  0.0740  0.3614 -0.0219
  309TIP3    H225123   7.853   0.280   5.815  0.9329 -0.4503 -0.2060
  310TIP3   OH225124   4.724   5.320   5.488  0.1817  0.0158 -0.4577
  310TIP3    H125125   4.716   5.410   5.457  0.0443 -0.0365 -0.5770
  310TIP3    H225126   4.662   5.271   5.434  0.0239 -0.0939 -0.1778
  311TIP3   OH225127   3.804   5.898   6.677  0.5753  0.1540 -0.0078
  311TIP3    H125128   3.784   5.932   6.590 -0.0327  0.0353  0.0854
  311TIP3    H225129   3.852   5.816   6.660 -0.7076 -0.5739 -0.2461
  312TIP3   OH225130   6.305   5.464   6.450 -0.5580  0.5979  0.5649
  312TIP3    H125131   6.348   5.380   6.466 -0.6280  0.0445 -1.7273
  312TIP3    H225132   6.374   5.518   6.410 -0.8534  1.1925  0.8539
  313TIP3   OH225133   3.602   5.949   6.414 -0.2210  0.0853  0.3397
  313TIP3    H125134   3.549   6.024   6.387 -0.3763 -0.5034 -1.0975
  313TIP3    H225135   3.647   5.921   6.334  1.4396 -0.1034  1.2861
  314TIP3   OH225136   1.839   4.626   5.707  0.5560  0.4134 -0.0859
  314TIP3    H125137   1.907   4.687   5.679  0.0698  1.3150  0.6628
  314TIP3    H225138   1.826   4.645   5.800  1.3498 -1.7605  0.5390
  315TIP3   OH225139   3.453   8.330   5.680 -0.0697 -0.3365 -0.2742
  315TIP3    H125140   3.515   8.308   5.749  1.4869 -1.5106 -1.9672
  315TIP3    H225141   3.494   8.402   5.632  0.5993 -1.8803 -2.1115
  316TIP3   OH225142   6.179   5.781   6.599  0.1509 -0.0721 -0.0062
  316TIP3    H125143   6.233   5.798   6.676 -0.5452 -0.1280  0.5032
  316TIP3    H225144   6.195   5.857   6.542  2.1472 -0.9424 -0.6903
  317TIP3   OH225145   0.668   7.054   5.612 -0.3352 -0.5250  0.2657
  317TIP3    H125146   0.627   7.140   5.603 -0.4837 -0.6980 -0.8027
  317TIP3    H225147   0.596   6.997   5.639 -0.6345 -0.6502 -0.7434
  318TIP3   OH225148   9.166   7.102   6.316 -0.0631  0.3757 -0.0667
  318TIP3    H125149   9.211   7.187   6.312  2.0472 -0.6484  0.2487
  318TIP3    H225150   9.221   7.049   6.374 -0.8805 -1.4478 -0.8761
  319TIP3   OH225151   4.392   8.964   6.244  0.1031  0.4878  0.1904
  319TIP3    H125152   4.434   9.039   6.286  0.7221  1.6684 -2.3513
  319TIP3    H225153   4.455   8.893   6.252 -0.6475  0.0260  2.9665
  320TIP3   OH225154   2.124   0.628   5.500 -0.5864  0.1741  0.2976
  320TIP3    H125155   2.216   0.645   5.523 -0.8886  0.2824  1.5230
  320TIP3    H225156   2.074   0.673   5.568 -1.4990 -1.7699  0.9767
  321TIP3   OH225157   1.681   1.461   5.299 -0.0698  0.4655 -0.1292
  321TIP3    H125158   1.633   1.400   5.355 -0.0256  0.6339  0.0930
  321TIP3    H225159   1.763   1.477   5.345  0.0964  0.3725 -0.3886
  322TIP3   OH225160   7.388   2.102   6.342 -0.1217  0.0946  0.5513
  322TIP3    H125161   7.474   2.068   6.367  0.7087  1.0124 -0.9377
  322TIP3    H225162   7.404   2.194   6.319 -1.7763  0.7053  1.6248
  323TIP3   OH225163   1.109   1.683  10.038  0.3172 -0.3905 -0.5277
  323TIP3    H125164   1.149   1.622  10.101 -3.0178 -3.1904 -0.8271
  323TIP3    H225165   1.139   1.650   9.952  0.2764 -0.1995 -0.6146
  324TIP3   OH225166   1.537   4.337  10.619 -0.5586  0.0221  0.1819
  324TIP3    H125167   1.595   4.401  10.577  1.1030 -2.3446 -1.3772
  324TIP3    H225168   1.463   4.329  10.560 -0.3256 -0.1296 -0.0923
  325TIP3   OH225169   1.469   4.349   9.554  0.3359  0.7949  0.0256
  325TIP3    H125170   1.429   4.436   9.561  0.7136  1.0481 -0.7766
  325TIP3    H225171   1.414   4.303   9.491  1.0609  1.0169 -0.7943
  326TIP3   OH225172   6.669   0.351   9.969  0.3407  0.0096  0.3485
  326TIP3    H125173   6.740   0.331   9.908  2.3298  1.1647  2.1547
  326TIP3    H225174   6.656   0.445   9.960 -1.5184 -0.2740 -0.4403
  327TIP3   OH225175   7.219   1.775  10.229  0.6728  0.4686 -0.0284
  327TIP3    H125176   7.299   1.741  10.190  1.0291  0.2319  0.8835
  327TIP3    H225177   7.179   1.700  10.273  1.6324  1.2188  2.2803
  328TIP3   OH225178   6.556   3.195  11.064 -0.3537  0.0049  0.4466
  328TIP3    H125179   6.497   3.264  11.034  0.4776  0.6708  0.3169
  328TIP3    H225180   6.500   3.118  11.074 -1.0715  0.3811 -0.5606
  329TIP3   OH225181   2.120   2.726  10.522  0.0271 -0.1591  0.5277
  329TIP3    H125182   2.107   2.733  10.617 -0.4745  0.1567  0.4381
  329TIP3    H225183   2.160   2.640  10.511 -1.7428 -1.0821  0.8674
  330TIP3   OH225184   3.268   0.239   9.177 -0.1402  0.1446  0.3497
  330TIP3    H125185   3.281   0.334   9.178  1.2333  0.0584 -1.7804
  330TIP3    H225186   3.302   0.212   9.092  1.0756 -2.4859  1.5667
  331TIP3   OH225187   3.191   0.586  11.028 -0.3183  0.3105 -0.0316
  331TIP3    H125188   3.160   0.526  11.096  0.3969  0.3878  0.3782
  331TIP3    H225189   3.286   0.584  11.037 -0.3001  1.9651  0.4013
  332TIP3   OH225190   0.013   9.195   9.928  0.5831  0.3235  0.3068
  332TIP3    H125191  -0.036   9.123   9.889  1.3521 -0.5528  0.9009
  332TIP3    H225192   0.043   9.161  10.012  1.9146  0.9442  0.1097
  333TIP3   OH225193   7.077   4.728   9.468 -0.5370  0.0998  0.3476
  333TIP3    H125194   7.051   4.737   9.560 -2.9385 -3.4151  0.1660
  333TIP3    H225195   7.000   4.753   9.419  0.2313  0.4687 -0.7010
  334TIP3   OH225196   7.345   7.293  10.061 -0.0963  0.1564  0.2085
  334TIP3    H125197   7.290   7.290   9.983  0.4341 -0.2300 -0.1663
  334TIP3    H225198   7.286   7.277  10.134 -0.1697 -2.6423 -0.3562
  335TIP3   OH225199   2.866   4.767  10.493 -0.1039  0.4107  0.0016
  335TIP3    H125200   2.882   4.767  10.399  0.6765 -1.7184  0.0785
  335TIP3    H225201   2.770   4.766  10.501 -0.2035 -1.8372 -0.8671
  336TIP3   OH225202   4.052   5.077   9.956  0.3934  0.0037 -0.0452
  336TIP3    H125203   4.145   5.087   9.975  0.4186  3.0696 -1.1974
  336TIP3    H225204   4.049   5.052   9.863  0.0435 -1.2002  0.2701
  337TIP3   OH225205   9.132   2.767  10.169 -0.6472 -0.4148  0.1077
  337TIP3    H125206   9.082   2.704  10.222  0.0174  0.1140  1.4079
  337TIP3    H225207   9.064   2.819  10.125 -1.2049 -1.6377 -0.5381
  338TIP3   OH225208   0.940   8.011  10.736  0.2567  0.1997 -0.5785
  338TIP3    H125209   0.898   7.932  10.771 -0.4503  0.0471 -1.7148
  338TIP3    H225210   1.034   7.994  10.743  0.1165 -0.9474 -1.2471
  339TIP3   OH225211   2.910   8.282   9.177  0.5559 -0.0152 -0.4639
  339TIP3    H125212   2.867   8.368   9.169  0.8350  0.0788 -0.9431
  339TIP3    H225213   2.840   8.219   9.159  0.4934  0.1251 -0.7115
  340TIP3   OH225214   7.262   2.193  11.039  0.1003  0.3705  0.7627
  340TIP3    H125215   7.266   2.099  11.057 -2.5603  0.3598  1.7383
  340TIP3    H225216   7.285   2.235  11.122  1.2634  0.6302  0.3350
  341TIP3   OH225217   4.936   2.100  10.068 -0.1719 -0.5869  0.2509
  341TIP3    H125218   4.905   2.009  10.063  0.9379 -0.9069 -2.4952
  341TIP3    H225219   4.888   2.145   9.998  0.0233  0.7144  0.9293
  342TIP3   OH225220   6.945   1.123   9.004 -0.1836  0.0592 -0.6630
  342TIP3    H125221   6.946   1.027   9.007 -1.1872  0.0477 -0.3150
  342TIP3    H225222   6.871   1.148   9.060 -0.3416  1.0042 -1.2698
  343TIP3   OH225223   7.198   1.597  11.146 -0.7357  0.9795 -0.3567
  343TIP3    H125224   7.141   1.530  11.185 -0.3812  0.6257 -0.4495
  343TIP3    H225225   7.199   1.577  11.053 -0.0125  0.6404 -0.2858
  344TIP3   OH225226   3.206   1.097   9.164 -0.4411  0.1453  0.4497
  344TIP3    H125227   3.183   1.016   9.210 -1.8113 -0.0536 -0.5496
  344TIP3    H225228   3.155   1.164   9.209  1.1626  0.6147  1.6857
  345TIP3   OH225229   5.603   2.802   9.854  0.1205 -0.5023  0.2539
  345TIP3    H125230   5.677   2.849   9.893 -1.1243  0.9746  0.9727
  345TIP3    H225231   5.549   2.777   9.929 -0.9483 -0.0359 -0.3401
  346TIP3   OH225232   2.042   8.569   9.748  0.2075 -0.7749  0.4873
  346TIP3    H125233   1.961   8.602   9.710 -0.5192 -1.2272  1.5890
  346TIP3    H225234   2.092   8.647   9.769 -0.0853 -0.4811  0.1044
  347TIP3   OH225235   6.132   8.104  10.722  0.2150 -0.2956 -0.0543
  347TIP3    H125236   6.057   8.160  10.746  0.7340 -0.4479  2.1002
  347TIP3    H225237   6.105   8.063  10.640 -1.2817  1.0973 -0.3195
  348TIP3   OH225238   8.251   3.307  10.121  0.5550 -0.4993  0.1597
  348TIP3    H125239   8.223   3.382  10.174  1.5312  1.3888 -1.8423
  348TIP3    H225240   8.347   3.310  10.124  0.6045 -1.3975 -0.3511
  349TIP3   OH225241   5.573   2.646  11.496  0.2723  0.4865 -0.1055
  349TIP3    H125242   5.484   2.682  11.490 -0.6966 -1.6999 -0.1696
  349TIP3    H225243   5.627   2.708  11.448 -0.5776  3.5589  2.5607
  350TIP3   OH225244   3.421   7.620   9.829 -0.3151  0.4962 -0.4551
  350TIP3    H125245   3.380   7.656   9.750 -0.1083  1.8892  0.0552
  350TIP3    H225246   3.484   7.555   9.796 -0.8962  0.3880 -1.3766
  351TIP3   OH225247   0.764   9.140  10.519  0.0579  0.2266  0.4739
  351TIP3    H125248   0.773   9.128  10.425 -0.3650  1.3726  0.2684
  351TIP3    H225249   0.760   9.052  10.555  1.8197 -0.2502 -0.4106
  352TIP3   OH225250   8.560   8.189  10.333 -0.3223  0.0890 -0.5644
  352TIP3    H125251   8.510   8.235  10.401 -0.8437  0.3008 -1.0760
  352TIP3    H225252   8.625   8.253  10.304  1.2062 -0.6518  1.0738
  353TIP3   OH225253   4.807   5.378  10.106 -0.3302 -0.3992  0.3468
  353TIP3    H125254   4.804   5.472  10.088  0.3692 -0.3209  0.6259
  353TIP3    H225255   4.803   5.372  10.201 -0.7070 -0.6763  0.3182
  354TIP3   OH225256   4.980   8.684   9.111  0.5238  0.1083 -0.3236
  354TIP3    H125257   4.927   8.749   9.158 -1.7659 -2.4667  0.8850
  354TIP3    H225258   5.055   8.668   9.168  0.0806  0.2608  0.3066
  355TIP3   OH225259   1.938   6.177  10.283  0.3651  0.3271 -0.2032
  355TIP3    H125260   2.026   6.210  10.298  0.2092  0.3620  0.6703
  355TIP3    H225261   1.908   6.223  10.204  1.1220  0.3050 -0.5130
  356TIP3   OH225262   4.293   6.104  11.067  0.1086  0.1524 -0.0241
  356TIP3    H125263   4.281   6.174  11.003  0.0679  0.7921  0.6814
  356TIP3    H225264   4.240   6.130  11.142  0.9386 -0.1095  0.6601
  357TIP3   OH225265   2.256   9.052  10.230 -1.1760 -0.2747 -0.3071
  357TIP3    H125266   2.351   9.069  10.233 -1.0717 -0.3879 -1.9557
  357TIP3    H225267   2.247   8.961  10.257 -1.2567  0.7632  3.7352
  358TIP3   OH225268   1.459   3.089  11.061  0.2231 -0.4979 -0.1551
  358TIP3    H125269   1.504   3.169  11.087 -0.9345  0.8916 -2.1375
  358TIP3    H225270   1.380   3.087  11.115  1.2900 -1.5308  1.4453
  359TIP3   OH225271   8.661   8.892   9.593  0.1042 -0.4793 -0.9150
  359TIP3    H125272   8.612   8.815   9.563  2.3003 -3.0250  1.4364
  359TIP3    H225273   8.626   8.910   9.680  0.4482  0.4293 -0.9536
  360TIP3   OH225274   6.152   3.131  10.941  0.3038 -0.4047  0.3755
  360TIP3    H125275   6.064   3.136  10.980  0.0016  0.0546 -0.3397
  360TIP3    H225276   6.173   3.222  10.918  0.6755 -0.6042 -0.0902
  361TIP3   OH225277   7.151   6.459  10.430 -0.2831  0.3409  0.9617
  361TIP3    H125278   7.229   6.404  10.421  1.5675  2.7285  1.3948
  361TIP3    H225279   7.123   6.447  10.521 -0.5371 -0.6174  0.7685
  362TIP3   OH225280   8.339   3.366   9.415  0.1891 -0.5869  0.2399
  362TIP3    H125281   8.390   3.291   9.384  0.3524 -0.2900 -0.2201
  362TIP3    H225282   8.251   3.351   9.378  0.1533 -0.6865  0.3656
  363TIP3   OH225283   4.605   2.036  10.481  0.2945  0.6685 -0.0194
  363TIP3    H125284   4.550   1.961  10.504 -0.8832  1.4256 -0.2690
  363TIP3    H225285   4.603   2.092  10.559  1.4454  0.3034  0.2919
  364TIP3   OH225286   0.117   0.981   9.822  0.0719 -0.2049 -0.0892
  364TIP3    H125287   0.209   0.978   9.797 -0.1296  0.6853 -1.0050
  364TIP3    H225288   0.070   0.996   9.740 -0.7121  1.5304  0.6159
  365TIP3   OH225289   0.008   2.453  11.262 -0.0578 -0.4435 -0.0972
  365TIP3    H125290  -0.056   2.520  11.238 -1.8342 -2.2494 -0.6007
  365TIP3    H225291   0.091   2.488  11.231 -0.8732  1.6000 -0.1726
  366TIP3   OH225292   4.707   8.280  10.959  0.1343  0.6979  0.4577
  366TIP3    H125293   4.651   8.356  10.945 -0.3580  0.2991  0.2460
  366TIP3    H225294   4.704   8.265  11.053 -0.8936  0.0957  0.3392
  367TIP3   OH225295   8.431   7.939  10.538  0.2308 -0.2055 -0.3532
  367TIP3    H125296   8.431   8.014  10.596 -0.9000 -0.9661  0.6727
  367TIP3    H225297   8.389   7.869  10.588  2.1777 -1.8476 -0.8678
  368TIP3   OH225298   1.452   3.488  10.005 -0.2213  0.2851 -0.1684
  368TIP3    H125299   1.501   3.562  10.042  0.5714  0.6300 -1.8146
  368TIP3    H225300   1.390   3.527   9.944  0.6076 -0.4166 -1.5018
  369TIP3   OH225301   7.220   3.922  10.219  0.7601  0.0539  0.1981
  369TIP3    H125302   7.133   3.913  10.257  0.9565 -0.2094  0.5948
  369TIP3    H225303   7.242   3.834  10.188  0.5039  0.3169 -0.7480
  370TIP3   OH225304   3.253   3.839  11.079  0.1720 -0.0117 -0.6828
  370TIP3    H125305   3.158   3.828  11.090  0.2887 -1.0166 -0.5911
  370TIP3    H225306   3.277   3.773  11.014  0.7996  0.2974 -0.7647
  371TIP3   OH225307   3.530   7.263  10.002 -0.0665 -0.4161  0.1295
  371TIP3    H125308   3.465   7.326  10.032 -0.2518 -0.3252 -0.4461
  371TIP3    H225309   3.516   7.185  10.057 -1.2466 -0.7107 -0.5674
  372TIP3   OH225310   4.850   8.270  11.207 -0.0902 -0.5738  0.2191
  372TIP3    H125311   4.898   8.313  11.137 -0.2453 -0.7034  0.0332
  372TIP3    H225312   4.904   8.194  11.230 -0.9644 -1.6254 -1.0721
  373TIP3   OH225313   9.157   2.251  10.933  0.1011  0.1659 -0.2016
  373TIP3    H125314   9.181   2.236  10.841  1.3386 -0.6460  0.2341
  373TIP3    H225315   9.067   2.221  10.939 -0.0719  0.4335 -1.1966
  374TIP3   OH225316   8.492   5.886  10.088  0.7179 -0.4867  0.1169
  374TIP3    H125317   8.516   5.846  10.005 -0.4860 -3.6196  1.1202
  374TIP3    H225318   8.473   5.978  10.067 -1.0323 -1.4959 -3.3689
  375TIP3   OH225319   6.367   7.009  10.529  0.5602 -0.4120  0.2114
  375TIP3    H125320   6.369   7.004  10.625 -2.0766 -0.5256  0.3496
  375TIP3    H225321   6.457   7.026  10.504  1.4373 -0.9380  2.6787
  376TIP3   OH225322   8.706   1.522  10.689 -0.0210 -0.2321  0.0854
  376TIP3    H125323   8.689   1.578  10.764  0.6992 -0.0967  0.1485
  376TIP3    H225324   8.738   1.581  10.620 -0.0733 -0.4438 -0.1242
  377TIP3   OH225325   6.248   4.612  10.153 -0.1363  0.4953 -0.2791
  377TIP3    H125326   6.273   4.618  10.245  0.6413 -1.4214 -0.3233
  377TIP3    H225327   6.155   4.591  10.155  0.0758 -0.4564  0.1143
  378TIP3   OH225328   3.326   0.304  11.029  0.5084  0.4574  0.1320
  378TIP3    H125329   3.398   0.243  11.045  0.4698  0.3104 -0.2478
  378TIP3    H225330   3.256   0.250  10.991 -0.3872  0.2873  1.9142
  379TIP3   OH225331   7.266   6.006  10.410 -0.8729 -0.3497 -0.0528
  379TIP3    H125332   7.276   6.089  10.456 -2.5087 -0.7238  1.0727
  379TIP3    H225333   7.346   5.957  10.429 -0.2228  0.6705 -0.1202
  380TIP3   OH225334   6.059   7.902   9.475 -0.2939  0.3892  0.3046
  380TIP3    H125335   6.025   7.870   9.559 -0.0852  0.0996  0.2772
  380TIP3    H225336   6.036   7.834   9.412 -0.7713  0.7731  0.0556
  381TIP3   OH225337   4.004   2.600   9.937  0.1368  0.2287  0.1754
  381TIP3    H125338   3.925   2.591   9.884  0.4021  0.8897 -0.3524
  381TIP3    H225339   3.979   2.655  10.011  0.5804  2.2682 -1.1008
  382TIP3   OH225340   5.666   5.423  10.250 -0.5707  1.0212  0.4002
  382TIP3    H125341   5.655   5.371  10.171  1.4221 -0.1761  0.8317
  382TIP3    H225342   5.582   5.416  10.295 -1.0894  0.0743 -0.6674
  383TIP3   OH225343   0.331   1.674  11.309 -0.6648  0.3715 -0.0704
  383TIP3    H125344   0.403   1.728  11.275 -1.0137  2.2822  2.0093
  383TIP3    H225345   0.253   1.727  11.295 -1.5440 -1.0887 -1.0154
  384TIP3   OH225346   0.592   3.372  10.102  0.1667 -0.2298  0.0838
  384TIP3    H125347   0.526   3.435  10.130  0.8423  0.6104 -0.1493
  384TIP3    H225348   0.657   3.425  10.055  0.6343 -1.1381 -0.3242
  385TIP3   OH225349   9.087   8.385  10.961 -0.2702 -0.2950  0.2263
  385TIP3    H125350   9.089   8.299  10.919 -1.2175 -0.4232  0.4204
  385TIP3    H225351   9.173   8.423  10.942  0.1378 -1.2575  0.0879
  386TIP3   OH225352   2.952   1.873  10.552  0.3641 -0.8387  0.1868
  386TIP3    H125353   2.946   1.829  10.637 -0.2072  1.0254  1.1560
  386TIP3    H225354   2.989   1.959  10.571 -0.5205 -0.0754 -1.3302
  387TIP3   OH225355   1.897   4.001   9.567  0.3772 -0.3557  0.0332
  387TIP3    H125356   1.986   3.967   9.571  0.0610 -2.7183 -5.1371
  387TIP3    H225357   1.906   4.091   9.535  0.9136 -0.6349 -0.6061
  388TIP3   OH225358   6.258   7.070  11.247 -0.5506  0.1929  0.2302
  388TIP3    H125359   6.352   7.056  11.260 -0.5966  0.5781  1.0549
  388TIP3    H225360   6.252   7.115  11.162  0.0515  0.6067  0.3959
  389TIP3   OH225361   4.860   5.552  10.719 -0.2320 -0.3040 -0.1941
  389TIP3    H125362   4.832   5.461  10.705 -0.4269 -0.2331 -0.2793
  389TIP3    H225363   4.940   5.561  10.667 -0.8194 -0.1109 -1.0945
  390TIP3   OH225364   4.684   3.070  10.771 -0.1626 -0.1700  0.0549
  390TIP3    H125365   4.710   2.988  10.813  1.2291  0.7653  1.1143
  390TIP3    H225366   4.634   3.116  10.838 -0.4509  0.0919 -0.3358
  391TIP3   OH225367   1.357   1.810  10.735 -0.3406 -0.0528  0.2889
  391TIP3    H125368   1.414   1.773  10.802  0.7119  2.0158  0.6034
  391TIP3    H225369   1.287   1.853  10.785 -1.0668 -0.8086 -0.0485
  392TIP3   OH225370   0.767   3.868   9.694 -0.1989 -0.1331 -0.1736
  392TIP3    H125371   0.769   3.963   9.683  0.3945 -0.1620 -0.3369
  392TIP3    H225372   0.749   3.835   9.606 -0.2162 -0.1845 -0.1507
  393TIP3   OH225373   7.799   5.457  10.830 -0.1355  0.2469  0.2314
  393TIP3    H125374   7.825   5.544  10.861  0.6528 -0.2292  0.9683
  393TIP3    H225375   7.803   5.402  10.909  1.4774 -0.9112 -0.6056
  394TIP3   OH225376   8.149   3.886   9.179 -0.3085  0.5823  0.1480
  394TIP3    H125377   8.054   3.887   9.194 -0.4420  0.7580 -0.6631
  394TIP3    H225378   8.175   3.796   9.199 -0.3509  0.9616  2.0580
  395TIP3   OH225379   7.101   2.570  10.629 -0.1710 -0.3225 -0.1308
  395TIP3    H125380   7.171   2.623  10.591  0.3621 -0.4865  0.5874
  395TIP3    H225381   7.028   2.631  10.642  0.8332  0.5777  1.8018
  396TIP3   OH225382   5.438   5.528   9.573 -0.5716  0.9464  0.4235
  396TIP3    H125383   5.509   5.524   9.637  0.5373  0.7044 -0.8043
  396TIP3    H225384   5.397   5.613   9.588 -1.0826  0.4359  2.2100
  397TIP3   OH225385   3.652   0.305  10.850 -1.0658  0.0710  0.1576
  397TIP3    H125386   3.674   0.359  10.774  1.1811 -0.4951  0.3270
  397TIP3    H225387   3.624   0.368  10.916 -1.0069  0.7737 -0.4678
  398TIP3   OH225388   1.273   6.762  10.771 -0.0226  0.8184 -0.5921
  398TIP3    H125389   1.362   6.792  10.785  0.3540  0.4312 -2.0507
  398TIP3    H225390   1.236   6.824  10.708 -0.6194  0.6793 -0.3887
  399TIP3   OH225391   4.140   1.180  10.517  0.4272 -0.3106  0.1588
  399TIP3    H125392   4.071   1.165  10.582  1.4873 -3.1152  0.7778
  399TIP3    H225393   4.099   1.239  10.453 -2.3176 -1.2692  0.8632
  400TIP3   OH225394   3.499   2.857  11.014 -0.1406 -0.2600  0.3538
  400TIP3    H125395   3.474   2.844  10.922  0.6551  0.3412  0.0313
  400TIP3    H225396   3.416   2.860  11.061 -0.6031  0.1043 -0.4475
  401TIP3   OH225397   6.222   6.813  11.335  0.4180 -0.7649  0.4519
  401TIP3    H125398   6.299   6.756  11.326  0.5508 -0.7598  1.4535
  401TIP3    H225399   6.251   6.897  11.298  0.4821 -1.0999 -0.2934
  402TIP3   OH225400   8.223   3.633   9.302  0.2750 -0.4175 -0.3272
  402TIP3    H125401   8.214   3.702   9.368 -1.4068  0.9582 -1.9039
  402TIP3    H225402   8.184   3.555   9.343  0.6385 -0.0131  0.8309
  403TIP3   OH225403   2.467   6.920  10.490 -0.4661  0.2185 -0.0104
  403TIP3    H125404   2.514   6.923  10.407 -0.0984 -0.7569  0.1513
  403TIP3    H225405   2.530   6.881  10.551 -1.1404 -0.1693  0.4437
  404TIP3   OH225406   3.561   6.472   9.872 -0.1343  0.3633 -0.0495
  404TIP3    H125407   3.495   6.540   9.863  0.9667  1.5185  0.2306
  404TIP3    H225408   3.544   6.412   9.800 -1.6038  0.5145  0.1415
  405TIP3   OH225409   0.302   8.631  10.873  0.0115  0.2037  0.0141
  405TIP3    H125410   0.348   8.710  10.900  1.4339 -1.1905  1.9096
  405TIP3    H225411   0.305   8.633  10.777  3.8526  0.3563 -0.0194
  406TIP3   OH225412   7.456   4.048   9.943 -0.1299  0.2886  0.0441
  406TIP3    H125413   7.383   4.102   9.972  1.1432  3.0730 -1.4697
  406TIP3    H225414   7.419   3.995   9.872 -1.2374 -0.2388  0.9886
  407TIP3   OH225415   1.834   5.912  10.527  0.6591  0.2548  0.3707
  407TIP3    H125416   1.897   5.870  10.470 -0.1094 -1.2193  0.5588
  407TIP3    H225417   1.749   5.895  10.486  0.3234  1.7528  0.3918
  408TIP3   OH225418   0.623   0.801   9.881  0.5243  0.0140  0.4375
  408TIP3    H125419   0.706   0.773   9.843  0.8435  0.9580  0.4018
  408TIP3    H225420   0.637   0.894   9.903  0.7341 -0.6833  3.8256
  409TIP3   OH225421   6.092   6.559  11.412  0.0889 -0.7316  0.0498
  409TIP3    H125422   6.127   6.644  11.385 -1.0417 -0.1039  0.4959
  409TIP3    H225423   6.025   6.539  11.346 -0.7877 -0.4811  0.8410
  410TIP3   OH225424   5.410   1.671  11.095  0.3189 -0.0293  0.0223
  410TIP3    H125425   5.430   1.587  11.053 -0.6244  0.6969 -2.0399
  410TIP3    H225426   5.337   1.652  11.154 -0.0722 -0.6242 -0.6412
  411TIP3   OH225427   2.338   5.586  10.722 -0.2255 -0.7449  0.4609
  411TIP3    H125428   2.394   5.513  10.694 -1.6659 -2.1259  0.9796
  411TIP3    H225429   2.281   5.603  10.646 -0.1265 -0.4045  0.4635
  412TIP3   OH225430   2.072   2.580  10.825 -0.2813  0.7043  0.1815
  412TIP3    H125431   1.991   2.610  10.867 -0.3220  0.3273  0.3720
  412TIP3    H225432   2.043   2.517  10.759 -0.1439  0.5829  0.2377
  413TIP3   OH225433   6.740   8.290  11.352 -0.0383  0.0765 -0.0821
  413TIP3    H125434   6.672   8.233  11.316 -0.0649 -0.7928  1.2990
  413TIP3    H225435   6.784   8.237  11.418 -0.1071  1.6703  1.2985
  414TIP3   OH225436   5.045   2.946  10.354 -0.4746 -0.5608 -0.4175
  414TIP3    H125437   5.112   2.963  10.419  0.5781 -0.1615 -1.5635
  414TIP3    H225438   4.962   2.955  10.401  0.2030  1.3032  0.5073
  415TIP3   OH225439   6.024   3.565   9.841  0.1005  0.2653  0.2460
  415TIP3    H125440   6.085   3.573   9.914 -2.4633  1.8580  2.3898
  415TIP3    H225441   5.963   3.638   9.851 -2.9188 -1.8488 -0.9577
  416TIP3   OH225442   0.133   8.432  10.107  0.3236 -0.7074  0.5762
  416TIP3    H125443   0.060   8.488  10.134  0.4764  0.0947 -0.6262
  416TIP3    H225444   0.123   8.423  10.012  0.9018 -1.8715  0.6115
  417TIP3   OH225445   7.305   4.283   9.323 -0.4312 -0.1794  0.0381
  417TIP3    H125446   7.338   4.336   9.395 -0.8239 -0.5960  0.5429
  417TIP3    H225447   7.217   4.317   9.307 -0.8993 -1.0128  0.7387
  418TIP3   OH225448   0.759   2.433  10.466 -0.3724  0.4479 -0.5171
  418TIP3    H125449   0.847   2.471  10.467 -0.1751  0.0061  1.3043
  418TIP3    H225450   0.700   2.507  10.470 -0.1244  0.7572 -1.8891
  419TIP3   OH225451   4.448   0.343  10.804 -0.5833  0.1652 -0.0477
  419TIP3    H125452   4.433   0.251  10.782 -1.0873  0.7443 -2.3676
  419TIP3    H225453   4.362   0.374  10.834 -0.7012  0.1595 -0.3766
  420TIP3   OH225454   0.689   1.838   9.998 -0.5740 -0.1260 -0.7298
  420TIP3    H125455   0.778   1.856   9.968  0.3737  0.0978  1.8761
  420TIP3    H225456   0.682   1.743   9.998  0.7232 -0.3116  1.4705
  421TIP3   OH225457   4.805   0.276  10.886 -0.0549 -0.3776  1.0023
  421TIP3    H125458   4.899   0.290  10.885 -0.0488  0.0233  2.7812
  421TIP3    H225459   4.781   0.260  10.795  1.1205  3.5256 -0.1499
  422TIP3   OH225460   4.585   6.671  11.155 -0.1459  0.1991  0.1485
  422TIP3    H125461   4.517   6.669  11.087  0.6899 -0.6229 -0.6856
  422TIP3    H225462   4.625   6.757  11.146 -0.5813  0.4083  0.1570
  423TIP3   OH225463   6.636   8.444  10.582  0.5620  0.0105  0.2579
  423TIP3    H125464   6.629   8.348  10.587  0.4136 -0.0133 -0.3143
  423TIP3    H225465   6.567   8.476  10.639 -0.2814 -0.2318 -0.5962
  424TIP3   OH225466   7.911   0.935   8.846  0.2248 -0.0979  0.2622
  424TIP3    H125467   8.005   0.922   8.855  0.2164  0.3295  1.0440
  424TIP3    H225468   7.890   0.901   8.759  1.2449  0.6169 -0.2803
  425TIP3   OH225469   3.234   5.873  10.534 -0.6284  0.6444 -0.3053
  425TIP3    H125470   3.262   5.937  10.599  1.2394 -0.3422 -0.0528
  425TIP3    H225471   3.291   5.889  10.459  0.3579 -1.0638  0.0061
  426TIP3   OH225472   3.823   6.043  11.231 -0.6970  0.3148  0.6319
  426TIP3    H125473   3.912   6.011  11.250 -1.2049 -1.0648  0.7365
  426TIP3    H225474   3.834   6.138  11.226  1.1518  0.0835 -1.2384
  427TIP3   OH225475   7.748   7.396  10.187 -0.5953 -0.4222  0.6497
  427TIP3    H125476   7.705   7.363  10.109  1.9623 -2.3087 -0.1107
  427TIP3    H225477   7.815   7.330  10.207  0.6658  1.3676  2.7746
  428TIP3   OH225478   4.614   9.063  10.715  0.9485  0.5871  0.1198
  428TIP3    H125479   4.616   9.043  10.622  0.9947  2.2133 -0.2606
  428TIP3    H225480   4.556   9.138  10.723  1.1818  0.6668  1.3695
  429TIP3   OH225481   5.383   4.091  10.972  0.6067 -0.4573 -0.1112
  429TIP3    H125482   5.475   4.119  10.975  0.2892  0.7847 -1.0604
  429TIP3    H225483   5.386   3.996  10.980  1.8497 -0.3286  1.7665
  430TIP3   OH225484   0.671   2.956  10.935  0.1370  0.1696 -0.5152
  430TIP3    H125485   0.594   2.910  10.901 -0.5111  1.2407 -0.5624
  430TIP3    H225486   0.710   2.996  10.857  1.5558 -1.4771 -0.7022
  431TIP3   OH225487   1.492   5.833  10.207 -0.3112  0.4125  0.1445
  431TIP3    H125488   1.584   5.858  10.197 -0.0191 -1.0648 -1.3114
  431TIP3    H225489   1.444   5.895  10.153 -0.1767  1.1165  0.8173
  432TIP3   OH225490   3.152   8.125  10.048 -0.3472  0.4085 -0.1958
  432TIP3    H125491   3.212   8.136   9.974 -0.1482 -1.8960 -0.4294
  432TIP3    H225492   3.199   8.165  10.122  0.3314  0.9291 -0.8854
  433TIP3   OH225493   4.980   7.541   9.684  0.3119  0.1113 -0.7685
  433TIP3    H125494   5.039   7.574   9.615  1.0717  1.5552  0.4923
  433TIP3    H225495   4.937   7.466   9.645  0.7509  0.8486 -2.8071
  434TIP3   OH225496   7.757   8.178  10.138 -0.2203  0.0995  0.0853
  434TIP3    H125497   7.746   8.182  10.043  0.0032 -0.1583  0.0469
  434TIP3    H225498   7.713   8.097  10.164  1.6921 -1.0771 -0.1040
  435TIP3   OH225499   4.354   6.233  10.026 -0.5886  0.4313  0.0927
  435TIP3    H125500   4.382   6.174   9.956 -0.6528 -0.3974  0.7442
  435TIP3    H225501   4.267   6.200  10.051 -0.1618  0.1101  1.2092
  436TIP3   OH225502   6.629   8.589  11.411 -0.5936  0.1282  0.6292
  436TIP3    H125503   6.546   8.587  11.364  0.1553  1.5677 -0.8390
  436TIP3    H225504   6.643   8.498  11.438 -1.9754 -0.3874 -0.2860
  437TIP3   OH225505   9.019   1.308   9.022  0.4908 -0.4748  0.0006
  437TIP3    H125506   9.045   1.291   9.112 -1.4854 -0.4584  0.6233
  437TIP3    H225507   9.011   1.221   8.982  0.3181 -0.5338  0.1622
  438TIP3   OH225508   4.422   4.757  10.665  0.0425 -0.1779  0.4764
  438TIP3    H125509   4.386   4.836  10.627 -2.6007 -1.4380  0.1241
  438TIP3    H225510   4.403   4.764  10.759 -1.8761 -1.1352  0.2031
  439TIP3   OH225511   4.354   8.786  10.726  0.3336  0.2193  0.4226
  439TIP3    H125512   4.403   8.737  10.660  0.4693  1.7979 -0.7187
  439TIP3    H225513   4.269   8.743  10.731  0.5729 -0.3478 -0.2786
  440TIP3   OH225514   7.255   5.640   9.747  0.6979  0.2499  0.2292
  440TIP3    H125515   7.250   5.681   9.833  0.4981  0.3246  0.1817
  440TIP3    H225516   7.168   5.651   9.709  0.4557 -0.7484  0.4612
  441TIP3   OH225517   4.016   6.556  10.898  0.3194 -0.0505  0.3360
  441TIP3    H125518   3.944   6.503  10.861  0.3770  0.6267 -0.7973
  441TIP3    H225519   3.975   6.604  10.970  0.2262 -1.4866  1.2796
  442TIP3   OH225520   8.436   5.482  11.035  0.0111 -0.2002  0.1414
  442TIP3    H125521   8.482   5.559  11.068  1.0051 -0.8581  0.3310
  442TIP3    H225522   8.505   5.423  11.005 -0.7158 -1.1316  0.2346
  443TIP3   OH225523   2.724   2.058   9.465  0.0010  0.5168  0.0049
  443TIP3    H125524   2.771   2.005   9.529 -0.1988 -0.0334 -0.3028
  443TIP3    H225525   2.793   2.090   9.405 -0.0312 -0.4876 -0.5886
  444TIP3   OH225526   0.404   1.768   9.376 -0.6229  0.4813 -0.2613
  444TIP3    H125527   0.380   1.690   9.427 -0.0707  0.9278  0.6895
  444TIP3    H225528   0.399   1.738   9.285 -0.0557 -0.7834  0.0912
  445TIP3   OH225529   5.783   4.356  10.606 -0.3387  0.8151  0.0542
  445TIP3    H125530   5.793   4.405  10.525  0.6243  0.2543 -0.1699
  445TIP3    H225531   5.692   4.373  10.633 -1.0042  0.1597 -1.6758
  446TIP3   OH225532   8.160   1.240   8.759 -0.3641 -0.4134 -0.5023
  446TIP3    H125533   8.234   1.214   8.704  1.3251 -0.1971  1.5232
  446TIP3    H225534   8.132   1.159   8.802 -0.9573 -0.3960 -0.8467
  447TIP3   OH225535   5.418   2.101  10.422 -0.0612  0.2092 -0.1184
  447TIP3    H125536   5.501   2.101  10.376 -0.0285 -0.8498 -0.0708
  447TIP3    H225537   5.383   2.190  10.409  0.4560  0.2590 -1.2324
  448TIP3   OH225538   1.511   4.562  10.931 -0.0316  0.2366  0.0867
  448TIP3    H125539   1.433   4.616  10.942  0.0288 -0.0268  2.1198
  448TIP3    H225540   1.478   4.472  10.924  0.0170  0.2634 -0.5191
  449TIP3   OH225541   9.160   8.960   9.573  0.6695 -0.3589  0.3242
  449TIP3    H125542   9.094   8.955   9.504  1.3765  0.2004 -0.4178
  449TIP3    H225543   9.233   8.906   9.541  0.4576 -1.2183  1.2703
  450TIP3   OH225544   5.230   5.218  10.694  0.0018  0.0661  0.0502
  450TIP3    H125545   5.219   5.269  10.775  2.2622  0.9373 -0.1158
  450TIP3    H225546   5.290   5.148  10.718 -0.5043 -0.5809 -0.5312
  451TIP3   OH225547   0.834   5.077  10.856 -0.3974 -0.0385 -0.3541
  451TIP3    H125548   0.796   5.036  10.779  0.1008 -0.0945 -0.5725
  451TIP3    H225549   0.816   5.016  10.928 -1.0108  0.0960 -0.3929
  452TIP3   OH225550   7.023   6.941   9.719  0.3660  0.4456 -0.0162
  452TIP3    H125551   6.941   6.971   9.678 -1.3148 -0.1346  2.6982
  452TIP3    H225552   7.083   6.929   9.645 -1.5962  2.0005 -2.0173
  453TIP3   OH225553   6.313   2.086  11.000  0.0283  0.1518  0.0560
  453TIP3    H125554   6.257   2.034  11.057  0.2349 -0.4305 -0.2635
  453TIP3    H225555   6.357   2.147  11.058  1.2953 -1.3478  0.7486
  454TIP3   OH225556   8.044   5.148   9.516  0.3690  0.1036  0.2932
  454TIP3    H125557   8.136   5.121   9.522  0.7066  1.0789 -0.2575
  454TIP3    H225558   7.996   5.066   9.505  1.1120 -0.4634  1.1582
  455TIP3   OH225559   0.548   4.266  10.012 -0.3654  0.3876 -0.0858
  455TIP3    H125560   0.564   4.172  10.011  0.2372  0.4851 -0.6557
  455TIP3    H225561   0.605   4.301   9.943 -0.8547  1.1252 -0.1327
  456TIP3   OH225562   3.922   0.382  10.139  0.0402 -0.5632  0.0932
  456TIP3    H125563   3.975   0.322  10.088 -1.2403 -0.2317 -1.7258
  456TIP3    H225564   3.832   0.351  10.127 -0.7895  2.1240 -1.6555
  457TIP3   OH225565   2.398   4.455  10.079  0.1673 -0.1318  0.0932
  457TIP3    H125566   2.484   4.428  10.047  0.2721  1.1497 -0.8239
  457TIP3    H225567   2.341   4.452  10.002 -0.9515 -2.1205  0.9237
  458TIP3   OH225568   1.749   8.180  10.497  0.2861  0.2041  0.3433
  458TIP3    H125569   1.823   8.211  10.549 -1.2808  2.4597  1.3957
  458TIP3    H225570   1.703   8.120  10.556  0.7402 -0.4687  0.0247
  459TIP3   OH225571   4.380   9.019  10.276  0.0108 -0.3188  0.8521
  459TIP3    H125572   4.290   9.047  10.263  0.2469  0.6098  1.1234
  459TIP3    H225573   4.421   9.028  10.189 -0.1818 -0.8435  0.7060
  460TIP3   OH225574   7.232   9.081  10.785  0.0644  0.5204  0.0172
  460TIP3    H125575   7.285   9.041  10.855  0.6220  2.0440  0.4985
  460TIP3    H225576   7.227   9.013  10.718  1.8037 -0.0186  0.3814
  461TIP3   OH225577   3.179   2.168  11.064  0.2410  0.5615 -0.5584
  461TIP3    H125578   3.132   2.157  11.146  1.6729  0.3401  0.2701
  461TIP3    H225579   3.162   2.259  11.038  0.9080  1.0907  0.7567
  462TIP3   OH225580   5.468   4.520  10.670 -0.5691  0.1930  0.3147
  462TIP3    H125581   5.526   4.578  10.622 -0.0069 -0.8368 -0.2858
  462TIP3    H225582   5.380   4.554  10.653 -0.2184  1.3329  0.6448
  463TIP3   OH225583   1.339   2.939  10.280 -0.0355  0.4000 -0.0485
  463TIP3    H125584   1.389   2.983  10.212  0.0645 -0.9541 -0.8795
  463TIP3    H225585   1.392   2.864  10.305 -1.7296 -1.2754 -1.1912
  464TIP3   OH225586   8.356   7.309  10.633 -0.4493 -0.3986  0.2997
  464TIP3    H125587   8.276   7.258  10.637 -0.8620  0.2477  0.4163
  464TIP3    H225588   8.328   7.397  10.609  0.1361  0.0197  1.0756
  465TIP3   OH225589   3.808   6.177  10.406 -0.3368 -0.5495 -0.1099
  465TIP3    H125590   3.817   6.139  10.319 -0.3926 -0.6913 -0.0555
  465TIP3    H225591   3.720   6.213  10.408 -0.0747  0.1211 -0.3676
  466TIP3   OH225592   2.538   9.078  10.171  0.6046 -0.2310 -0.1640
  466TIP3    H125593   2.529   9.095  10.077  0.1357  1.7818  0.2006
  466TIP3    H225594   2.603   9.008  10.177  1.5318  0.4194 -1.9385
  467TIP3   OH225595   6.683   8.327  10.855 -0.0113  0.3758  0.4073
  467TIP3    H125596   6.672   8.236  10.881 -0.7451  0.6473  1.0696
  467TIP3    H225597   6.760   8.357  10.903 -0.5233  0.4682  1.1763
  468TIP3   OH225598   7.534   4.997   9.416 -0.1101  0.2678  0.2775
  468TIP3    H125599   7.601   4.954   9.363 -2.0907 -1.1564 -1.2337
  468TIP3    H225600   7.556   5.090   9.411  1.0978 -0.0527 -1.1256
  469TIP3   OH225601   0.954   4.310  10.262 -0.3441 -0.3488  0.2127
  469TIP3    H125602   1.003   4.252  10.321 -0.9334 -2.5855 -1.3305
  469TIP3    H225603   0.891   4.252  10.219 -0.5267  1.3180 -1.9623
  470TIP3   OH225604   5.580   7.750  10.715  0.4143  0.3103 -0.0457
  470TIP3    H125605   5.645   7.701  10.666 -0.3646 -0.3813 -0.4093
  470TIP3    H225606   5.531   7.683  10.764 -0.5113  0.7343 -0.3697
  471TIP3   OH225607   6.388   3.608   9.417 -0.1241 -0.3640 -0.0251
  471TIP3    H125608   6.363   3.667   9.347 -0.9903 -1.1694 -0.4075
  471TIP3    H225609   6.480   3.629   9.434 -0.2744  0.7322 -0.4903
  472TIP3   OH225610   6.192   7.997   9.794 -0.3198  0.0848  0.5349
  472TIP3    H125611   6.126   7.936   9.761  0.2803 -0.1620 -0.2367
  472TIP3    H225612   6.225   7.955   9.874 -0.1323 -0.4658  0.1797
  473TIP3   OH225613   6.053   7.377   9.249 -0.1727 -0.5112 -0.0808
  473TIP3    H125614   6.050   7.332   9.334 -1.1502 -0.2991  0.0086
  473TIP3    H225615   6.146   7.379   9.226  0.0169 -1.4120  0.5359
  474TIP3   OH225616   2.608   1.732  10.159  0.6913  0.0140  0.3049
  474TIP3    H125617   2.662   1.752  10.235  0.9015  0.1696  0.1145
  474TIP3    H225618   2.583   1.817  10.124  2.6453 -0.0019 -1.2655
  475TIP3   OH225619   0.874   0.382   9.783 -0.1367 -0.4925 -0.4918
  475TIP3    H125620   0.815   0.355   9.712 -0.8323  0.5041 -0.3181
  475TIP3    H225621   0.950   0.325   9.774 -1.5035 -2.4695 -0.1606
  476TIP3   OH225622   2.552   4.267  10.781 -0.1373  0.3247 -0.1905
  476TIP3    H125623   2.607   4.195  10.811 -1.1455 -1.1020 -1.6545
  476TIP3    H225624   2.505   4.296  10.860  0.5300 -0.3746  0.4770
  477TIP3   OH225625   2.316   1.193  10.700 -0.2466  0.2209 -0.3727
  477TIP3    H125626   2.312   1.262  10.766  0.7779  0.2789 -0.3546
  477TIP3    H225627   2.408   1.167  10.698 -0.5957 -1.0923 -0.4357
  478TIP3   OH225628   4.046   1.194  10.770  0.1851 -0.3338 -0.1229
  478TIP3    H125629   4.110   1.260  10.745 -1.8045  1.7988  0.0479
  478TIP3    H225630   4.091   1.138  10.833  1.7061  1.3994  0.4049
  479TIP3   OH225631   4.684   6.462  11.300 -0.3736  0.0385  0.5234
  479TIP3    H125632   4.675   6.555  11.279  2.1357 -0.1054 -1.7042
  479TIP3    H225633   4.658   6.416  11.220 -0.3045 -1.1402  1.1401
  480TIP3   OH225634   1.939   4.293   9.535 -0.7663 -0.5620 -0.3901
  480TIP3    H125635   1.947   4.363   9.471  2.5096  0.4155  0.8594
  480TIP3    H225636   1.889   4.332   9.607  1.7875  0.9851  0.6912
  481TIP3   OH225637   2.382   4.095  10.566  0.2733 -0.4774 -0.3185
  481TIP3    H125638   2.469   4.107  10.529  0.3333 -3.3470 -1.3873
  481TIP3    H225639   2.396   4.038  10.642 -0.6701 -1.4872 -0.8659
  482TIP3   OH225640   8.347   8.567  10.694  0.2111  0.2054 -0.1073
  482TIP3    H125641   8.263   8.606  10.716 -0.2712 -0.6886 -0.2861
  482TIP3    H225642   8.410   8.610  10.751 -0.3944  0.7872  0.1276
  483TIP3   OH225643   4.072   1.581  10.504 -0.0608  0.1445 -0.0935
  483TIP3    H125644   4.106   1.663  10.539  0.6934 -0.4636  0.6186
  483TIP3    H225645   4.131   1.559  10.431  0.1526 -0.1139  0.1545
  484TIP3   OH225646   6.471   3.704  10.258  0.2695  0.8617  0.1889
  484TIP3    H125647   6.462   3.628  10.315  0.5783  1.3152  0.8512
  484TIP3    H225648   6.413   3.770  10.296  0.2551  1.0711 -0.1888
  485TIP3   OH225649   2.573   1.552  11.003  0.1380 -0.2321 -0.6859
  485TIP3    H125650   2.499   1.493  10.987 -0.5137  0.2424  0.4611
  485TIP3    H225651   2.532   1.637  11.017  1.0301  0.3978 -1.7216
  486TIP3   OH225652   0.350   6.453  10.746  0.1840 -0.1470 -0.0266
  486TIP3    H125653   0.432   6.494  10.720  1.0239 -1.4812  0.4387
  486TIP3    H225654   0.344   6.467  10.840 -0.2299  0.1150 -0.0883
  487TIP3   OH225655   8.796   4.243   9.690  0.3227  0.3701 -0.0845
  487TIP3    H125656   8.854   4.233   9.614  1.4356 -0.7293  0.8644
  487TIP3    H225657   8.737   4.167   9.685  0.0137  0.6132 -0.1634
  488TIP3   OH225658   6.991   6.088  10.643 -0.8261 -0.2033  0.5216
  488TIP3    H125659   7.054   6.033  10.596 -1.3354 -0.9225  0.6638
  488TIP3    H225660   6.909   6.038  10.641 -1.6538  1.1178 -0.4726
  489TIP3   OH225661   8.912   1.674   9.465 -0.2987  0.2488 -0.2484
  489TIP3    H125662   8.856   1.691   9.540  0.2104 -0.6700  0.3585
  489TIP3    H225663   8.898   1.749   9.407 -1.5941  0.3897  0.2118
  490TIP3   OH225664   1.718   8.836   9.957 -0.1685 -0.0629  0.0915
  490TIP3    H125665   1.652   8.903   9.942 -0.4855 -0.4842 -0.4727
  490TIP3    H225666   1.683   8.782  10.028 -0.6239 -0.5100 -0.4593
  491TIP3   OH225667   5.474   1.746  10.106  0.0963  0.2122 -0.1967
  491TIP3    H125668   5.398   1.790  10.068 -0.1031 -0.0536 -0.1086
  491TIP3    H225669   5.440   1.661  10.135  0.5477 -0.1232 -0.6436
  492TIP3   OH225670   1.093   6.552  10.536  0.1149 -0.0689 -0.1076
  492TIP3    H125671   1.105   6.564  10.630 -1.8163  1.8121 -0.0136
  492TIP3    H225672   1.179   6.571  10.499  0.2982  1.8375  1.1345
  493TIP3   OH225673   6.397   3.888  11.086  0.0802 -0.5474  0.3500
  493TIP3    H125674   6.304   3.869  11.075 -0.6591  1.9634  1.2956
  493TIP3    H225675   6.411   3.882  11.181  1.0565 -1.5529  0.1508
  494TIP3   OH225676   1.079   4.528  10.136  0.1502  0.2324 -0.0346
  494TIP3    H125677   1.023   4.585  10.083 -0.7256 -1.1828 -0.6829
  494TIP3    H225678   1.027   4.449  10.149  2.2295 -1.4106 -1.2141
  495TIP3   OH225679   8.051   6.306  10.226 -0.0048 -0.2447  0.3396
  495TIP3    H125680   8.112   6.291  10.154 -1.0548  1.5809 -1.0189
  495TIP3    H225681   7.997   6.227  10.230  0.2755 -0.4926 -0.6798
  496TIP3   OH225682   7.757   4.886  10.643 -0.1818  0.5228  0.5167
  496TIP3    H125683   7.717   4.963  10.684 -0.2133 -0.0050  1.5248
  496TIP3    H225684   7.848   4.887  10.673  0.5046  1.4967 -1.4526
  497TIP3   OH225685   1.868   6.334   9.814 -0.1722  0.1965 -0.0524
  497TIP3    H125686   1.879   6.241   9.793  0.0780  0.1028  0.4953
  497TIP3    H225687   1.791   6.360   9.763 -0.3162 -0.3371 -0.1164
  498TIP3   OH225688   6.810   2.187   9.169 -0.2295 -0.4655 -0.0111
  498TIP3    H125689   6.852   2.211   9.252  1.4813 -1.5776 -0.5201
  498TIP3    H225690   6.743   2.255   9.157  0.1740  0.3189  1.7481
  499TIP3   OH225691   6.477   9.173   9.532 -0.4117  0.2802  0.0983
  499TIP3    H125692   6.536   9.198   9.461 -1.4565  0.9242 -0.5731
  499TIP3    H225693   6.398   9.141   9.488 -0.2391 -1.4572  0.9763
  500TIP3   OH225694   2.365   3.531  10.788 -0.5102  0.3350  0.9890
  500TIP3    H125695   2.274   3.548  10.765 -0.3781 -0.6015 -0.3501
  500TIP3    H225696   2.366   3.440  10.816  0.3350 -0.3713 -1.1388
  501TIP3   OH225697   8.601   0.761   9.707 -0.5547  0.0237  0.0699
  501TIP3    H125698   8.518   0.796   9.738  0.6036  0.9640  2.3177
  501TIP3    H225699   8.667   0.825   9.735  0.9386 -0.5725 -1.8217
  502TIP3   OH225700   5.128   2.124  10.261 -0.5202  0.5595  0.3770
  502TIP3    H125701   5.084   2.180  10.325 -1.1345  0.2182  0.2618
  502TIP3    H225702   5.064   2.113  10.191 -0.8097 -1.1119  0.8592
  503TIP3   OH225703   5.833   4.110  10.697 -0.6264  0.0660 -0.0575
  503TIP3    H125704   5.921   4.094  10.663 -0.8432 -0.9623 -0.1772
  503TIP3    H225705   5.803   4.188  10.651  1.0230  1.7500  1.5711
  504TIP3   OH225706   5.579   8.255  11.147  0.0611 -0.6831  0.4994
  504TIP3    H125707   5.623   8.318  11.090  0.2975 -1.9368 -0.7853
  504TIP3    H225708   5.609   8.276  11.235 -0.9253  1.8138  0.2974
  505TIP3   OH225709   5.663   7.541  11.327 -0.1360  0.0385 -0.0071
  505TIP3    H125710   5.728   7.522  11.395  0.6371 -2.7555 -1.4060
  505TIP3    H225711   5.714   7.574  11.253 -0.3167 -1.6365 -0.9135
  506TIP3   OH225712   2.816   6.512  10.132  0.0575  0.2706 -0.1050
  506TIP3    H125713   2.861   6.442  10.180  0.7130  0.4550 -0.4325
  506TIP3    H225714   2.803   6.581  10.198  1.3344  0.6923 -0.2632
  507TIP3   OH225715   9.189   2.604   9.949  0.0124 -0.0171  0.1857
  507TIP3    H125716   9.178   2.672  10.016  0.2393  0.1774  0.0275
  507TIP3    H225717   9.120   2.622   9.885 -0.7319 -0.6957  0.7697
  508TIP3   OH225718   2.044   3.823  10.809  0.2630 -0.3597  0.1631
  508TIP3    H125719   1.963   3.874  10.821 -0.4388 -1.4736  0.3417
  508TIP3    H225720   2.061   3.785  10.895 -0.8099 -2.6438 -0.5503
  509TIP3   OH225721   4.692   7.388  10.950  0.2405  0.1275  0.5106
  509TIP3    H125722   4.628   7.378  10.880 -0.6050 -1.0263  1.4255
  509TIP3    H225723   4.718   7.480  10.945 -0.6213  0.3337 -0.6065
  510TIP3   OH225724   6.367   7.409  11.150 -0.4231 -0.2428  0.0398
  510TIP3    H125725   6.291   7.442  11.198 -0.6186 -1.0594  0.3072
  510TIP3    H225726   6.338   7.327  11.111  0.1371 -0.2534 -0.3848
  511TIP3   OH225727   2.796   7.976  10.644  0.2555  0.0467  0.1166
  511TIP3    H125728   2.703   7.954  10.638  0.2366  0.2200 -0.2877
  511TIP3    H225729   2.834   7.907  10.698 -0.0777 -0.1213  0.1376
  512TIP3   OH225730   2.773   1.135  11.218 -0.0708 -0.0677 -0.0847
  512TIP3    H125731   2.744   1.090  11.297 -1.1267  1.4156  0.3962
  512TIP3    H225732   2.862   1.165  11.239 -0.4759  0.6186  0.6686
  513TIP3   OH225733   9.019   0.889  10.195  0.2395 -0.0515 -0.0555
  513TIP3    H125734   8.987   0.978  10.201  0.0156 -0.0824 -0.7188
  513TIP3    H225735   9.046   0.879  10.104  1.3725 -0.2852  0.2825
  514TIP3   OH225736   3.849   8.612  11.148  0.0485 -0.2565  0.1750
  514TIP3    H125737   3.776   8.569  11.104 -0.4508  0.5402  0.1915
  514TIP3    H225738   3.841   8.586  11.239  1.2947 -2.1963 -0.2255
  515TIP3   OH225739   5.492   0.023  11.066  0.3906 -0.3667 -0.2962
  515TIP3    H125740   5.549  -0.031  11.120  0.6194 -0.4518 -0.6199
  515TIP3    H225741   5.406   0.015  11.107  1.1416  2.1910  2.0373
  516TIP3   OH225742   8.060   2.357  10.483  0.0843  0.9545  0.1220
  516TIP3    H125743   8.071   2.337  10.390 -1.7561  1.4802 -0.2551
  516TIP3    H225744   8.036   2.274  10.523 -0.4027  0.9694 -0.1266
  517TIP3   OH225745   4.963   4.087  10.023  0.1957 -0.3238 -0.9881
  517TIP3    H125746   4.974   3.992  10.010 -1.3309 -0.5391 -0.8922
  517TIP3    H225747   4.890   4.110   9.966 -0.2651  0.5684 -0.0569
  518TIP3   OH225748   0.066   1.337   9.802 -0.3386  0.1986 -0.0119
  518TIP3    H125749   0.048   1.268   9.738 -0.2671  1.3939 -1.3926
  518TIP3    H225750   0.041   1.418   9.757  0.5271  1.1638  1.1766
  519TIP3   OH225751   6.320   2.786   9.649  0.4312 -0.2045  0.4970
  519TIP3    H125752   6.395   2.801   9.591 -0.2527  2.2882  0.1471
  519TIP3    H225753   6.254   2.849   9.620 -2.2940 -2.9886  0.0707
  520TIP3   OH225754   0.454   2.033   9.299  0.1627  0.3167  0.5569
  520TIP3    H125755   0.373   2.067   9.261  0.3891  0.1272 -0.1099
  520TIP3    H225756   0.431   1.945   9.328  0.4193 -0.2161 -0.7481
  521TIP3   OH225757   2.868   5.459  10.923  0.3851  0.0635 -0.4814
  521TIP3    H125758   2.960   5.447  10.900  0.5915  1.0174 -0.2034
  521TIP3    H225759   2.869   5.486  11.015 -0.2866 -1.4946  0.0080
  522TIP3   OH225760   4.873   0.188   9.509 -0.1751  0.2860  0.1111
  522TIP3    H125761   4.878   0.170   9.415 -0.0174 -1.8224  0.4735
  522TIP3    H225762   4.964   0.183   9.539 -0.3884 -1.0194  0.6502
  523TIP3   OH225763   7.959   1.174   9.624  0.1327 -0.3466  0.5032
  523TIP3    H125764   7.868   1.188   9.599  0.3890 -0.3839 -0.4921
  523TIP3    H225765   7.966   1.079   9.639  0.0965 -0.3956  0.2122
  524TIP3   OH225766   0.806   3.489   9.946 -0.0159  0.1859  0.0675
  524TIP3    H125767   0.807   3.441   9.863 -0.5094  0.2010  0.0526
  524TIP3    H225768   0.781   3.578   9.922  1.4877  0.6180  0.0157
  525TIP3   OH225769   3.949   3.629  10.229  0.3524 -0.5473 -0.7815
  525TIP3    H125770   4.011   3.667  10.291 -0.4573  0.4813 -0.5878
  525TIP3    H225771   3.996   3.630  10.145  0.2580  1.1679 -0.8437
  526TIP3   OH225772   9.117   6.010   9.996 -0.7356 -0.1646 -0.0540
  526TIP3    H125773   9.097   5.922  10.029 -0.9197 -0.1851 -0.2139
  526TIP3    H225774   9.171   6.050  10.064 -0.6826 -0.3893  0.0367
  527TIP3   OH225775   2.988   4.142  10.923  0.0134  0.2574  0.1299
  527TIP3    H125776   2.911   4.180  10.965  0.6735 -0.8783  2.5094
  527TIP3    H225777   2.955   4.065  10.877 -0.4195  0.3849  0.2254
  528TIP3   OH225778   2.214   2.288   9.350 -0.5892 -0.2417  0.1779
  528TIP3    H125779   2.218   2.194   9.365  0.1831  0.1191  2.6819
  528TIP3    H225780   2.120   2.308   9.348 -0.7547 -1.0494 -0.3416
  529TIP3   OH225781   1.796   2.430   9.816 -0.1699  1.0195  0.4360
  529TIP3    H125782   1.758   2.479   9.743  1.3188 -0.3239 -1.3676
  529TIP3    H225783   1.723   2.384   9.855 -0.9042  1.1232 -0.7609
  530TIP3   OH225784   6.732   9.024  10.833  0.5352 -0.9402  0.1122
  530TIP3    H125785   6.814   9.067  10.856  1.4045 -0.9509 -2.6397
  530TIP3    H225786   6.756   8.933  10.818 -0.3401 -1.3224  0.9008
  531TIP3   OH225787   4.578   3.018  10.169  0.3533 -0.0861  0.0344
  531TIP3    H125788   4.518   2.951  10.135  0.6998  0.6949 -2.2593
  531TIP3    H225789   4.532   3.101  10.156  1.4329  0.4266 -0.6802
  532TIP3   OH225790   0.483   3.474  10.661  0.2925 -0.2855  0.6125
  532TIP3    H125791   0.433   3.518  10.593  2.5745  0.0094 -0.9894
  532TIP3    H225792   0.510   3.543  10.721 -0.3774 -0.2963  0.9272
  533TIP3   OH225793   4.667   1.438   9.177 -0.2930 -0.5568  0.1962
  533TIP3    H125794   4.710   1.355   9.157 -1.1046 -0.6555 -1.3129
  533TIP3    H225795   4.573   1.420   9.167 -0.6169  0.0887  1.7135
  534TIP3   OH225796   2.730   6.896  10.604 -0.5137  0.4663  0.5218
  534TIP3    H125797   2.799   6.938  10.656  0.0066  1.5921 -1.0100
  534TIP3    H225798   2.731   6.805  10.633  1.8360  0.3824  0.3617
  535TIP3   OH225799   3.047   3.919  10.559  0.1309 -0.6544  0.7860
  535TIP3    H125800   2.997   3.917  10.477  0.1858 -1.4704  0.7624
  535TIP3    H225801   3.051   4.011  10.582  1.9698 -0.1181 -1.2648
  536TIP3   OH225802   3.429   0.025   9.542 -0.1681  0.2787  0.0048
  536TIP3    H125803   3.345  -0.020   9.530  0.7581 -1.1215 -1.6590
  536TIP3    H225804   3.477  -0.030   9.604 -0.4779  1.1416  1.0472
  537TIP3   OH225805   2.827   1.355   9.878  0.6657 -0.2541  0.0680
  537TIP3    H125806   2.816   1.273   9.830 -2.2594 -0.4821  0.9394
  537TIP3    H225807   2.742   1.369   9.921  1.2734  2.9261  0.4338
  538TIP3   OH225808   8.195   1.625   9.558  0.6821 -0.5311  0.1843
  538TIP3    H125809   8.121   1.568   9.537  0.3276 -0.5592  1.4213
  538TIP3    H225810   8.213   1.607   9.650  1.0142  0.8616  0.4138
  539TIP3   OH225811   7.976   9.087   9.612 -0.0013 -0.4401  0.2925
  539TIP3    H125812   7.946   9.127   9.530  0.3891 -1.0716 -0.1685
  539TIP3    H225813   7.989   8.995   9.590 -0.2998 -0.7015  1.1803
  540TIP3   OH225814   6.481   5.185  10.338 -0.2991 -0.1563 -0.3598
  540TIP3    H125815   6.424   5.197  10.414 -0.8533 -1.1167 -0.6123
  540TIP3    H225816   6.566   5.221  10.366 -0.7467  0.3574  0.3698
  541TIP3   OH225817   8.404   5.077  10.037 -0.1318  0.3965  0.3824
  541TIP3    H125818   8.388   5.154   9.982  2.4320  0.7536  0.0245
  541TIP3    H225819   8.445   5.014   9.978  0.4314 -0.1412  1.3300
  542TIP3   OH225820   6.793   7.396  10.002 -0.2753 -0.3528 -0.0871
  542TIP3    H125821   6.879   7.434   9.985  0.1075 -0.6119  1.1390
  542TIP3    H225822   6.776   7.417  10.094 -0.8136 -1.6341  0.1262
  543TIP3   OH225823   7.153   8.853  10.648 -0.6658 -0.0952 -0.8308
  543TIP3    H125824   7.179   8.774  10.695 -0.7553 -0.1671 -0.9009
  543TIP3    H225825   7.178   8.836  10.557  0.1691  0.3389 -0.6859
  544TIP3   OH225826   8.974   5.959  10.287  0.3423  0.4052  0.2529
  544TIP3    H125827   9.044   5.893  10.285  0.0231  0.0755 -0.7974
  544TIP3    H225828   8.894   5.908  10.297  0.1681  0.6972  0.3473
  545TIP3   OH225829   1.353   3.866  10.141  0.3609 -0.0157  0.2706
  545TIP3    H125830   1.324   3.955  10.161 -1.5371 -0.5928  0.2721
  545TIP3    H225831   1.364   3.865  10.046  0.4112  0.2202  0.2743
  546TIP3   OH225832   4.027   5.931  10.937  0.1808  0.0102  0.5763
  546TIP3    H125833   3.935   5.935  10.910  0.1738  0.0497  0.6061
  546TIP3    H225834   4.025   5.946  11.032  0.1757 -0.4526  0.6537
  547TIP3   OH225835   5.277   2.622  11.079 -0.0250 -0.2176 -0.1347
  547TIP3    H125836   5.284   2.555  11.011  0.3559  0.3119 -0.6222
  547TIP3    H225837   5.193   2.665  11.062  0.7163  0.8800 -1.1834
  548TIP3   OH225838   3.476   5.300   9.699  0.1834  0.7198  0.2677
  548TIP3    H125839   3.471   5.311   9.604 -0.6649 -0.9019  0.0916
  548TIP3    H225840   3.409   5.360   9.733 -0.7946 -0.0305 -0.2931
  549TIP3   OH225841   2.981   3.749  11.070  0.0026 -0.5167 -0.2573
  549TIP3    H125842   2.925   3.766  10.994 -1.1474  1.6537  0.9933
  549TIP3    H225843   2.921   3.727  11.140  0.9178 -0.5511  0.5359
  550TIP3   OH225844   4.990   7.962  10.364  0.5207  0.0372 -0.0107
  550TIP3    H125845   4.930   7.932  10.294 -0.8100  1.2329  0.5700
  550TIP3    H225846   4.974   7.901  10.436  2.4020 -1.6356 -0.9025
  551TIP3   OH225847   7.431   2.203  10.188  0.5415  0.4911 -0.2857
  551TIP3    H125848   7.467   2.239  10.269  2.0291 -0.4023 -0.5123
  551TIP3    H225849   7.470   2.255  10.118  0.4763  0.2592 -0.4972
  552TIP3   OH225850   7.395   7.415  10.380  1.1367  0.1637 -0.2776
  552TIP3    H125851   7.312   7.434  10.424  1.1066  0.9068 -0.6474
  552TIP3    H225852   7.396   7.320  10.371  0.7836  0.0658  0.6153
  553TIP3   OH225853   6.435   1.830  10.611  0.7523  1.0355  0.1264
  553TIP3    H125854   6.390   1.830  10.526  0.5133  0.7279  0.2526
  553TIP3    H225855   6.376   1.878  10.669  0.7377  0.9128  0.2126
  554TIP3   OH225856   7.014   0.518  10.734 -0.3186 -0.1858 -1.1311
  554TIP3    H125857   6.962   0.438  10.742  2.0071 -1.8150 -1.1972
  554TIP3    H225858   7.081   0.496  10.669  1.0292  1.4584 -0.3679
  555TIP3   OH225859   8.724   5.266  10.645  0.5226 -0.2213  0.1504
  555TIP3    H125860   8.721   5.353  10.683  0.3221 -0.5221  0.8383
  555TIP3    H225861   8.814   5.236  10.657  1.0313  0.5226 -1.5620
  556TIP3   OH225862   8.830   3.968  10.970 -0.0336 -0.2252 -0.2896
  556TIP3    H125863   8.753   3.930  11.013  0.8880 -0.3476  1.3266
  556TIP3    H225864   8.796   4.043  10.922 -0.8101  1.8456  3.1068
  557TIP3   OH225865   4.831   6.717  10.609 -0.6162  0.4299  0.1509
  557TIP3    H125866   4.845   6.811  10.613 -1.2471  0.5100  0.6352
  557TIP3    H225867   4.753   6.702  10.662 -0.3504 -0.4021  0.3244
  558TIP3   OH225868   0.552   4.005  10.318  0.5670  0.5406  0.1267
  558TIP3    H125869   0.471   3.998  10.266 -0.1603 -0.5436  1.3502
  558TIP3    H225870   0.524   4.046  10.400  1.8418  2.9600 -0.5705
  559TIP3   OH225871   8.416   2.888  11.056 -0.3736  0.0483  0.2681
  559TIP3    H125872   8.322   2.890  11.072 -0.5303  0.9615 -0.6501
  559TIP3    H225873   8.456   2.884  11.143 -1.2182  1.9108  0.7778
  560TIP3   OH225874   0.423   8.584   9.480 -0.3233 -0.0504  0.5783
  560TIP3    H125875   0.334   8.549   9.478 -0.6545  0.8074 -1.0787
  560TIP3    H225876   0.477   8.515   9.440 -0.5980  0.2787 -0.3973
  561TIP3   OH225877   6.047   2.015   9.695 -0.0845 -0.8945  0.1584
  561TIP3    H125878   5.966   2.005   9.644  0.8344  0.2018 -1.6238
  561TIP3    H225879   6.108   2.058   9.635  1.9017 -1.8452  1.3861
  562TIP3   OH225880   6.228   5.969   9.896 -0.5579  0.1136 -0.0712
  562TIP3    H125881   6.269   6.002   9.816  0.5739  2.7135  1.4308
  562TIP3    H225882   6.298   5.925   9.944 -1.2904 -1.6786 -0.5543
  563TIP3   OH225883   1.762   5.351   9.648 -0.4945 -0.5931  0.0792
  563TIP3    H125884   1.856   5.340   9.664 -0.6090 -0.0835  1.1899
  563TIP3    H225885   1.721   5.280   9.698 -0.8861  1.2975  2.6515
  564TIP3   OH225886   2.553   6.234  11.135 -0.3836  0.0729 -0.2939
  564TIP3    H125887   2.534   6.236  11.229 -2.2160  0.6470 -0.6322
  564TIP3    H225888   2.632   6.182  11.128 -0.0047  0.3008  1.6035
  565TIP3   OH225889   6.573   8.077   9.605 -0.6430  0.1087  0.1343
  565TIP3    H125890   6.496   8.130   9.623 -1.0936 -0.8841  1.2111
  565TIP3    H225891   6.546   7.987   9.623  0.9804 -0.1854  1.3805
  566TIP3   OH225892   5.951   4.484  11.238  0.0472 -0.4445  0.4771
  566TIP3    H125893   6.020   4.469  11.174 -0.8732  0.3489 -0.7391
  566TIP3    H225894   5.996   4.528  11.311  0.9555 -0.5850  0.0179
  567TIP3   OH225895   3.109   1.114  10.843  0.4470  0.1379  0.0988
  567TIP3    H125896   3.181   1.154  10.892 -0.6247  1.0411  1.0025
  567TIP3    H225897   3.096   1.029  10.887  2.1152 -0.8792 -1.2351
  568TIP3   OH225898   4.290   1.734  10.733  0.3380  0.7908 -0.9568
  568TIP3    H125899   4.230   1.663  10.758  0.5062  0.5578 -1.2212
  568TIP3    H225900   4.342   1.750  10.812  0.1363  0.7862 -0.8215
  569TIP3   OH225901   5.632   5.051  10.525 -0.3782  0.1525  0.0556
  569TIP3    H125902   5.548   5.013  10.549  0.7858 -1.7911  1.4139
  569TIP3    H225903   5.678   5.062  10.608  0.5120  1.6901 -0.6072
  570TIP3   OH225904   8.461   7.558   9.147  0.1263  0.8764 -0.0056
  570TIP3    H125905   8.448   7.473   9.191 -0.0066  1.1781  0.5437
  570TIP3    H225906   8.383   7.567   9.091  1.2417 -0.4489 -1.9075
  571TIP3   OH225907   8.749   8.322  11.205  0.5301  0.8838 -0.4815
  571TIP3    H125908   8.839   8.325  11.174  0.4274  1.0800 -0.7755
  571TIP3    H225909   8.753   8.355  11.295  0.8705  0.0480 -0.1877
  572TIP3   OH225910   6.473   3.424  10.330  0.9097  0.0138 -0.0806
  572TIP3    H125911   6.465   3.344  10.278  0.7318 -0.8067  1.1675
  572TIP3    H225912   6.535   3.402  10.399  2.4199  1.5896 -0.8448
  573TIP3   OH225913   5.624   5.857  10.894 -0.4515 -0.1646  0.2539
  573TIP3    H125914   5.547   5.882  10.843 -0.7147 -1.7132 -0.1809
  573TIP3    H225915   5.613   5.763  10.908  1.9208 -0.6663 -0.7859
  574TIP3   OH225916   0.988   4.318   9.762 -0.0682 -0.0574 -0.1885
  574TIP3    H125917   1.060   4.378   9.784 -0.7057  0.0995  1.6681
  574TIP3    H225918   1.027   4.231   9.768 -0.0342  0.0222  0.9288
  575TIP3   OH225919   3.798   0.272  11.108  0.0962 -0.0846 -0.1349
  575TIP3    H125920   3.766   0.191  11.069  1.9223 -1.7316  1.5632
  575TIP3    H225921   3.869   0.300  11.051 -0.4645  0.2932 -0.6621
  576TIP3   OH225922   1.699   2.376  10.521 -0.0910  0.0485  0.0720
  576TIP3    H125923   1.619   2.428  10.528  1.2806  2.0232  2.9530
  576TIP3    H225924   1.668   2.287  10.504 -2.8721  0.7737  0.8802
  577TIP3   OH225925   3.744   2.365  10.538  0.1606 -0.2518  0.6210
  577TIP3    H125926   3.660   2.404  10.512 -0.0390 -1.5254 -0.7385
  577TIP3    H225927   3.808   2.434  10.522 -0.6860  1.1863  2.7997
  578TIP3   OH225928   1.317   5.063  10.250  0.0579 -0.3066  0.0726
  578TIP3    H125929   1.332   5.139  10.194  1.6762  0.1010  1.0136
  578TIP3    H225930   1.267   5.098  10.324  0.6829 -0.1677  0.4375
  579TIP3   OH225931   2.070   4.053  11.287  0.4898  0.2794 -1.1626
  579TIP3    H125932   2.027   4.018  11.209  0.7927  0.4365 -1.4035
  579TIP3    H225933   2.010   4.033  11.359  1.2414 -1.9660 -1.0661
  580TIP3   OH225934   1.831   2.033  10.545 -0.2235  0.6507  0.4219
  580TIP3    H125935   1.901   1.981  10.583 -1.2313 -0.0973  1.3290
  580TIP3    H225936   1.840   2.022  10.451  0.7089  0.3644  0.5373
  581TIP3   OH225937   5.726   5.375  10.792 -0.0813  0.1412 -0.1757
  581TIP3    H125938   5.699   5.432  10.721 -0.1800  0.1957 -0.0934
  581TIP3    H225939   5.792   5.317  10.753 -0.1179  0.1872 -0.3036
  582TIP3   OH225940   0.088   6.823  10.224 -0.1883  0.3568  0.3790
  582TIP3    H125941  -0.005   6.832  10.204 -0.1548  0.3011  0.1867
  582TIP3    H225942   0.127   6.904  10.191 -0.2588  0.6547  1.0278
  583TIP3   OH225943   4.037   7.782   9.880 -0.0777 -0.5809 -0.3066
  583TIP3    H125944   3.952   7.739   9.887  0.8147 -2.2807  0.8710
  583TIP3    H225945   4.049   7.826   9.965 -0.2140  0.5767 -0.8590
  584TIP3   OH225946   6.016   9.117  10.892  0.3843  0.3039  0.4365
  584TIP3    H125947   5.955   9.043  10.899  0.7789 -0.2772 -1.5287
  584TIP3    H225948   6.092   9.091  10.944 -0.3744  0.3343  1.5990
  585TIP3   OH225949   8.616   6.017  10.605 -0.1962 -0.5245  0.0424
  585TIP3    H125950   8.619   6.022  10.510 -2.7078  0.9645 -0.0462
  585TIP3    H225951   8.667   6.092  10.635 -0.1012 -0.5076 -0.1615
  586TIP3   OH225952   6.462   0.850   9.685  0.1791 -0.1275 -0.4652
  586TIP3    H125953   6.405   0.855   9.609  0.3113 -2.1350 -0.7646
  586TIP3    H225954   6.486   0.757   9.690  3.7320  0.6258 -0.6247
  587TIP3   OH225955   2.095   3.053  10.321  0.1927 -0.6039 -0.7363
  587TIP3    H125956   2.021   3.025  10.375 -1.9929  2.5839 -1.7613
  587TIP3    H225957   2.130   3.130  10.366 -1.8511  2.3069 -3.6085
  588TIP3   OH225958   8.709   3.454  10.546 -0.2843  0.2670  0.3982
  588TIP3    H125959   8.619   3.452  10.578 -0.3994  1.4974  0.1846
  588TIP3    H225960   8.738   3.543  10.562  0.5011  0.2061 -0.6173
  589TIP3   OH225961   2.177   1.583  10.021 -0.3996  0.4516 -0.5632
  589TIP3    H125962   2.196   1.526  10.095  1.3919 -1.2315 -2.2011
  589TIP3    H225963   2.094   1.549   9.986 -0.1277 -0.1964 -0.6074
  590TIP3   OH225964   4.110   1.554  10.842  0.7953  0.0440 -0.4936
  590TIP3    H125965   4.168   1.497  10.792 -0.1134  0.6552 -2.3256
  590TIP3    H225966   4.024   1.514  10.834  0.4340  0.7850 -0.4105
  591TIP3   OH225967   0.368   1.684  10.847  0.0128  0.4125  0.1811
  591TIP3    H125968   0.362   1.720  10.758 -0.2800  0.2456  0.1349
  591TIP3    H225969   0.323   1.749  10.902 -0.0759  0.3654  0.1648
  592TIP3   OH225970   6.125   4.679   9.857  0.6778 -0.1396  0.1372
  592TIP3    H125971   6.149   4.762   9.815  1.3009 -0.5091 -0.2514
  592TIP3    H225972   6.165   4.684   9.944 -0.1500  0.3923  0.5038
  593TIP3   OH225973   0.794   7.819  10.294  0.7031 -0.7731  0.4724
  593TIP3    H125974   0.854   7.744  10.288  1.4593 -0.1409 -0.1332
  593TIP3    H225975   0.714   7.789  10.251  1.1819 -1.0726 -0.2391
  594TIP3   OH225976   7.117   5.383  10.187 -0.3291  0.0258  0.4866
  594TIP3    H125977   7.157   5.362  10.102 -0.6534  1.4476 -0.0441
  594TIP3    H225978   7.155   5.468  10.210 -0.7750 -0.0276  1.4386
  595TIP3   OH225979   3.822   2.423  10.243 -0.3816  0.6825  0.1601
  595TIP3    H125980   3.740   2.466  10.268  0.0737  0.2701  2.6371
  595TIP3    H225981   3.799   2.331  10.232 -0.5793  0.8617 -1.0754
  596TIP3   OH225982   1.613   1.217  10.928 -0.1715 -0.3161  0.1482
  596TIP3    H125983   1.569   1.198  10.845 -0.3599  1.5690 -0.2393
  596TIP3    H225984   1.553   1.276  10.974  0.9527  0.5381  0.5793
  597TIP3   OH225985   7.225   7.533  10.571 -0.1507 -0.2496  1.4671
  597TIP3    H125986   7.241   7.584  10.650 -2.8162  2.8436  0.2224
  597TIP3    H225987   7.138   7.561  10.541 -0.2955 -3.0471 -1.3089
  598TIP3   OH225988   5.265   5.569  10.291 -0.3294  0.2694  0.0169
  598TIP3    H125989   5.251   5.531  10.205 -0.7123 -0.8573  0.5597
  598TIP3    H225990   5.228   5.506  10.352  1.2772  0.3064  1.1040
  599TIP3   OH225991   1.030   0.807   9.085 -0.3226  0.0814 -0.3943
  599TIP3    H125992   1.125   0.814   9.076 -0.3843 -0.8969 -2.2553
  599TIP3    H225993   0.997   0.892   9.057 -0.0775 -0.3459 -2.0939
  600TIP3   OH225994   0.539   5.677  10.536  0.2754  0.1997 -1.0872
  600TIP3    H125995   0.552   5.627  10.455  1.5872 -2.2955  0.5311
  600TIP3    H225996   0.600   5.751  10.528 -0.4918  0.6956 -2.8527
  601TIP3   OH225997   1.669   2.959  10.655 -0.1057 -0.6933  0.0413
  601TIP3    H125998   1.615   3.032  10.625  0.8054  0.0539  0.2026
  601TIP3    H225999   1.629   2.933  10.738  1.4016  1.7320  1.6537
  602TIP3   OH226000   6.317   3.663  11.286 -0.3174 -0.2446 -0.1872
  602TIP3    H126001   6.245   3.600  11.273  0.6037 -1.5717  0.9273
  602TIP3    H226002   6.366   3.628  11.360  0.8198  1.2771 -0.1925
  603TIP3   OH226003   5.769   6.106  11.631 -0.1049  0.0241 -0.3022
  603TIP3    H126004   5.683   6.103  11.674 -0.0862  1.9276 -0.0188
  603TIP3    H226005   5.800   6.196  11.647  3.0619 -1.2362  1.8176
  604TIP3   OH226006   7.064   6.534   9.408  0.0243  0.0687  0.0118
  604TIP3    H126007   7.051   6.494   9.322  1.3943 -0.2838 -0.0559
  604TIP3    H226008   6.977   6.537   9.447 -0.2560 -2.2035 -0.3324
  605TIP3   OH226009   0.152   0.768   9.528 -0.2491  0.6032 -0.4635
  605TIP3    H126010   0.169   0.678   9.556  0.0546  1.3339  1.8819
  605TIP3    H226011   0.231   0.817   9.554 -1.5697  2.0659  1.0139
  606TIP3   OH226012   8.127   2.907  10.425 -0.6687  0.3671  0.0330
  606TIP3    H126013   8.197   2.973  10.431  0.0860 -0.3237 -0.8865
  606TIP3    H226014   8.081   2.927  10.344  0.2968 -0.8934 -0.8741
  607TIP3   OH226015   4.880   1.263   9.052  0.1524 -0.0475 -0.2793
  607TIP3    H126016   4.928   1.247   9.133 -0.6416 -3.4356 -0.3225
  607TIP3    H226017   4.926   1.336   9.011  3.8165 -1.5573  0.7606
  608TIP3   OH226018   7.031   7.221  11.054  0.3744 -0.2062  0.1017
  608TIP3    H126019   7.084   7.257  10.983 -0.7987  0.9125 -0.2280
  608TIP3    H226020   7.028   7.127  11.036  0.4851 -0.0044 -1.0694
  609TIP3   OH226021   4.871   6.162  10.587 -0.7476 -0.8536  0.1698
  609TIP3    H126022   4.952   6.213  10.586 -0.1792 -1.6770 -2.0472
  609TIP3    H226023   4.897   6.078  10.624 -1.0486 -0.4946  1.2244
  610TIP3   OH226024   1.416   8.805  10.853 -0.0430  0.3653 -0.4380
  610TIP3    H126025   1.375   8.759  10.926  1.1476 -0.6515 -0.3608
  610TIP3    H226026   1.380   8.763  10.775  1.7323 -1.4701 -0.3676
  611TIP3   OH226027   0.945   6.787  10.047 -0.3892  0.7964  0.3904
  611TIP3    H126028   0.889   6.859  10.077  0.8903  1.9616  0.0896
  611TIP3    H226029   0.957   6.732  10.125 -1.2174  1.0103  0.6793
  612TIP3   OH226030   3.268   2.827   9.031  0.2698 -0.4592  0.1360
  612TIP3    H126031   3.311   2.883   9.095  0.4107  1.0273 -1.1920
  612TIP3    H226032   3.297   2.861   8.946 -1.0943 -1.3896 -0.7420
  613TIP3   OH226033   5.128   0.805   9.863 -0.3195 -1.0023 -0.6694
  613TIP3    H126034   5.130   0.755   9.782  0.6139  0.0227 -1.3211
  613TIP3    H226035   5.206   0.777   9.910  1.0747  0.8450 -1.7313
  614TIP3   OH226036   3.280   1.784  10.668 -0.2889 -0.1884 -0.6184
  614TIP3    H126037   3.323   1.719  10.723  0.6125 -0.0658 -1.1539
  614TIP3    H226038   3.188   1.783  10.696  0.2588  0.3926  1.4085
  615TIP3   OH226039   7.591   4.931  10.948  0.5118 -0.2107  0.2660
  615TIP3    H126040   7.530   5.002  10.927  1.9647  1.1084  0.2756
  615TIP3    H226041   7.542   4.873  11.006 -0.5284  1.1180  0.7694
  616TIP3   OH226042   5.139   8.422  11.463  0.5012 -0.1999 -0.2953
  616TIP3    H126043   5.128   8.381  11.549  0.5317  1.7095  0.6653
  616TIP3    H226044   5.057   8.469  11.449  1.2250  1.0416 -0.4315
  617TIP3   OH226045   7.256   6.951   9.579 -0.1393  0.4399 -0.1437
  617TIP3    H126046   7.273   6.974   9.488  1.3165  0.5197  0.1227
  617TIP3    H226047   7.315   7.007   9.630  0.1858 -0.6607  0.7510
  618TIP3   OH226048   8.686   7.524   9.689 -0.0080  0.2856 -0.0317
  618TIP3    H126049   8.702   7.476   9.607  0.7230  1.2874 -0.5025
  618TIP3    H226050   8.745   7.482   9.752  2.0849  1.7153 -0.9093
  619TIP3   OH226051   5.541   1.106  11.082 -0.1156  0.0548 -0.6021
  619TIP3    H126052   5.467   1.080  11.136  0.4062 -0.4135 -0.1058
  619TIP3    H226053   5.559   1.029  11.028  1.5849 -0.7657  1.0374
  620TIP3   OH226054   1.538   6.186   9.889  0.1480 -0.1199  0.3040
  620TIP3    H126055   1.525   6.116   9.825  0.5402  0.6968 -0.7017
  620TIP3    H226056   1.576   6.258   9.838 -1.0298  1.1304  1.1376
  621TIP3   OH226057   0.465   7.079   9.997 -0.4800 -0.1145  0.1733
  621TIP3    H126058   0.432   7.038  10.078  0.2817  1.4737  1.3451
  621TIP3    H226059   0.485   7.005   9.939 -2.6870 -1.2518  0.7418
  622TIP3   OH226060   7.894   0.273   9.143  0.2020  0.7021 -0.5707
  622TIP3    H126061   7.980   0.252   9.107  0.1873 -0.5491  0.0432
  622TIP3    H226062   7.913   0.320   9.224  0.3923 -0.8207  0.3208
  623TIP3   OH226063   4.673   8.158   9.845  0.7253 -0.8276 -0.0473
  623TIP3    H126064   4.675   8.196   9.757  0.9368 -1.3138 -0.2582
  623TIP3    H226065   4.617   8.081   9.836 -2.9731  1.4378  1.2165
  624TIP3   OH226066   7.105   1.160  11.088 -0.0227 -0.4039 -0.4757
  624TIP3    H126067   7.023   1.127  11.051 -0.7059  0.1010  0.5446
  624TIP3    H226068   7.142   1.085  11.135  0.7321 -0.9805 -1.9224
  625TIP3   OH226069   2.010   3.775   9.720 -0.0438  0.4246 -0.5718
  625TIP3    H126070   2.051   3.708   9.775 -1.2044 -0.3607 -0.6098
  625TIP3    H226071   2.049   3.763   9.634  0.4228  0.4175 -0.3632
  626TIP3   OH226072   6.639   4.496  11.097 -0.1224 -0.8978 -0.5398
  626TIP3    H126073   6.620   4.565  11.033  0.6886  0.7547  0.9089
  626TIP3    H226074   6.730   4.511  11.121  0.5744 -3.4755 -1.2622
  627TIP3   OH226075   1.140   5.020   9.893  0.0485  0.2853 -0.4468
  627TIP3    H126076   1.229   5.050   9.874  0.3487 -0.7168 -0.6920
  627TIP3    H226077   1.145   4.925   9.889 -0.3564  0.0566  2.6613
  628TIP3   OH226078   6.593   5.901  11.040  0.5825  0.0720  0.2061
  628TIP3    H126079   6.567   5.991  11.057 -0.3287 -0.4699  1.9342
  628TIP3    H226080   6.671   5.888  11.095  0.6567 -0.2181  0.0334
  629TIP3   OH226081   5.635   2.873  11.266  0.1869  0.0974  0.1020
  629TIP3    H126082   5.606   2.835  11.183  0.8925 -1.1657  0.4170
  629TIP3    H226083   5.610   2.965  11.259 -0.7469 -0.2097 -1.0601
  630TIP3   OH226084   4.969   4.413  11.279 -0.0419 -0.3689  0.1101
  630TIP3    H126085   5.045   4.470  11.271 -0.4778  0.3727  1.0930
  630TIP3    H226086   5.004   4.332  11.317  0.3252 -0.1900  0.1533
  631TIP3   OH226087   2.914   0.592   9.535 -0.1220  0.3173 -0.0385
  631TIP3    H126088   2.969   0.607   9.459  1.0635 -0.5217  0.6292
  631TIP3    H226089   2.879   0.504   9.523 -0.4895  0.4484  0.0509
  632TIP3   OH226090   1.494   1.443  10.251  0.5914  0.1819  0.3343
  632TIP3    H126091   1.500   1.349  10.267  1.0583  0.1212 -0.1631
  632TIP3    H226092   1.575   1.478  10.288 -0.0324  0.5241  1.4067
  633TIP3   OH226093   6.739   7.562   9.285  0.1108  0.1000  0.1032
  633TIP3    H126094   6.713   7.477   9.248 -1.2517 -0.3083  1.8587
  633TIP3    H226095   6.697   7.565   9.371 -1.6605  3.4291 -0.6849
  634TIP3   OH226096   1.604   3.996   9.614 -0.0393  0.0193  0.3841
  634TIP3    H126097   1.690   4.034   9.633 -1.0162  1.4530  2.2834
  634TIP3    H226098   1.584   4.025   9.525 -0.1026  2.9072  1.2288
  635TIP3   OH226099   3.431   2.233  10.442 -0.3926 -0.6937 -0.0720
  635TIP3    H126100   3.409   2.260  10.353 -1.1530 -2.3084 -0.4198
  635TIP3    H226101   3.389   2.147  10.452 -0.0247 -0.7114  1.7223
  636TIP3   OH226102   7.260   2.169   9.318 -0.4027  0.4201  0.0848
  636TIP3    H126103   7.212   2.246   9.346 -0.3519  0.3256  0.4354
  636TIP3    H226104   7.197   2.119   9.265 -0.2334  1.0247 -0.7069
  637TIP3   OH226105   4.126   2.751  11.330 -0.2985  0.5875  0.0983
  637TIP3    H126106   4.069   2.695  11.277  1.7245 -1.6579  0.1261
  637TIP3    H226107   4.197   2.693  11.358  1.7226  3.1069  0.5297
  638TIP3   OH226108   0.395   3.715  10.555 -0.3709 -0.2451 -0.2677
  638TIP3    H126109   0.387   3.764  10.636  2.0552  0.0188 -0.0908
  638TIP3    H226110   0.318   3.738  10.504 -1.7639 -0.1378  1.7860
  639TIP3   OH226111   5.798   6.412  11.561 -0.1447  0.2995  0.0536
  639TIP3    H126112   5.782   6.410  11.466 -2.1164 -2.6559  0.3197
  639TIP3    H226113   5.731   6.470  11.595  0.3297  1.0753 -0.3148
  640TIP3   OH226114   4.275   2.472   9.484 -0.0432 -0.5351  0.3144
  640TIP3    H126115   4.222   2.549   9.462 -0.3841 -0.6827  0.6307
  640TIP3    H226116   4.339   2.467   9.412 -1.1030 -0.9671 -0.6298
  641TIP3   OH226117   4.538   6.132  10.905  0.1249 -0.1887  0.2209
  641TIP3    H126118   4.468   6.097  10.960  1.3957 -1.0858  1.3435
  641TIP3    H226119   4.565   6.213  10.949  1.3854 -1.0925  1.1747
  642TIP3   OH226120   8.912   6.390   9.923 -0.3107  0.2637  0.7451
  642TIP3    H126121   8.982   6.408   9.985  0.2604 -0.7771  0.4179
  642TIP3    H226122   8.876   6.305   9.951 -0.6513  0.2222  0.1954
  643TIP3   OH226123   2.706   7.510  10.596  0.5998 -0.2221  0.0335
  643TIP3    H126124   2.724   7.583  10.655 -0.1261  1.4624 -1.7025
  643TIP3    H226125   2.773   7.517  10.528  1.1373 -1.8297  0.3588
  644TIP3   OH226126   1.108   8.260  10.701  0.3580 -0.0301  0.2224
  644TIP3    H126127   1.097   8.166  10.710 -0.0974  0.1681  2.1622
  644TIP3    H226128   1.203   8.274  10.710  0.4260 -0.2796 -0.0662
  645TIP3   OH226129   5.936   6.645   9.819 -0.2718  0.0091 -0.0494
  645TIP3    H126130   5.851   6.671   9.783  0.2463 -0.6171 -1.8011
  645TIP3    H226131   5.927   6.552   9.839  0.5405 -0.5234 -1.9988
  646TIP3   OH226132   4.296   8.663   9.672  0.0463  0.0587  0.1475
  646TIP3    H126133   4.326   8.583   9.628 -0.6425 -1.1795  1.8251
  646TIP3    H226134   4.276   8.723   9.600  2.4227 -0.5354 -1.1380
  647TIP3   OH226135   4.591   0.567  10.292  0.1240  0.1217 -0.4011
  647TIP3    H126136   4.629   0.484  10.262  1.7771  0.9542 -0.7018
  647TIP3    H226137   4.534   0.595  10.220  0.4443 -0.1921 -0.7805
  648TIP3   OH226138   5.011   0.373   9.265 -0.8567 -0.0824  0.8426
  648TIP3    H126139   4.944   0.309   9.239 -0.5343 -0.1859  0.2566
  648TIP3    H226140   5.090   0.346   9.219  0.1123 -1.0462  2.9515
  649TIP3   OH226141   0.345   4.777  11.048  0.3716  0.0049 -0.0989
  649TIP3    H126142   0.399   4.843  11.006 -0.0064  0.3501 -0.0437
  649TIP3    H226143   0.301   4.732  10.976  0.4978 -0.0762 -0.1263
  650TIP3   OH226144   2.240   6.795  10.244  0.2561  0.3195 -0.3200
  650TIP3    H126145   2.241   6.750  10.160 -0.9962 -0.2155 -0.0737
  650TIP3    H226146   2.237   6.725  10.309  1.4426  0.7202  0.1999
  651TIP3   OH226147   2.482   8.315  10.288  0.9842 -0.2443 -0.0988
  651TIP3    H126148   2.535   8.237  10.305  2.1406  0.9962  2.3505
  651TIP3    H226149   2.500   8.374  10.361 -1.6061  1.4326 -0.6588
  652TIP3   OH226150   0.397   4.641  10.770 -0.1983  0.2667  0.1169
  652TIP3    H126151   0.453   4.710  10.737  0.4582 -0.2878  0.0452
  652TIP3    H226152   0.308   4.671  10.751  0.1081  0.7140 -0.6528
  653TIP3   OH226153   6.089   8.539  10.163 -0.3970  0.2288  0.6455
  653TIP3    H126154   6.136   8.609  10.207 -1.3416  0.6170  1.0563
  653TIP3    H226155   6.096   8.560  10.070 -1.0171  1.1038  0.7841
  654TIP3   OH226156   8.336   5.452   9.535 -0.0676 -0.0015 -0.3706
  654TIP3    H126157   8.371   5.500   9.610  0.4368 -0.6709 -0.1780
  654TIP3    H226158   8.355   5.360   9.553 -1.0402 -0.2937 -0.7358
  655TIP3   OH226159   0.442   7.544   9.759 -0.5510 -0.3033 -0.0792
  655TIP3    H126160   0.349   7.565   9.762 -0.5052 -0.1402  0.2442
  655TIP3    H226161   0.445   7.448   9.751 -0.7496 -0.2528 -0.7977
  656TIP3   OH226162   1.185   2.534  10.259  0.2908  0.2143  0.2236
  656TIP3    H126163   1.260   2.589  10.235  0.4402 -0.2540 -0.4103
  656TIP3    H226164   1.111   2.573  10.213 -0.0372  1.1853  1.5225
  657TIP3   OH226165   3.383   6.842  10.997  0.0903  0.2112 -0.6917
  657TIP3    H126166   3.445   6.827  10.926  1.0232 -0.2798  0.1974
  657TIP3    H226167   3.334   6.760  11.004  2.3805 -1.1193  1.4617
  658TIP3   OH226168   5.427   1.247  10.515  0.0759  0.4389 -0.3452
  658TIP3    H126169   5.369   1.265  10.588 -1.8293  0.0642 -1.6835
  658TIP3    H226170   5.369   1.219  10.444  1.7427  1.4210 -2.2272
  659TIP3   OH226171   1.475   1.279   9.725 -0.5278 -0.2670  0.4848
  659TIP3    H126172   1.423   1.341   9.674  1.4952 -0.5584 -2.1483
  659TIP3    H226173   1.423   1.263   9.803 -3.4776  0.8892 -1.0706
  660TIP3   OH226174   7.784   8.944   9.738  0.1221  0.4403 -0.9790
  660TIP3    H126175   7.823   9.010   9.680  1.4624  0.2823 -0.3102
  660TIP3    H226176   7.739   8.883   9.678 -0.2726  1.3924 -1.6756
  661TIP3   OH226177   4.259   8.883   9.861  1.0167  0.0424 -0.2417
  661TIP3    H126178   4.276   8.815   9.796  0.3913  0.7803 -1.2117
  661TIP3    H226179   4.234   8.960   9.809  1.8532  1.0605  0.8198
  662TIP3   OH226180   1.441   0.428   9.237  0.3720  0.2436  0.3415
  662TIP3    H126181   1.437   0.519   9.206 -0.1786 -0.2111 -0.9840
  662TIP3    H226182   1.397   0.431   9.322  0.7822  1.3059  0.5350
  663TIP3   OH226183   9.008   1.721   9.063  0.5123  0.4882 -0.1039
  663TIP3    H126184   9.034   1.808   9.035 -0.9338  0.8252 -0.4624
  663TIP3    H226185   9.034   1.663   8.991  0.0373  0.8473 -0.5640
  664TIP3   OH226186   7.467   6.204   9.222 -0.1911 -0.2698 -0.2037
  664TIP3    H126187   7.554   6.244   9.225 -0.2080 -0.3002  0.8889
  664TIP3    H226188   7.421   6.240   9.297 -1.2892  0.0836 -1.0191
  665TIP3   OH226189   2.152   6.334  10.639  0.4490 -0.2454 -0.2748
  665TIP3    H126190   2.179   6.425  10.648 -1.8051  0.9180 -3.2549
  665TIP3    H226191   2.106   6.315  10.720  1.7087  0.9468  0.7727
  666TIP3   OH226192   5.133   8.680  10.491  0.6918  0.5653  0.4091
  666TIP3    H126193   5.192   8.720  10.555 -0.3580  3.4656 -0.2851
  666TIP3    H226194   5.101   8.601  10.534  5.4577 -1.6596  0.5805
  667TIP3   OH226195   2.713   6.443  10.938 -0.5102 -0.1446  0.5797
  667TIP3    H126196   2.791   6.399  10.904  0.3472  1.9642 -0.3662
  667TIP3    H226197   2.680   6.384  11.005  0.9338 -1.8856 -0.1492
  668TIP3   OH226198   2.927   5.254   9.482  0.2215  0.2437 -0.3013
  668TIP3    H126199   2.865   5.262   9.411  1.0357  0.4017 -1.0150
  668TIP3    H226200   2.896   5.315   9.549 -1.0265 -0.5369 -0.1406
  669TIP3   OH226201   4.552   7.934  10.140 -0.3500 -0.6922  0.1265
  669TIP3    H126202   4.486   7.899  10.200 -1.1671 -1.7226 -1.3027
  669TIP3    H226203   4.527   8.025  10.127  0.1449 -0.3088  1.7309
  670TIP3   OH226204   7.024   1.510   9.753 -0.2058 -0.4355 -0.8001
  670TIP3    H126205   7.078   1.452   9.699  0.2636  0.2438 -1.0684
  670TIP3    H226206   6.992   1.453   9.824 -0.4940 -1.2292 -1.5552
  671TIP3   OH226207   8.646   2.139   9.622  0.2688 -0.1257  0.1220
  671TIP3    H126208   8.739   2.119   9.629 -0.1706 -2.3695  0.3223
  671TIP3    H226209   8.628   2.137   9.528  0.2511 -0.6687  0.1329
  672TIP3   OH226210   6.859   8.356  11.072 -1.1099  0.1132 -0.2124
  672TIP3    H126211   6.850   8.386  11.162 -0.4820 -0.7657  0.1561
  672TIP3    H226212   6.825   8.267  11.073 -0.8855  0.0169 -0.7910
  673TIP3   OH226213   6.747   7.567  11.367 -0.1807 -0.0124  0.8247
  673TIP3    H126214   6.824   7.536  11.318 -0.5940  1.9952 -1.2558
  673TIP3    H226215   6.684   7.495  11.360  0.6661 -0.7401  0.5190
  674TIP3   OH226216   6.852   6.717   9.721  0.1003 -0.3865 -0.0208
  674TIP3    H126217   6.914   6.790   9.727 -0.4919  0.0707  0.8140
  674TIP3    H226218   6.770   6.753   9.756 -1.0719 -0.5034 -2.4217
  675TIP3   OH226219   2.870   1.639  10.065  0.2735 -0.0017  0.9313
  675TIP3    H126220   2.914   1.706  10.118  0.7719 -0.9541  1.7574
  675TIP3    H226221   2.780   1.638  10.098 -0.1740  1.3436 -0.1678
  676TIP3   OH226222   0.377   7.452  10.266 -0.5667  0.0239  0.3344
  676TIP3    H126223   0.292   7.487  10.292  0.0905  1.1387  1.0298
  676TIP3    H226224   0.376   7.361  10.296 -1.3910  0.1122  0.5909
  677TIP3   OH226225   0.171   0.437   9.248  0.0832  0.2070 -0.6365
  677TIP3    H126226   0.182   0.342   9.257  0.4026 -0.0676 -3.1622
  677TIP3    H226227   0.083   0.447   9.210 -1.0637  1.1758  2.0062
  678TIP3   OH226228   6.812   5.986  11.193  0.3040  0.1345  0.1045
  678TIP3    H126229   6.888   5.980  11.135  0.1153  0.7622 -0.2148
  678TIP3    H226230   6.822   6.069  11.238 -0.5902  0.6026 -0.5228
  679TIP3   OH226231   0.092   3.969  10.140 -0.4210 -0.2021  0.0441
  679TIP3    H126232   0.125   3.983  10.052 -0.5658 -0.4152 -0.0448
  679TIP3    H226233   0.067   4.057  10.171 -2.2980 -0.3548 -0.8939
  680TIP3   OH226234   4.272   4.350  10.013 -0.2211  0.5731  0.4670
  680TIP3    H126235   4.363   4.377  10.001 -0.1468  1.0397  1.8690
  680TIP3    H226236   4.272   4.257   9.989  0.4396  0.7506 -0.2998
  681TIP3   OH226237   6.872   5.034   9.596  0.5780  0.2873 -0.2361
  681TIP3    H126238   6.865   4.968   9.527  0.0898 -1.9523  1.8036
  681TIP3    H226239   6.807   5.100   9.574 -1.0276 -1.4354 -0.8816
  682TIP3   OH226240   8.574   4.014  10.295  0.0460  0.2165 -0.5240
  682TIP3    H126241   8.520   3.969  10.230 -0.6600 -0.4775  0.5140
  682TIP3    H226242   8.542   4.104  10.296 -0.2419  0.1177 -0.8181
  683TIP3   OH226243   8.036   8.869  10.422 -0.2089  0.6657  0.2706
  683TIP3    H126244   8.116   8.860  10.370 -0.1745  0.8739  0.2838
  683TIP3    H226245   8.059   8.933  10.490  0.4342 -1.1739  1.9003
  684TIP3   OH226246   8.595   6.412  10.409  0.3485 -0.0743  0.3376
  684TIP3    H126247   8.675   6.365  10.433 -0.0962 -1.0080  0.0358
  684TIP3    H226248   8.612   6.503  10.434  0.4093 -0.7314  2.9879
  685TIP3   OH226249   5.862   3.299  10.105 -0.2255  0.2147  0.4611
  685TIP3    H126250   5.864   3.296  10.009  0.7703  0.9646  0.4363
  685TIP3    H226251   5.840   3.210  10.132 -1.9278  0.3026 -0.4763
  686TIP3   OH226252   0.554   2.342  10.216  0.5340 -0.0623  0.3392
  686TIP3    H126253   0.475   2.373  10.261 -0.3941 -1.4153 -0.3097
  686TIP3    H226254   0.536   2.353  10.123  1.9166  1.4494  0.2042
  687TIP3   OH226255   5.639   3.358  11.158  0.6578  0.0805 -0.8529
  687TIP3    H126256   5.670   3.422  11.094  1.1860 -0.8360 -1.5466
  687TIP3    H226257   5.549   3.384  11.177  1.0456  1.3479 -0.6810
  688TIP3   OH226258   3.876   7.948   9.521 -0.1136 -0.0712 -0.3918
  688TIP3    H126259   3.798   7.977   9.474  0.4238  1.0756 -0.6165
  688TIP3    H226260   3.949   7.981   9.468  0.5534 -1.6424 -0.5177
  689TIP3   OH226261   3.363   4.262  11.264 -0.4289  0.3867 -0.3216
  689TIP3    H126262   3.361   4.192  11.329  0.5910  0.7389  0.1099
  689TIP3    H226263   3.295   4.239  11.201  0.5216 -1.4945 -0.7197
  690TIP3   OH226264   7.114   1.704  10.626  0.5605  0.1083  0.4324
  690TIP3    H126265   7.066   1.673  10.549  0.9554 -0.8024  0.5326
  690TIP3    H226266   7.205   1.680  10.609  0.9345  1.4389  0.4363
  691TIP3   OH226267   4.387   5.979   9.666  0.2961 -0.5605 -0.0186
  691TIP3    H126268   4.368   5.916   9.597 -2.4468 -1.5188  1.4818
  691TIP3    H226269   4.390   6.064   9.622  0.3839 -1.3383 -1.5403
  692TIP3   OH226270   7.123   6.379  10.722 -0.7211 -0.1658 -0.4148
  692TIP3    H126271   7.032   6.374  10.692 -0.0450  0.0318 -2.7328
  692TIP3    H226272   7.145   6.289  10.748 -1.4628 -0.2919 -0.2148
  693TIP3   OH226273   0.739   3.465  10.401 -0.2306  0.0395 -0.6872
  693TIP3    H126274   0.703   3.378  10.385  1.7154 -0.4438 -3.0493
  693TIP3    H226275   0.831   3.450  10.423 -0.0496  1.4680 -0.3375
  694TIP3   OH226276   8.340   8.746   9.877  0.5536  0.0730 -0.2518
  694TIP3    H126277   8.351   8.721   9.786  0.3564 -0.0499 -0.2422
  694TIP3    H226278   8.247   8.765   9.886  0.2481 -1.5833  0.3420
  695TIP3   OH226279   3.375   0.878   9.561 -0.8818  0.3090 -0.5279
  695TIP3    H126280   3.341   0.848   9.645  0.5489  0.7546  0.2557
  695TIP3    H226281   3.447   0.817   9.541  2.8493  3.5048  1.6470
  696TIP3   OH226282   4.257   9.134   9.335 -0.0715  0.1099 -0.1061
  696TIP3    H126283   4.337   9.167   9.293  1.2171 -1.2781  1.1180
  696TIP3    H226284   4.203   9.212   9.348  1.6183  1.3147  0.0978
  697TIP3   OH226285   4.205   8.594   9.359 -0.5123 -0.2443  0.3004
  697TIP3    H126286   4.184   8.675   9.312  0.8826  0.2822  0.5279
  697TIP3    H226287   4.300   8.585   9.349 -0.7345 -2.3375 -0.4785
  698TIP3   OH226288   1.012   2.815  10.514 -0.6353  0.6607 -0.2331
  698TIP3    H126289   1.023   2.720  10.523 -0.9149  0.3882 -2.2705
  698TIP3    H226290   0.927   2.833  10.555 -1.7891 -0.4182 -2.0024
  699TIP3   OH226291   6.889   1.660  11.086  0.0517  0.3619 -0.2237
  699TIP3    H126292   6.910   1.567  11.095  0.8352  0.4790 -0.7147
  699TIP3    H226293   6.800   1.662  11.052  0.7265 -0.2789 -2.1780
  700TIP3   OH226294   2.741   3.044  10.212 -0.0239  0.0850 -0.4629
  700TIP3    H126295   2.685   3.113  10.248 -0.8575 -0.3906 -0.8169
  700TIP3    H226296   2.687   3.001  10.145  0.9263 -0.0904 -1.1430
  701TIP3   OH226297   6.451   6.658  10.836 -0.1395  0.1141  0.0994
  701TIP3    H126298   6.368   6.692  10.869  0.5158  2.2829 -0.3291
  701TIP3    H226299   6.444   6.668  10.741  0.3349 -0.3592  0.0121
  702TIP3   OH226300   6.297   0.146  10.398 -0.6197  0.2451  0.0704
  702TIP3    H126301   6.286   0.240  10.412 -1.2928  0.3260 -0.9050
  702TIP3    H226302   6.355   0.118  10.468  0.0176  1.4826  0.0576
  703TIP3   OH226303   0.643   8.138  10.263 -0.4645  0.8195 -0.1623
  703TIP3    H126304   0.660   8.067  10.201 -1.8308 -0.7120  1.1096
  703TIP3    H226305   0.699   8.119  10.338 -0.5692  1.2849  0.0362
  704TIP3   OH226306   3.909   4.924  10.139  0.1760  0.4260 -0.0972
  704TIP3    H126307   3.972   4.891  10.204 -1.0003 -0.5918  0.5628
  704TIP3    H226308   3.962   4.975  10.078  1.6605 -0.4817  0.3871
  705TIP3   OH226309   6.759   1.249  10.289  0.1568  0.2738 -0.0765
  705TIP3    H126310   6.769   1.153  10.291 -0.8304  0.1382  2.4331
  705TIP3    H226311   6.844   1.282  10.319 -0.0491  0.0548  0.8026
  706TIP3   OH226312   3.557   0.641   9.988 -0.1974 -0.4673 -0.1596
  706TIP3    H126313   3.606   0.571   9.944 -0.7555 -2.0717  1.6489
  706TIP3    H226314   3.472   0.641   9.944 -0.5573 -1.6813  0.4722
  707TIP3   OH226315   1.021   4.135   9.472  0.6490 -0.4845  0.2289
  707TIP3    H126316   1.087   4.144   9.542  1.4549 -0.6914 -0.4910
  707TIP3    H226317   1.068   4.157   9.392 -0.4013  0.2247 -0.2051
  708TIP3   OH226318   4.530   2.707   9.955 -0.2219  0.1723  0.1739
  708TIP3    H126319   4.441   2.740   9.944 -0.8293 -1.1963  0.6869
  708TIP3    H226320   4.558   2.684   9.866 -1.0638 -1.0138  0.1945
  709TIP3   OH226321   3.462   7.491  10.523 -0.1197 -0.0943  0.1269
  709TIP3    H126322   3.390   7.540  10.564 -0.3060 -0.3974  0.1696
  709TIP3    H226323   3.428   7.402  10.515  0.5831 -0.4590  1.0044
  710TIP3   OH226324   4.997   8.684  10.962 -0.7340  0.3401  0.5804
  710TIP3    H126325   4.905   8.665  10.943 -0.5014 -0.0646 -0.1918
  710TIP3    H226326   5.001   8.780  10.971 -1.4589  0.2660  1.9757
  711TIP3   OH226327   7.134   2.538  10.320 -0.0229  0.2839 -0.8594
  711TIP3    H126328   7.068   2.600  10.349 -0.8533 -1.2507  0.7134
  711TIP3    H226329   7.214   2.566  10.365 -0.5709 -0.1900  0.4609
  712TIP3   OH226330   8.330   0.877   9.779 -0.2843 -0.2313  0.4587
  712TIP3    H126331   8.327   0.946   9.845 -0.3903 -0.6267  0.8782
  712TIP3    H226332   8.244   0.836   9.782  0.1924 -1.2410  1.1699
  713TIP3   OH226333   2.039   3.161  11.093  0.3977 -0.1019  0.0230
  713TIP3    H126334   1.983   3.219  11.041  0.9874 -1.8022 -2.7779
  713TIP3    H226335   2.000   3.074  11.081  2.1660 -0.9591  0.1112
  714TIP3   OH226336   5.608   6.093   9.908  0.1657  0.5493 -0.1893
  714TIP3    H126337   5.688   6.146   9.910  1.8047 -1.7172 -1.0361
  714TIP3    H226338   5.616   6.042   9.828 -2.0395  0.0425 -0.1417
  715TIP3   OH226339   9.130   8.210   9.850 -0.2412  0.0194 -0.7361
  715TIP3    H126340   9.219   8.183   9.873 -0.4099  0.6233  0.7236
  715TIP3    H226341   9.121   8.186   9.758  0.7251 -1.9115 -0.3811
  716TIP3   OH226342   2.014   3.108  10.072 -0.0654  0.1378  0.2662
  716TIP3    H126343   2.035   3.061  10.153  0.2912  1.2953  0.8820
  716TIP3    H226344   2.077   3.181  10.071  0.4421 -0.2810 -1.4539
  717TIP3   OH226345   5.948   0.156   9.688 -0.0215  0.0741  0.4624
  717TIP3    H126346   5.870   0.180   9.737 -1.5316 -1.5581 -1.0083
  717TIP3    H226347   5.984   0.081   9.735  0.9635  1.0730  1.3728
  718TIP3   OH226348   0.150   4.878  10.258  0.2316  0.8754  0.0385
  718TIP3    H126349   0.073   4.903  10.207  0.5878  2.6516  0.3202
  718TIP3    H226350   0.176   4.958  10.303  1.5551  0.0126  0.8668
  719TIP3   OH226351   5.765   7.357  10.126  0.2521 -0.0388 -0.2718
  719TIP3    H126352   5.799   7.384  10.212 -0.6486  1.0281 -0.2224
  719TIP3    H226353   5.680   7.400  10.120  0.0535 -0.5668 -1.4665
  720TIP3   OH226354   4.132   3.101  11.054 -0.1291 -0.3168  0.4890
  720TIP3    H126355   4.203   3.039  11.073  0.8753  0.8604  0.7595
  720TIP3    H226356   4.133   3.111  10.959  1.0825  0.7931  0.5905
  721TIP3   OH226357   8.942   6.366  10.270 -0.8560 -0.0024 -1.1429
  721TIP3    H126358   8.916   6.282  10.230 -3.3074  0.0842  0.0760
  721TIP3    H226359   8.937   6.350  10.364  0.0145  1.1411 -0.8926
  722TIP3   OH226360   7.495   4.696  10.804  0.0616  0.3243 -0.4656
  722TIP3    H126361   7.576   4.727  10.844  0.0553  0.5790 -0.6472
  722TIP3    H226362   7.479   4.757  10.732  0.2488 -0.3197 -1.0633
  723TIP3   OH226363   3.579   1.949  10.271  0.0805 -0.2723 -0.2034
  723TIP3    H126364   3.572   1.865  10.227 -0.7119  0.5332 -1.6913
  723TIP3    H226365   3.508   1.949  10.335  0.3476 -0.8865  0.1001
  724TIP3   OH226366   2.241   3.283  10.898 -0.0793 -0.9628  0.5265
  724TIP3    H126367   2.175   3.325  10.953 -0.0571  0.2517 -0.3300
  724TIP3    H226368   2.221   3.190  10.905 -0.3512 -0.8247  2.2148
  725TIP3   OH226369   6.462   4.256  11.126 -0.2121  0.8540  0.1068
  725TIP3    H126370   6.512   4.337  11.126 -0.8358  1.3302 -2.3926
  725TIP3    H226371   6.475   4.220  11.038 -1.3514 -0.8582  0.5924
  726TIP3   OH226372   2.344   2.532  10.855 -0.2119  0.1423 -0.3648
  726TIP3    H126373   2.250   2.553  10.851 -0.5488 -1.4277 -1.9608
  726TIP3    H226374   2.346   2.440  10.882  0.8312 -0.0455 -1.0500
  727TIP3   OH226375   5.508   0.158   9.898 -0.3142  0.2394  0.7432
  727TIP3    H126376   5.465   0.241   9.918 -0.2160  0.0387  1.8718
  727TIP3    H226377   5.463   0.125   9.819 -2.7874 -0.3276  2.2698
  728TIP3   OH226378   8.133   5.019  10.095 -0.3923 -0.2062 -0.3646
  728TIP3    H126379   8.096   5.106  10.077  0.0335 -0.1897 -1.2065
  728TIP3    H226380   8.226   5.028  10.074  0.1824 -0.1946  1.8819
  729TIP3   OH226381   5.092   0.440   9.950 -0.1861 -0.3992 -0.0700
  729TIP3    H126382   5.046   0.452  10.033 -0.8823 -2.5643 -0.0776
  729TIP3    H226383   5.023   0.447   9.884 -0.0770 -1.1866 -0.2718
  730TIP3   OH226384   0.249   2.308  11.408 -0.3548 -0.1383 -0.1881
  730TIP3    H126385   0.170   2.356  11.384 -0.5685  0.3818  1.4638
  730TIP3    H226386   0.219   2.218  11.422 -0.1684 -0.5271 -2.0823
  731TIP3   OH226387   2.977   9.101  10.076  0.3903 -0.1898 -0.9990
  731TIP3    H126388   2.926   9.119   9.997  0.9502 -0.2442 -1.3805
  731TIP3    H226389   3.024   9.183  10.093 -1.7213  0.7589  0.8313
  732TIP3   OH226390   8.228   0.099   8.990  0.1884 -0.3984  0.0255
  732TIP3    H126391   8.259   0.048   8.915  0.2334 -1.4218  0.7206
  732TIP3    H226392   8.308   0.120   9.038  0.0969 -0.3075  0.1369
  733TIP3   OH226393   0.074   1.340   9.320 -0.0214  0.4060 -0.4002
  733TIP3    H126394   0.037   1.415   9.274  1.2614  0.9638 -0.5599
  733TIP3    H226395   0.083   1.272   9.253 -1.4585 -0.0226 -0.1944
  734TIP3   OH226396   0.075   9.080  10.158 -0.1810 -0.0376 -0.2855
  734TIP3    H126397   0.089   9.133  10.237  0.8172  1.9075 -1.6913
  734TIP3    H226398   0.151   9.021  10.155 -0.1054  0.0398  0.0602
  735TIP3   OH226399   5.175   9.126   9.871 -0.2692 -0.1060  0.2003
  735TIP3    H126400   5.174   9.127   9.966 -0.7553  0.8240  0.1933
  735TIP3    H226401   5.255   9.174   9.847 -0.5054  0.2652  0.1426
  736TIP3   OH226402   7.867   9.086  10.769 -0.2279 -0.6758  0.2348
  736TIP3    H126403   7.868   9.171  10.724  0.2709 -0.5756  0.4312
  736TIP3    H226404   7.778   9.078  10.803 -0.3124 -0.2886  0.1080
  737TIP3   OH226405   4.399   7.803  10.338 -0.4255  0.3628  0.3467
  737TIP3    H126406   4.305   7.787  10.336 -0.7179  1.8882 -0.8611
  737TIP3    H226407   4.419   7.820  10.430 -1.9272  2.8562  0.3249
  738TIP3   OH226408   5.245   2.805  10.188 -0.2561 -0.2337 -0.1987
  738TIP3    H126409   5.327   2.756  10.190 -1.1699 -1.8785 -1.0847
  738TIP3    H226410   5.202   2.782  10.271 -1.1002 -1.7744 -1.0111
  739TIP3   OH226411   6.759   0.499  10.548  0.2104 -0.5597 -0.3412
  739TIP3    H126412   6.691   0.562  10.572  2.2536  0.8965  2.0658
  739TIP3    H226413   6.841   0.544  10.564  1.8209 -2.7877 -1.6367
  740TIP3   OH226414   1.118   3.517  10.308  0.6437  0.1335 -0.4986
  740TIP3    H126415   1.176   3.457  10.261  0.3315 -0.7934  0.2669
  740TIP3    H226416   1.168   3.599  10.315  1.8672 -0.6389  0.1347
  741TIP3   OH226417   7.401   8.046   9.533 -0.0757  0.7462 -0.4740
  741TIP3    H126418   7.372   8.133   9.561 -1.5005  0.3304 -0.6044
  741TIP3    H226419   7.321   7.993   9.531  0.4544 -0.0584 -2.3324
  742TIP3   OH226420   4.185   6.701  10.506 -0.1475 -0.7981 -0.4051
  742TIP3    H126421   4.273   6.736  10.496  0.1843  0.2829  4.0803
  742TIP3    H226422   4.127   6.773  10.479  0.4424  0.0740  0.5962
  743TIP3   OH226423   1.260   0.308  10.910  0.4569 -0.1015  0.4462
  743TIP3    H126424   1.293   0.219  10.921  3.3736  0.7575 -0.4299
  743TIP3    H226425   1.240   0.315  10.817  0.9165  0.3220  0.3696
  744TIP3   OH226426   9.003   4.448   9.813 -0.1354  0.2699  0.7409
  744TIP3    H126427   8.957   4.364   9.820 -1.6917  0.9277 -0.8296
  744TIP3    H226428   8.934   4.514   9.814  0.7693  1.3363 -1.0271
  745TIP3   OH226429   0.035   8.816  10.328  0.0624  0.7615 -0.3143
  745TIP3    H126430   0.123   8.831  10.363 -0.6910 -1.5210  3.0619
  745TIP3    H226431  -0.024   8.849  10.396 -1.6257 -0.1741 -1.2554
  746TIP3   OH226432   6.611   8.766  10.533  0.0340  0.4049 -0.4371
  746TIP3    H126433   6.679   8.722  10.584 -0.3407  1.4353  1.0169
  746TIP3    H226434   6.657   8.796  10.454  0.1483 -3.1145 -1.9006
  747TIP3   OH226435   0.567   4.004  10.682  0.1021  0.2629 -0.2727
  747TIP3    H126436   0.599   3.933  10.626  0.8875 -0.4468  1.0316
  747TIP3    H226437   0.620   4.080  10.656 -0.9000  0.4813 -1.8346
  748TIP3   OH226438   6.014   1.455  11.095  0.1307  0.6996 -0.2621
  748TIP3    H126439   5.935   1.406  11.072  0.8042 -0.9413  0.7293
  748TIP3    H226440   5.989   1.506  11.172 -0.4838  1.6879 -1.0999
  749TIP3   OH226441   3.640   0.800  10.872  0.3211 -0.6242 -0.5131
  749TIP3    H126442   3.697   0.877  10.859 -3.7605  2.6735 -0.9976
  749TIP3    H226443   3.616   0.773  10.784 -0.3467 -0.6885 -0.3155
  750TIP3   OH226444   5.922   3.322   9.397  0.2308  0.3703  0.0548
  750TIP3    H126445   6.003   3.272   9.402 -0.0420 -0.1201 -0.3051
  750TIP3    H226446   5.865   3.271   9.339  0.6153  2.0037 -1.9136
  751TIP3   OH226447   6.840   7.966   9.367  0.1886  0.4059 -0.3259
  751TIP3    H126448   6.836   8.031   9.437  2.0905  0.0100  0.2046
  751TIP3    H226449   6.763   7.985   9.313 -1.2081  0.8619  1.6968
  752TIP3   OH226450   3.033   1.534  11.214  0.2896 -0.1985  0.4332
  752TIP3    H126451   3.095   1.563  11.148 -0.6661  0.3030 -0.2806
  752TIP3    H226452   3.042   1.596  11.286  0.0378  0.3709 -0.0208
  753TIP3   OH226453   7.016   3.928  10.895 -0.3832 -0.3660 -0.1097
  753TIP3    H126454   7.058   3.889  10.972 -2.2189  0.1123  1.1975
  753TIP3    H226455   6.933   3.881  10.886 -0.9401  0.7069 -0.8032
  754TIP3   OH226456   1.698   9.107  10.690 -0.1786 -0.2315  0.3154
  754TIP3    H126457   1.603   9.100  10.687 -0.2956  1.3098 -0.3748
  754TIP3    H226458   1.716   9.201  10.680  1.3630 -0.3087  1.8543
  755TIP3   OH226459   5.382   0.753   9.978  0.0955  0.6690  0.0124
  755TIP3    H126460   5.463   0.704   9.964 -0.2527  0.6202 -2.1945
  755TIP3    H226461   5.376   0.812   9.903 -1.4275  1.3685  0.6345
  756TIP3   OH226462   5.922   3.859   9.666  0.2264  0.7617  0.4176
  756TIP3    H126463   5.883   3.870   9.579 -0.0040 -0.2571  0.3782
  756TIP3    H226464   5.851   3.827   9.721 -0.4371  4.1367  1.7699
  757TIP3   OH226465   6.886   5.768  10.006 -0.5036  0.3925  0.2284
  757TIP3    H126466   6.836   5.776   9.925 -0.9520  2.5009  0.6315
  757TIP3    H226467   6.953   5.837  10.000 -0.6183  0.6787  1.6634
  758TIP3   OH226468   8.483   6.772  10.818  0.7260  0.3902 -1.0319
  758TIP3    H126469   8.553   6.837  10.807 -0.5495  1.7901 -1.1719
  758TIP3    H226470   8.418   6.816  10.872  1.2818 -1.9835  1.8314
  759TIP3   OH226471   2.190   5.180  10.904 -0.0071  0.0409  0.4223
  759TIP3    H126472   2.282   5.182  10.877  0.2858 -2.8777  0.8522
  759TIP3    H226473   2.153   5.104  10.859 -2.1865  1.0214  0.4329
  760TIP3   OH226474   7.249   0.998  10.084 -0.2734  0.5667  0.0741
  760TIP3    H126475   7.180   1.016  10.147  0.3092  1.9164  0.3808
  760TIP3    H226476   7.208   0.941  10.019 -1.1773 -0.0108  1.1113
  761TIP3   OH226477   1.682   0.641   9.990 -0.2845  0.3135 -0.2682
  761TIP3    H126478   1.636   0.644   9.906 -2.1619  0.1554  0.6928
  761TIP3    H226479   1.758   0.698   9.978 -1.3736  1.5653 -1.5802
  762TIP3   OH226480   0.443   8.345  10.922 -0.2317  0.1938  0.1137
  762TIP3    H126481   0.400   8.427  10.897  0.5015  0.5174 -0.1314
  762TIP3    H226482   0.533   8.355  10.889 -0.4776 -1.2527 -1.1310
  763TIP3   OH226483   4.152   3.901   9.732 -0.1952  0.0490 -0.4587
  763TIP3    H126484   4.242   3.906   9.699 -0.7382 -1.7209 -2.4534
  763TIP3    H226485   4.138   3.807   9.745 -1.6207  0.3412  0.2316
  764TIP3   OH226486   0.758   2.306  11.250 -0.1744  0.2754  0.2826
  764TIP3    H126487   0.801   2.392  11.257 -0.3665  0.3059  1.2737
  764TIP3    H226488   0.676   2.317  11.297 -0.7533 -0.1273 -0.6062
  765TIP3   OH226489   3.211   7.873   9.927 -0.2729 -0.1787  0.0411
  765TIP3    H126490   3.280   7.899   9.988  0.7248 -0.8881 -0.7516
  765TIP3    H226491   3.213   7.939   9.859  0.6354 -0.9733 -0.7318
  766TIP3   OH226492   6.917   4.562  10.869  0.3207 -0.1623 -0.0608
  766TIP3    H126493   6.825   4.537  10.863  0.6948 -1.4779 -0.6685
  766TIP3    H226494   6.923   4.643  10.820 -0.6296  0.2983  0.5457
  767TIP3   OH226495   5.182   1.913  10.886  0.3706  0.2071  0.1545
  767TIP3    H126496   5.224   1.853  10.825 -1.0590  1.5106 -2.2302
  767TIP3    H226497   5.237   1.909  10.964  2.4999 -1.2710 -1.3097
  768TIP3   OH226498   5.434   7.160  10.116 -0.4847  0.3736  0.2227
  768TIP3    H126499   5.519   7.121  10.138 -0.4051  0.8308  0.7250
  768TIP3    H226500   5.383   7.087  10.080  0.6017  0.3769 -1.4651
  769TIP3   OH226501   9.002   5.212   9.926  0.1975 -0.0348 -0.6520
  769TIP3    H126502   8.935   5.172   9.870 -0.5745  0.5324 -0.1690
  769TIP3    H226503   9.042   5.280   9.872  1.4325 -1.3458 -1.4375
  770TIP3   OH226504   3.249   9.210  10.398 -0.1586  0.1253  0.2077
  770TIP3    H126505   3.228   9.278  10.462 -0.5990 -0.5859  0.8488
  770TIP3    H226506   3.344   9.213  10.390 -0.1640  0.7480  0.2953
  771TIP3   OH226507   8.166   3.389  11.370  0.8504 -0.4929 -0.2478
  771TIP3    H126508   8.083   3.344  11.382  0.2071  0.6668 -0.1825
  771TIP3    H226509   8.209   3.383  11.455  0.1765  0.1615  0.1521
  772TIP3   OH226510   1.707   4.509  10.493  0.2772 -0.5367 -0.0106
  772TIP3    H126511   1.703   4.531  10.399  0.5762 -0.2617  0.0407
  772TIP3    H226512   1.789   4.548  10.523  1.5186 -2.8442 -0.1934
  773TIP3   OH226513   6.775   6.696  10.368 -0.7286 -0.1293  0.6723
  773TIP3    H126514   6.821   6.615  10.346  0.3388  1.1091 -2.0825
  773TIP3    H226515   6.770   6.695  10.464 -0.9164 -3.4802  0.7424
  774TIP3   OH226516   6.323   5.567  10.383  0.4841  0.0445  0.4527
  774TIP3    H126517   6.357   5.576  10.472 -0.3825  1.7509  0.6552
  774TIP3    H226518   6.377   5.626  10.330  0.1265  0.0751  0.1172
  775TIP3   OH226519   7.363   6.704   9.630 -0.0904  0.1976  0.3132
  775TIP3    H126520   7.291   6.761   9.603 -1.2453 -0.7589  1.2436
  775TIP3    H226521   7.355   6.627   9.574 -0.1920 -0.1799  0.8343
  776TIP3   OH226522   6.449   7.362  10.824  0.2308 -0.4409  0.7323
  776TIP3    H126523   6.506   7.408  10.886  0.0524  0.2829  0.3647
  776TIP3    H226524   6.492   7.372  10.739 -1.8971  2.8052 -0.1378
  777TIP3   OH226525   6.023   4.029  10.147  0.0835  0.1041  0.8266
  777TIP3    H126526   6.012   4.105  10.091 -0.2088  0.3505  1.2227
  777TIP3    H226527   6.118   4.020  10.157  0.1719 -0.3611 -0.2736
  778TIP3   OH226528   6.733   7.146   9.984  0.5186 -0.2433  0.6288
  778TIP3    H126529   6.813   7.106   9.950 -0.2946 -0.4989 -1.0952
  778TIP3    H226530   6.754   7.238   9.993  0.7067 -0.0920 -0.9653
  779TIP3   OH226531   4.136   7.720   9.627 -0.3834  0.7035 -0.5116
  779TIP3    H126532   4.138   7.777   9.704  0.5451 -1.9174  1.5247
  779TIP3    H226533   4.043   7.704   9.611 -0.5793 -0.9101  1.8569
  780TIP3   OH226534   0.277   3.153  10.842 -0.2378  0.0345 -0.3492
  780TIP3    H126535   0.182   3.159  10.855 -0.2330  0.0149 -0.3070
  780TIP3    H226536   0.290   3.178  10.750 -0.5213 -2.2095 -1.0649
  781TIP3   OH226537   7.508   8.755  10.984  0.2182  0.2739 -0.2426
  781TIP3    H126538   7.432   8.731  10.931 -0.1286  0.0994  0.3232
  781TIP3    H226539   7.579   8.701  10.950 -0.8622 -2.8523  1.9910
  782TIP3   OH226540   4.456   4.639   9.981 -0.2268  0.0012 -0.3497
  782TIP3    H126541   4.456   4.730   9.951  0.2120 -0.3242 -1.3711
  782TIP3    H226542   4.386   4.636  10.046 -1.2457  0.7278 -1.3660
  783TIP3   OH226543   5.273   2.059   9.898 -0.9806 -0.1460 -0.2328
  783TIP3    H126544   5.191   2.044   9.851 -0.7456 -1.9610 -0.1190
  783TIP3    H226545   5.338   2.008   9.851  0.0735  1.0753 -0.1772
  784TIP3   OH226546   6.121   8.188   9.530  0.0067 -0.0001  1.0253
  784TIP3    H126547   6.210   8.163   9.551  0.5671 -1.0330 -2.0461
  784TIP3    H226548   6.079   8.107   9.500 -0.8829  1.0488 -0.7708
  785TIP3   OH226549   0.139   6.242  16.656 -0.0305 -0.6663  0.3682
  785TIP3    H126550   0.185   6.163  16.684 -1.7782 -1.8641 -0.0305
  785TIP3    H226551   0.115   6.286  16.737  0.4531 -0.8158  0.5995
  786TIP3   OH226552   5.426   0.117   9.290  0.2710  0.5489 -0.1999
  786TIP3    H126553   5.415   0.022   9.294 -0.7907  0.6804  2.2920
  786TIP3    H226554   5.520   0.131   9.299  0.2615 -0.2894  1.9400
  787TIP3   OH226555   5.393   1.957  11.089 -0.4916 -0.0285 -0.2041
  787TIP3    H126556   5.422   1.866  11.087 -0.4952 -0.0673  1.0172
  787TIP3    H226557   5.449   1.999  11.155 -2.6979  0.0635  1.7233
  788TIP3   OH226558   4.216   2.596  10.942  0.4236  0.2543  0.1438
  788TIP3    H126559   4.174   2.675  10.909  0.4867 -0.2485 -1.2187
  788TIP3    H226560   4.229   2.542  10.864 -0.9951 -1.7664  1.2216
  789TIP3   OH226561   6.083   0.082   9.450  0.4153  0.0124  0.9625
  789TIP3    H126562   6.028   0.129   9.512 -1.2856 -1.2713  0.4984
  789TIP3    H226563   6.025   0.017   9.410  2.3167 -1.5446  0.5649
  790TIP3   OH226564   2.345   7.143  10.527 -0.3809 -0.6952 -0.0753
  790TIP3    H126565   2.298   7.158  10.445  2.4810 -0.6519 -1.8289
  790TIP3    H226566   2.413   7.080  10.504  2.3227  1.4325  1.5081
  791TIP3   OH226567   9.154   5.999  10.935 -0.8184 -0.0089  0.2718
  791TIP3    H126568   9.124   5.917  10.974  3.8253 -2.2878 -0.2479
  791TIP3    H226569   9.156   5.981  10.841  0.1669  0.6478  0.1476
  792TIP3   OH226570   7.997   0.231   9.621  0.1394  0.2550 -0.0417
  792TIP3    H126571   7.947   0.189   9.691  0.2885  0.1621  0.0102
  792TIP3    H226572   8.088   0.209   9.641  0.2551  0.9338  0.2089
  793TIP3   OH226573   8.367   5.447   9.927 -0.1755  0.2311  0.1421
  793TIP3    H126574   8.397   5.528   9.886 -0.1514  0.6384  0.9543
  793TIP3    H226575   8.273   5.459   9.939 -0.1418  0.2073  0.4279
  794TIP3   OH226576   7.080   2.088   9.113  0.3193  0.1317 -0.0002
  794TIP3    H126577   6.989   2.112   9.127  0.1172 -0.3744 -0.3902
  794TIP3    H226578   7.112   2.151   9.048 -0.5147 -1.2353 -1.8455
  795TIP3   OH226579   0.616   2.844   9.277  0.1872  0.3667 -0.1876
  795TIP3    H126580   0.561   2.878   9.347 -0.3629  0.7427 -0.7973
  795TIP3    H226581   0.705   2.851   9.312 -0.1312 -0.1980  0.7820
  796TIP3   OH226582   8.409   5.825  10.355 -0.3189  0.2562  0.0314
  796TIP3    H126583   8.377   5.906  10.395  1.9040  0.5079  1.4850
  796TIP3    H226584   8.443   5.852  10.270  1.5037  1.1496  0.9875
  797TIP3   OH226585   6.491   5.817   9.601  0.6676  0.6491  0.5736
  797TIP3    H126586   6.430   5.890   9.605 -0.9385 -0.6731  1.7534
  797TIP3    H226587   6.515   5.809   9.509  0.4278  2.2772  0.3544
  798TIP3   OH226588   8.258   1.564   9.852  0.1594  0.3529  0.6954
  798TIP3    H126589   8.210   1.560   9.935  0.2404 -0.1841  0.7175
  798TIP3    H226590   8.239   1.481   9.809  0.7926  0.2773  0.5475
  799TIP3   OH226591   2.260   4.627  10.972  0.1595  0.4730  0.3640
  799TIP3    H126592   2.182   4.675  10.998 -0.8730 -0.6804 -0.5304
  799TIP3    H226593   2.230   4.565  10.906  1.5158 -1.1458  1.1956
  800TIP3   OH226594   2.759   1.559  10.379  0.2799 -0.6415 -0.5563
  800TIP3    H126595   2.800   1.545  10.464  0.2330 -0.9977 -0.5920
  800TIP3    H226596   2.736   1.472  10.349 -0.1076 -0.4793 -0.7373
  801TIP3   OH226597   6.965   3.527  11.019  0.2865  0.6363  0.2132
  801TIP3    H126598   7.029   3.475  10.971 -0.3291  0.9167 -0.9331
  801TIP3    H226599   6.884   3.474  11.017  0.9511 -0.8298  3.6219
  802TIP3   OH226600   8.115   5.517   9.993  0.8413  0.4776 -0.2552
  802TIP3    H126601   8.066   5.539   9.914  0.3034 -0.6970 -0.2739
  802TIP3    H226602   8.100   5.591  10.052 -1.4588 -0.0603 -0.0514
  803TIP3   OH226603   4.810   0.683  10.165 -0.1078  0.2783  0.5587
  803TIP3    H126604   4.730   0.661  10.212 -0.4401  0.1650 -0.0487
  803TIP3    H226605   4.781   0.702  10.076  0.4857  0.6821  0.4476
  804TIP3   OH226606   4.950   2.207   9.444  0.3197 -0.0235 -0.2408
  804TIP3    H126607   5.004   2.280   9.471  0.6841 -0.2993 -0.2149
  804TIP3    H226608   4.913   2.234   9.360  0.3177  0.2565 -0.1488
  805TIP3   OH226609   3.460   8.983  10.450  0.0792  0.2759  0.0272
  805TIP3    H126610   3.427   8.911  10.396  0.7769  0.8843 -1.2542
  805TIP3    H226611   3.549   8.998  10.418  0.5068  0.6756  1.3538
  806TIP3   OH226612   5.800   2.291   9.760  0.2737  0.2990 -0.0057
  806TIP3    H126613   5.785   2.225   9.828 -0.4013  0.7008  0.2479
  806TIP3    H226614   5.893   2.285   9.741  0.2114 -0.8004 -0.0669
  807TIP3   OH226615   4.658   3.856  10.226 -0.3464  0.2067  0.5822
  807TIP3    H126616   4.639   3.807  10.306  1.6729  1.1552  1.6961
  807TIP3    H226617   4.738   3.816  10.192 -1.3483 -0.3933 -1.1853
  808TIP3   OH226618   3.022   3.126   9.272  0.3455  0.1602  0.5669
  808TIP3    H126619   2.961   3.082   9.213  0.4047  1.1478 -0.2560
  808TIP3    H226620   2.978   3.125   9.357  0.3993 -1.5759  0.6223
  809TIP3   OH226621   2.595   1.135  10.737  0.5986  0.0008 -0.1535
  809TIP3    H126622   2.606   1.187  10.817 -0.0228  1.4659 -0.9640
  809TIP3    H226623   2.679   1.090  10.726  0.7337 -0.1228  1.2441
  810TIP3   OH226624   0.318   0.062   9.906 -0.5439  0.0188  0.5658
  810TIP3    H126625   0.339   0.055   9.813 -0.9791 -1.3074  0.5415
  810TIP3    H226626   0.223   0.074   9.909 -0.6772 -0.9630  0.8414
  811TIP3   OH226627   0.597   1.354   9.339  0.7093 -0.0334 -0.6508
  811TIP3    H126628   0.620   1.436   9.295 -0.9136  0.2866 -0.9442
  811TIP3    H226629   0.520   1.322   9.292 -0.3138 -0.3480  1.1530
  812TIP3   OH226630   7.995   3.474   9.993 -0.6866  0.2541  0.4293
  812TIP3    H126631   8.059   3.516  10.051 -1.0501  0.1098  0.9426
  812TIP3    H226632   7.941   3.546   9.961 -2.8721  0.0232  3.2064
  813TIP3   OH226633   7.064   4.463  11.244 -0.1063 -0.0270 -0.1582
  813TIP3    H126634   7.085   4.391  11.184 -0.6412 -0.0693 -0.3005
  813TIP3    H226635   6.990   4.430  11.295 -0.7957  0.6673 -0.6833
  814TIP3   OH226636   3.390   4.651   9.725  0.1223  0.0041  0.5161
  814TIP3    H126637   3.342   4.572   9.750 -2.4154  1.2083 -0.2911
  814TIP3    H226638   3.339   4.723   9.762  2.7597  1.3556  1.8998
  815TIP3   OH226639   5.418   5.882  10.697 -0.3826  0.1074  0.2223
  815TIP3    H126640   5.422   5.790  10.672 -0.7640  0.5082 -1.4890
  815TIP3    H226641   5.395   5.927  10.616 -0.1786  1.7169  1.0244
  816TIP3   OH226642   5.699   0.180   9.378  0.0103 -0.3591 -0.0678
  816TIP3    H126643   5.731   0.090   9.391  1.3677  0.3345  1.9517
  816TIP3    H226644   5.760   0.219   9.315  0.1767 -0.4780  0.0210
  817TIP3   OH226645   8.042   5.432   9.527 -0.4550 -0.1366  0.3718
  817TIP3    H126646   8.049   5.339   9.505  0.5201  0.1314 -0.5167
  817TIP3    H226647   8.133   5.464   9.526 -0.7929  0.8619  0.4965
  818TIP3   OH226648   8.973   7.433   9.717  0.4103 -0.4666  0.4544
  818TIP3    H126649   9.020   7.504   9.762 -0.1161 -0.1115  0.4497
  818TIP3    H226650   9.027   7.415   9.639  1.6742 -1.5271  1.5210
  819TIP3   OH226651   8.761   1.308  10.468  0.0693  0.0150 -0.4413
  819TIP3    H126652   8.832   1.279  10.412 -0.1104 -1.3665  0.0046
  819TIP3    H226653   8.799   1.315  10.556 -0.4015 -1.1392 -0.1190
  820TIP3   OH226654   0.440   2.537  10.574 -0.3284 -0.0124  0.1962
  820TIP3    H126655   0.388   2.470  10.530  0.9929 -1.1883  0.3583
  820TIP3    H226656   0.460   2.600  10.505  0.9040 -1.3332 -0.7182
  821TIP3   OH226657   6.129   0.876  10.690 -0.1224 -0.2450  0.2618
  821TIP3    H126658   6.134   0.857  10.784  3.0666  1.6077  0.5817
  821TIP3    H226659   6.066   0.948  10.684 -0.3892 -0.4105  0.9259
  822TIP3   OH226660   6.577   1.282  10.069  0.3488 -0.8572 -0.2174
  822TIP3    H126661   6.637   1.287  10.143  2.0535  0.6905 -1.6139
  822TIP3    H226662   6.554   1.373  10.051 -2.4560 -1.3879  0.2273
  823TIP3   OH226663   3.575   6.340  10.456  0.1105  0.7160 -0.3232
  823TIP3    H126664   3.564   6.411  10.393  0.8792 -0.3347 -1.7057
  823TIP3    H226665   3.487   6.304  10.467  0.0018  0.7666 -0.9915
  824TIP3   OH226666   4.468   4.448  10.248 -0.1885 -0.4180  0.1166
  824TIP3    H126667   4.505   4.534  10.268  0.6144 -0.8984  0.7471
  824TIP3    H226668   4.429   4.419  10.331 -0.4508 -0.6684 -0.0929
  825TIP3   OH226669   6.524   3.608   9.729  0.9864  0.4033 -0.1583
  825TIP3    H126670   6.561   3.610   9.641  0.1610 -1.7121 -0.6153
  825TIP3    H226671   6.435   3.642   9.720  1.2729  1.2451  0.0930
  826TIP3   OH226672   7.617   0.689   9.563 -0.3271  0.1152 -0.5030
  826TIP3    H126673   7.638   0.658   9.475  0.9464 -0.0740 -0.1593
  826TIP3    H226674   7.523   0.705   9.561 -0.3276  0.0876 -1.8857
  827TIP3   OH226675   4.539   5.049   9.786  0.3499 -0.5317  0.0644
  827TIP3    H126676   4.553   5.126   9.731 -0.7538 -0.5570 -0.2811
  827TIP3    H226677   4.460   5.009   9.751  0.4160 -1.3291  0.7993
  828TIP3   OH226678   8.529   7.617  10.567  0.2032  0.5596  0.3307
  828TIP3    H126679   8.590   7.625  10.640  0.7094  1.6184 -0.1823
  828TIP3    H226680   8.571   7.555  10.507  1.0531  1.6838 -0.2650
  829TIP3   OH226681   3.785   0.153   9.588  0.4671 -0.4318  0.2470
  829TIP3    H126682   3.696   0.187   9.579 -0.5328 -2.8391  0.3985
  829TIP3    H226683   3.796   0.139   9.682  0.1339 -2.1933  0.0554
  830TIP3   OH226684   4.844   8.491  11.395  0.9209  0.2740 -0.0569
  830TIP3    H126685   4.802   8.560  11.344 -0.1500  0.2438  0.7448
  830TIP3    H226686   4.849   8.416  11.335  0.9753  0.6686 -0.5522
  831TIP3   OH226687   3.814   0.142   9.870  0.3186  0.2915  0.3234
  831TIP3    H126688   3.775   0.054   9.866 -0.3550  0.6248 -0.7958
  831TIP3    H226689   3.906   0.126   9.894 -0.0137 -0.6464  1.0507
  832TIP3   OH226690   5.548   2.677  11.096  0.3978  0.2928 -0.1592
  832TIP3    H126691   5.551   2.647  11.005  2.1583  1.9610 -0.7007
  832TIP3    H226692   5.455   2.673  11.119  0.0592 -1.2808 -1.6040
  833TIP3   OH226693   6.894   7.246   9.737  0.5357 -0.1246 -0.3378
  833TIP3    H126694   6.864   7.327   9.695  1.6892 -0.1099 -1.1575
  833TIP3    H226695   6.846   7.176   9.692  1.1602 -0.0477 -1.1445
  834TIP3   OH226696   3.762   7.727   9.974  0.1205  0.2968  0.6212
  834TIP3    H126697   3.722   7.794   9.919 -0.8095  0.0589  0.9883
  834TIP3    H226698   3.705   7.651   9.964  0.6179 -0.1291  0.9740
  835TIP3   OH226699   8.493   1.364  10.426 -0.0650 -0.8965 -0.3469
  835TIP3    H126700   8.480   1.458  10.421  1.6553 -0.6408 -0.6201
  835TIP3    H226701   8.586   1.353  10.447 -0.3123 -2.5259  0.0868
  836TIP3   OH226702   2.642   1.773  10.554 -0.3414  0.1789 -0.1534
  836TIP3    H126703   2.665   1.832  10.483  1.4546  0.3125  0.4904
  836TIP3    H226704   2.624   1.689  10.511 -0.0414  0.4607 -0.8319
  837TIP3   OH226705   1.593   0.465  11.113  0.2894 -0.2261 -0.0929
  837TIP3    H126706   1.617   0.557  11.103 -2.7489  0.5288 -1.4125
  837TIP3    H226707   1.653   0.418  11.055 -0.8697  1.4643 -2.8715
  838TIP3   OH226708   2.076   6.751  11.023  0.5260  0.2662  0.0687
  838TIP3    H126709   2.107   6.666  10.993  1.3802  0.8775 -0.8286
  838TIP3    H226710   2.031   6.732  11.106 -0.7888 -1.2709 -0.9502
  839TIP3   OH226711   5.677   4.690  10.568  0.6321 -0.3484  0.1175
  839TIP3    H126712   5.709   4.647  10.489  1.6208 -0.1572  0.4012
  839TIP3    H226713   5.692   4.783  10.553  0.5049 -0.2824  0.3884
  840TIP3   OH226714   0.750   8.718   9.861  0.3228  0.0695  0.5260
  840TIP3    H126715   0.687   8.671   9.807  0.2274 -0.6304  1.2339
  840TIP3    H226716   0.745   8.809   9.830  0.9565 -0.4668 -1.2703
  841TIP3   OH226717   8.726   7.581  10.138  0.0817 -0.2837 -0.0614
  841TIP3    H126718   8.794   7.615  10.080 -0.0749 -0.7609 -0.5365
  841TIP3    H226719   8.775   7.544  10.213  0.2000  2.1322  1.1465
  842TIP3   OH226720   2.421   8.371   9.851 -0.0258  0.2571  0.0816
  842TIP3    H126721   2.339   8.322   9.855  0.1561  0.0049  0.6764
  842TIP3    H226722   2.420   8.427   9.929 -0.6162  1.8256 -0.9903
  843TIP3   OH226723   6.365   2.205   9.729  0.3401  0.3770  0.4175
  843TIP3    H126724   6.320   2.176   9.649 -1.6687  0.5526  1.4323
  843TIP3    H226725   6.382   2.298   9.714  0.1962  0.3559  0.1053
  844TIP3   OH226726   0.763   7.800   9.830 -0.1616 -0.2091 -0.2427
  844TIP3    H126727   0.736   7.881   9.786 -0.1021 -0.3340 -0.5122
  844TIP3    H226728   0.740   7.731   9.768  0.4740 -0.3409 -0.3355
  845TIP3   OH226729   6.397   6.513   9.537  0.1285 -0.0997  0.2279
  845TIP3    H126730   6.358   6.601   9.536 -0.7169 -0.4588 -0.8561
  845TIP3    H226731   6.321   6.454   9.536  0.6873 -0.8502  0.9553
  846TIP3   OH226732   7.973   5.570   9.761 -0.4882  0.3298  0.2684
  846TIP3    H126733   8.008   5.651   9.724  2.0633 -0.9255 -0.2928
  846TIP3    H226734   7.970   5.509   9.688 -2.1978 -0.1953  0.7178
  847TIP3   OH226735   6.700   5.185  10.936 -0.5806 -0.5258 -0.7535
  847TIP3    H126736   6.789   5.162  10.963 -0.5084  0.7980  0.2066
  847TIP3    H226737   6.688   5.140  10.853  0.6919 -1.3797 -0.4992
  848TIP3   OH226738   8.915   7.059  10.662  0.5912 -0.1015  0.1674
  848TIP3    H126739   8.962   7.015  10.733  1.1969 -1.5060 -1.0461
  848TIP3    H226740   8.971   7.046  10.585 -1.4490 -1.3305 -1.2121
  849TIP3   OH226741   4.579   8.709  10.222 -0.0187 -0.1000 -0.1300
  849TIP3    H126742   4.604   8.626  10.262 -0.9152 -0.4161 -0.2138
  849TIP3    H226743   4.577   8.771  10.295 -1.2476 -0.5834  0.2594
  850TIP3   OH226744   5.423   3.571  10.975  0.0543 -0.2520 -0.4194
  850TIP3    H126745   5.377   3.654  10.962  2.9950  1.6451  0.3862
  850TIP3    H226746   5.493   3.572  10.910  1.7709 -0.7815  1.3375
  851TIP3   OH226747   0.261   2.768   9.098 -0.5364  0.0055  0.4060
  851TIP3    H126748   0.245   2.828   9.171  0.6363  1.1984 -0.2859
  851TIP3    H226749   0.355   2.749   9.103 -0.1838  1.0529 -1.4785
  852TIP3   OH226750   2.693   5.829  10.033 -0.0497 -0.1177 -0.3813
  852TIP3    H126751   2.684   5.768   9.960  1.2601 -0.8153  0.0113
  852TIP3    H226752   2.784   5.820  10.061 -0.1995  1.0316  0.5597
  853TIP3   OH226753   3.766   5.270  10.220  0.3758  0.0708 -0.7276
  853TIP3    H126754   3.749   5.185  10.180  1.7379  0.6179 -2.6301
  853TIP3    H226755   3.684   5.293  10.264 -0.6100 -1.4173 -1.7010
  854TIP3   OH226756   2.865   8.189  10.132  0.1939  0.1674  0.0535
  854TIP3    H126757   2.915   8.148  10.061 -0.0715 -1.0366  0.5255
  854TIP3    H226758   2.779   8.207  10.094  0.7454  1.5696 -0.5515
  855TIP3   OH226759   0.256   1.180  10.192  0.1662 -0.4421 -0.4826
  855TIP3    H126760   0.203   1.151  10.118  0.5823 -0.8719 -0.6156
  855TIP3    H226761   0.257   1.105  10.251  1.1725 -0.6723 -0.7829
  856TIP3   OH226762   5.623   7.062  10.276 -0.1747 -0.1629 -0.0116
  856TIP3    H126763   5.661   7.063  10.364  0.3831 -0.0992 -0.2480
  856TIP3    H226764   5.646   6.977  10.241  2.0953  0.8173 -1.1354
  857TIP3   OH226765   4.036   1.685   9.672  0.2857 -0.6055 -0.4152
  857TIP3    H126766   3.982   1.740   9.728 -0.3570 -2.2850  0.6789
  857TIP3    H226767   3.975   1.627   9.627  1.0321 -1.5610 -0.2535
  858TIP3   OH226768   4.212   3.262  10.531  0.4295  0.2462  0.0230
  858TIP3    H126769   4.126   3.303  10.536  0.6245  0.7462 -0.5385
  858TIP3    H226770   4.225   3.246  10.438 -0.3710 -2.7249  0.3277
  859TIP3   OH226771   2.781   5.274   9.921 -0.3739 -0.0648  0.5098
  859TIP3    H126772   2.850   5.338   9.906 -0.6547  0.0263 -0.4392
  859TIP3    H226773   2.744   5.258   9.835 -1.5074 -0.1489  0.9980
  860TIP3   OH226774   5.263   0.207  10.462  0.2710  0.0411  0.3607
  860TIP3    H126775   5.314   0.288  10.465  0.0632  0.1270  2.5057
  860TIP3    H226776   5.298   0.160  10.386  1.2434  1.5739 -0.1817
  861TIP3   OH226777   7.283   5.033  11.291  0.1466  0.1371  0.1626
  861TIP3    H126778   7.319   4.945  11.278 -0.8900 -0.1992 -0.4909
  861TIP3    H226779   7.346   5.075  11.350 -0.3950 -1.7500  2.2584
  862TIP3   OH226780   8.217   1.923  10.783 -0.5581  0.2256 -0.5032
  862TIP3    H126781   8.289   1.974  10.821  0.5049 -0.3594 -1.6708
  862TIP3    H226782   8.154   1.914  10.855  0.2286  1.2954  0.3601
  863TIP3   OH226783   7.685   5.284   9.641  0.2416  0.0570 -0.4991
  863TIP3    H126784   7.640   5.281   9.557  0.9550 -0.0320 -0.8882
  863TIP3    H226785   7.748   5.212   9.637 -0.5333 -0.7181  0.5970
  864TIP3   OH226786   7.618   7.775  10.848  0.0863  0.3476 -0.1159
  864TIP3    H126787   7.657   7.770  10.761  0.3656 -1.7604  0.0987
  864TIP3    H226788   7.674   7.837  10.896  1.6715 -0.6873 -0.5678
  865TIP3   OH226789   5.096   7.930   9.455  0.9900  0.4860  0.0022
  865TIP3    H126790   5.133   7.951   9.541 -0.5722 -0.8447  1.0580
  865TIP3    H226791   5.060   7.843   9.465 -2.0160  1.4952 -1.0267
  866TIP3   OH226792   3.863   8.331  10.275  0.4786 -0.1291 -0.2379
  866TIP3    H126793   3.931   8.352  10.339 -0.6187  0.0071  0.9248
  866TIP3    H226794   3.909   8.284  10.205  1.7219 -0.2311  0.6259
  867TIP3   OH226795   4.833   9.149  10.846  0.1345  0.5166 -0.1982
  867TIP3    H126796   4.755   9.107  10.810  0.4474  0.4051 -0.7506
  867TIP3    H226797   4.847   9.226  10.790 -0.7489  1.6950  1.1243
  868TIP3   OH226798   6.149   2.340  10.116 -0.1421 -0.3926 -0.4677
  868TIP3    H126799   6.054   2.327  10.108 -0.3409  0.4623  0.3699
  868TIP3    H226800   6.172   2.390  10.038 -0.5313  0.1373 -0.2485
  869TIP3   OH226801   7.516   3.741   9.536  0.4067 -0.9060  0.4292
  869TIP3    H126802   7.591   3.792   9.507  0.9252 -0.2852  2.6450
  869TIP3    H226803   7.532   3.653   9.503  1.5277 -0.5247 -0.0994
  870TIP3   OH226804   7.768   2.076  10.078 -0.4728  0.0307 -0.8591
  870TIP3    H126805   7.758   2.021  10.001 -0.5539 -2.0902  0.5751
  870TIP3    H226806   7.804   2.017  10.145  0.2551  1.9477  0.5395
  871TIP3   OH226807   0.037   5.069  11.160  0.4619 -0.2873 -0.2771
  871TIP3    H126808  -0.050   5.067  11.202 -0.4929 -1.4980 -2.2070
  871TIP3    H226809   0.081   4.990  11.192  0.6070 -0.0352  0.1593
  872TIP3   OH226810   4.157   0.787  11.329 -0.2649  0.8758 -0.2278
  872TIP3    H126811   4.163   0.792  11.424 -1.2971  2.1777 -0.2110
  872TIP3    H226812   4.165   0.694  11.310 -0.1952  0.5795  1.1377
  873TIP3   OH226813   5.954   8.758   9.211 -1.0611 -0.5202  0.1824
  873TIP3    H126814   6.033   8.774   9.262 -0.0756  0.1340 -1.4630
  873TIP3    H226815   5.974   8.679   9.161 -0.1628  1.2137 -2.4575
  874TIP3   OH226816   7.623   6.846   9.586 -0.1040  0.5052  0.4090
  874TIP3    H126817   7.543   6.804   9.618  1.3965 -2.2021  0.9241
  874TIP3    H226818   7.602   6.873   9.497 -2.0616  1.4074  1.0858
  875TIP3   OH226819   2.866   8.752   9.874  0.3037 -0.3816 -0.6553
  875TIP3    H126820   2.812   8.688   9.920  0.2836  0.3363  0.3595
  875TIP3    H226821   2.907   8.703   9.802 -1.3411 -1.0367 -1.1878
  876TIP3   OH226822   7.936   3.540  11.004  0.1486  0.2996 -0.5561
  876TIP3    H126823   8.010   3.546  11.063  0.3650 -3.1628 -0.2632
  876TIP3    H226824   7.974   3.509  10.921 -0.7466  0.1084 -0.9113
  877TIP3   OH226825   3.250   1.756  10.220  0.1592 -0.2752  0.3116
  877TIP3    H126826   3.157   1.761  10.241  0.1331  0.1609  0.1136
  877TIP3    H226827   3.282   1.682  10.271 -0.2850 -0.3970  0.4226
  878TIP3   OH226828   8.844   8.868  10.262  0.0761  0.1648 -0.5578
  878TIP3    H126829   8.922   8.909  10.226 -0.0941  0.4017 -0.6559
  878TIP3    H226830   8.797   8.939  10.306  0.6267 -0.2391  0.7400
  879TIP3   OH226831   3.471   4.852  10.069  0.7978  0.3851 -0.6644
  879TIP3    H126832   3.517   4.931  10.099  0.2220  0.2950  0.5208
  879TIP3    H226833   3.507   4.835   9.982 -0.3707  3.0208 -1.7814
  880TIP3   OH226834   6.612   3.157   9.786  0.1248 -0.0180  0.3107
  880TIP3    H126835   6.697   3.140   9.745 -0.4779 -2.8627  0.0101
  880TIP3    H226836   6.611   3.099   9.863 -0.9029  1.2536  1.2971
  881TIP3   OH226837   4.093   5.007  10.761 -0.2380  0.4391 -0.5372
  881TIP3    H126838   4.020   4.983  10.704  1.1477 -1.5377 -1.6053
  881TIP3    H226839   4.071   4.967  10.846 -1.0517  1.1193 -0.4133
  882TIP3   OH226840   4.394   8.180   9.435 -0.8564  0.0701 -0.1269
  882TIP3    H126841   4.357   8.143   9.515 -1.2962  0.2267 -0.2509
  882TIP3    H226842   4.488   8.185   9.451 -1.0605  1.2734  0.8761
  883TIP3   OH226843   8.635   1.119  11.025  0.0576  0.7344 -0.6701
  883TIP3    H126844   8.652   1.047  10.964  1.3703 -1.6853  2.2801
  883TIP3    H226845   8.718   1.130  11.071 -1.7180 -0.2085  3.1595
  884TIP3   OH226846   4.373   3.947  10.658 -0.1244 -0.5818  0.3572
  884TIP3    H126847   4.458   3.909  10.681  0.1736  0.6990  1.5334
  884TIP3    H226848   4.322   3.943  10.739 -0.0336  1.5407  0.5875
  885TIP3   OH226849   1.935   7.400   9.510  0.2184 -0.2465  0.1784
  885TIP3    H126850   2.008   7.452   9.543 -1.2353  1.3586  0.9969
  885TIP3    H226851   1.930   7.421   9.417  0.1720  0.4365  0.3293
  886TIP3   OH226852   7.231   1.992  10.437 -0.6127 -0.2982  0.6904
  886TIP3    H126853   7.137   2.008  10.445 -0.7082  0.0577 -0.8211
  886TIP3    H226854   7.239   1.938  10.358  0.4391 -0.4492  0.8899
  887TIP3   OH226855   9.134   1.671  11.296 -0.2767 -0.0366 -0.3761
  887TIP3    H126856   9.044   1.649  11.321 -0.3167 -1.5856 -1.7265
  887TIP3    H226857   9.187   1.598  11.327  0.3027  0.1726 -0.8394
  888TIP3   OH226858   1.568   4.232  10.878 -0.0006  0.5943 -0.1496
  888TIP3    H126859   1.596   4.150  10.837 -1.6645 -0.4583  0.7508
  888TIP3    H226860   1.537   4.285  10.805  1.3940  0.6029 -0.7851
  889TIP3   OH226861   1.816   3.248  10.928 -0.5215  0.4363 -0.1125
  889TIP3    H126862   1.760   3.277  10.856  1.1507  1.2870 -1.1300
  889TIP3    H226863   1.891   3.307  10.925  0.0620 -0.1565  1.7167
  890TIP3   OH226864   3.911   0.198  10.773  0.1069  0.3492 -0.3507
  890TIP3    H126865   3.974   0.268  10.756  1.0063 -0.1262  0.8619
  890TIP3    H226866   3.831   0.244  10.800  0.4537  0.9291 -0.3009
  891TIP3   OH226867   2.229   4.405   9.883 -0.1665 -0.0159 -0.4394
  891TIP3    H126868   2.220   4.329   9.941 -0.6461  0.7348  0.5184
  891TIP3    H226869   2.237   4.368   9.795  1.0271 -1.2163  0.1409
  892TIP3   OH226870   9.088   5.499  10.226  0.1873  0.2041  0.1866
  892TIP3    H126871   9.030   5.551  10.171 -1.4699 -0.3059  1.3664
  892TIP3    H226872   9.070   5.409  10.202 -0.3506 -0.0137  1.3139
  893TIP3   OH226873   4.202   6.241  10.808 -0.0653  0.3183  0.4096
  893TIP3    H126874   4.187   6.277  10.720 -0.6285 -1.7396 -0.4046
  893TIP3    H226875   4.114   6.232  10.845  0.1610  1.0272  1.1321
  894TIP3   OH226876   2.272   9.198   9.284  0.3371  0.0954  0.2168
  894TIP3    H126877   2.255   9.156   9.199 -0.3298 -2.2865  1.4371
  894TIP3    H226878   2.366   9.213   9.285  0.5916 -1.2829 -0.3757
  895TIP3   OH226879   1.616   5.848   9.816 -0.3679  0.3313  0.5743
  895TIP3    H126880   1.636   5.779   9.752 -0.6204  1.2030 -0.4736
  895TIP3    H226881   1.571   5.916   9.765  0.2141  1.4468  1.4946
  896TIP3   OH226882   4.029   1.512  10.094  0.5974 -0.2670 -0.3410
  896TIP3    H126883   3.971   1.588  10.101  1.0823  0.0797 -0.0664
  896TIP3    H226884   4.049   1.488  10.185  1.0533 -0.2506 -0.4335
  897TIP3   OH226885   0.875   9.193   8.931 -0.2813 -0.0448  0.1094
  897TIP3    H126886   0.786   9.161   8.945  0.0751 -0.7372  0.8829
  897TIP3    H226887   0.872   9.237   8.846 -0.9051 -1.7577 -0.7989
  898TIP3   OH226888   3.776   2.397   9.288  0.9872  0.1866 -0.3333
  898TIP3    H126889   3.820   2.465   9.237 -1.3417  1.5157 -0.7221
  898TIP3    H226890   3.730   2.344   9.223  0.2381  0.1838  0.1915
  899TIP3   OH226891   6.931   2.316  10.949  0.0874  0.0234 -0.3943
  899TIP3    H126892   6.924   2.265  11.030  1.1947 -0.1725 -0.4023
  899TIP3    H226893   7.024   2.311  10.926 -0.4355 -1.2456 -2.5303
  900TIP3   OH226894   4.172   0.742   9.577  0.3392  0.0461 -0.2168
  900TIP3    H126895   4.220   0.818   9.545  1.5892 -0.2640  0.8287
  900TIP3    H226896   4.201   0.670   9.520 -0.7090  0.2920 -1.0917
  901TIP3   OH226897   1.210   8.184  10.339  0.3399  0.2402  0.4943
  901TIP3    H126898   1.170   8.176  10.252  0.8198  0.6526  0.2302
  901TIP3    H226899   1.293   8.228  10.323 -0.6567  2.5957  1.4680
  902TIP3   OH226900   2.166   0.420   9.405  0.1812  0.1387  0.7655
  902TIP3    H126901   2.193   0.436   9.495 -0.5592  0.8161  0.8702
  902TIP3    H226902   2.219   0.344   9.377 -0.6395 -1.0327  2.2548
  903TIP3   OH226903   5.990   3.414  11.079 -0.2432 -0.4072 -0.0427
  903TIP3    H126904   5.980   3.362  10.999  1.0929 -0.5526 -0.1322
  903TIP3    H226905   5.928   3.486  11.068 -0.9905 -1.1116 -0.6306
  904TIP3   OH226906   0.272   6.542  10.075 -0.5853  0.0379  0.0334
  904TIP3    H126907   0.219   6.501  10.143 -0.2334 -0.0626  0.2488
  904TIP3    H226908   0.211   6.600  10.029 -1.2853 -1.2536 -0.7507
  905TIP3   OH226909   5.811   1.897  10.181  0.0533 -0.4459 -0.1553
  905TIP3    H126910   5.800   1.809  10.144 -1.4030 -0.1733 -0.4313
  905TIP3    H226911   5.878   1.938  10.126  0.3961 -1.2167 -0.3266
  906TIP3   OH226912   2.511   0.848   9.670  0.0840  0.1994  0.6597
  906TIP3    H126913   2.480   0.778   9.727 -1.1595  1.0398  1.0418
  906TIP3    H226914   2.431   0.887   9.634  0.8032  0.4037 -0.7946
  907TIP3   OH226915   4.358   6.479  10.942 -0.1443 -0.4962  0.0044
  907TIP3    H126916   4.391   6.462  10.854  0.0097  1.3923 -0.3258
  907TIP3    H226917   4.274   6.522  10.929 -0.1806 -0.3189  0.7926
  908TIP3   OH226918   5.145   2.460  10.576  0.8626  0.1121 -0.9442
  908TIP3    H126919   5.226   2.439  10.530  1.7026  0.3352  0.3711
  908TIP3    H226920   5.134   2.389  10.639  0.4413  0.4713 -0.6014
  909TIP3   OH226921   8.882   2.609   9.397  0.1377  0.1268  0.1323
  909TIP3    H126922   8.854   2.590   9.308  1.9954 -1.1322 -0.2438
  909TIP3    H226923   8.968   2.567   9.404  0.3534  0.8312  2.2825
  910TIP3   OH226924   0.237   2.930   9.351  0.1368 -0.3546  0.3965
  910TIP3    H126925   0.191   3.009   9.380  0.8539  0.1063  0.3191
  910TIP3    H226926   0.322   2.935   9.396 -0.1641 -1.5775  1.1308
  911TIP3   OH226927   1.246   7.348   9.727  0.4685 -0.0846 -0.1630
  911TIP3    H126928   1.270   7.259   9.752  0.0984  0.1736  1.1625
  911TIP3    H226929   1.327   7.386   9.693  0.3948 -1.2315 -1.7522
  912TIP3   OH226930   3.364   6.579  11.087  0.5729 -0.1444  0.2628
  912TIP3    H126931   3.415   6.600  11.165  0.2575 -2.0389  1.0284
  912TIP3    H226932   3.397   6.494  11.058 -1.2475 -0.8447  0.0602
  913TIP3   OH226933   3.110   1.463  10.899  0.3095  0.0670  0.1154
  913TIP3    H126934   3.017   1.440  10.903  0.3172  0.1388  0.8786
  913TIP3    H226935   3.114   1.539  10.841 -0.4457  1.6337  1.9933
  914TIP3   OH226936   2.662   3.302   9.960  0.0459 -0.0049  0.1231
  914TIP3    H126937   2.632   3.331  10.047  1.0167 -0.3173  0.5725
  914TIP3    H226938   2.756   3.289   9.970  0.3283  0.8107 -1.2267
  915TIP3   OH226939   6.931   1.359   9.985  0.0610  0.7179  0.4186
  915TIP3    H126940   6.951   1.267  10.001 -0.4617  0.5012 -0.1332
  915TIP3    H226941   7.005   1.407  10.023  1.1294 -0.0075 -0.6607
  916TIP3   OH226942   4.737   2.813  10.858  0.4102 -0.7051 -0.1626
  916TIP3    H126943   4.642   2.807  10.858  0.2383  0.9560 -1.9165
  916TIP3    H226944   4.766   2.728  10.827 -0.4562 -1.3714  0.7813
  917TIP3   OH226945   7.633   3.384  11.196  0.5217 -0.6586  0.5975
  917TIP3    H126946   7.690   3.415  11.126  0.2116 -1.5920 -0.0813
  917TIP3    H226947   7.565   3.334  11.152 -0.1309 -0.5882  1.5008
  918TIP3   OH226948   5.053   3.222  10.515 -0.3350  0.1067 -0.1552
  918TIP3    H126949   5.125   3.208  10.454  0.8874  3.5102  0.3350
  918TIP3    H226950   5.059   3.148  10.576  1.5715 -0.6505 -1.1784
  919TIP3   OH226951   7.419   3.039  10.153 -0.1404  0.4993 -0.4068
  919TIP3    H126952   7.419   3.133  10.172 -0.6952  0.5014 -0.4113
  919TIP3    H226953   7.390   3.033  10.062 -3.6114  0.1496  0.5913
  920TIP3   OH226954   2.436   2.456  11.125 -0.7418 -0.5899 -0.5691
  920TIP3    H126955   2.438   2.386  11.060 -2.2177 -1.7091  0.5103
  920TIP3    H226956   2.405   2.413  11.205  2.0090  0.4878  1.2159
  921TIP3   OH226957   8.236   4.997  11.045 -0.0205  0.0420 -0.3620
  921TIP3    H126958   8.194   4.911  11.034  0.7191 -0.4536  0.5723
  921TIP3    H226959   8.231   5.037  10.959  2.1640 -2.1091 -1.5864
  922TIP3   OH226960   2.913   5.525  11.193 -0.4246  0.1538  0.8217
  922TIP3    H126961   2.957   5.448  11.231 -0.1799  0.2272  0.6912
  922TIP3    H226962   2.891   5.580  11.268 -1.2423 -0.3721  0.9831
  923TIP3   OH226963   0.079   0.878  11.263  0.7992 -0.2509 -0.3432
  923TIP3    H126964   0.071   0.816  11.335 -0.3587 -0.4687 -0.6396
  923TIP3    H226965   0.037   0.835  11.189 -0.0971  0.9051 -0.5284
  924TIP3   OH226966   7.686   5.646  10.376 -0.4429  0.6656 -0.0647
  924TIP3    H126967   7.735   5.622  10.298 -0.2805  3.1696 -0.8345
  924TIP3    H226968   7.752   5.684  10.435 -0.4122 -1.8762  1.7329
  925TIP3   OH226969   0.314   2.456  10.783  0.0305 -0.3589 -0.1136
  925TIP3    H126970   0.360   2.489  10.705 -0.3296 -0.2780 -0.2949
  925TIP3    H226971   0.384   2.438  10.846  0.2002  2.9081  0.8559
  926TIP3   OH226972   3.524   0.273   9.585 -0.4760  0.6312  0.1436
  926TIP3    H126973   3.492   0.328   9.514  0.9542  0.8006 -0.4095
  926TIP3    H226974   3.484   0.187   9.570 -0.1768  0.6622 -0.8856
  927TIP3   OH226975   3.527   1.468   9.932  0.0672  0.2121 -0.0631
  927TIP3    H126976   3.492   1.557   9.940  0.7836  0.5197 -0.2541
  927TIP3    H226977   3.530   1.452   9.838  0.4978  0.2150 -0.0503
  928TIP3   OH226978   0.543   6.191  10.567 -0.4880  0.3477 -0.7828
  928TIP3    H126979   0.614   6.192  10.631  0.5905 -1.7973 -1.8143
  928TIP3    H226980   0.469   6.151  10.613 -1.1218  2.6490  0.3160
  929TIP3   OH226981   1.012   6.712  10.870  0.0648  0.3325  0.3669
  929TIP3    H126982   0.922   6.694  10.845 -0.0007 -0.8014  1.3413
  929TIP3    H226983   1.036   6.641  10.930  2.2906 -0.5932 -1.4471
  930TIP3   OH226984   4.993   2.975  10.697  0.0009 -0.2516  0.3503
  930TIP3    H126985   4.981   2.929  10.780  0.7062  0.3738  0.8194
  930TIP3    H226986   5.075   2.940  10.662 -0.2902 -0.5049 -0.0694
  931TIP3   OH226987   6.067   7.718  10.611  0.7665  0.4316  0.1416
  931TIP3    H126988   6.018   7.672  10.542 -0.2378  0.2561  0.9490
  931TIP3    H226989   6.071   7.809  10.581  1.3327  0.1474 -0.6784
  932TIP3   OH226990   9.200   2.355  10.086  0.2473  0.1369  0.1193
  932TIP3    H126991   9.190   2.339   9.992  0.9031 -1.8503  0.3380
  932TIP3    H226992   9.195   2.450  10.095  0.2613  0.3760 -1.9303
  933TIP3   OH226993   7.498   1.895  10.555 -0.6039  0.0118 -0.0739
  933TIP3    H126994   7.553   1.949  10.498  1.3632 -1.2651  0.5230
  933TIP3    H226995   7.410   1.905  10.519 -0.2023  2.8949 -0.4963
  934TIP3   OH226996   2.436   3.603   9.937  0.3328 -0.6356  0.1502
  934TIP3    H126997   2.343   3.582   9.930 -0.1847  1.4942  0.1364
  934TIP3    H226998   2.461   3.630   9.848  0.5331  0.3687  0.4950
  935TIP3   OH226999   1.340   0.357  10.592  0.4445 -0.1259 -0.1264
  935TIP3    H127000   1.333   0.267  10.559  1.0714 -0.0181 -0.5782
  935TIP3    H227001   1.318   0.412  10.517 -1.8028  0.1049  0.6376
  936TIP3   OH227002   8.456   9.073  10.419 -0.0345 -0.3762 -0.5176
  936TIP3    H127003   8.528   9.092  10.358 -0.7172  1.2019 -0.8750
  936TIP3    H227004   8.405   9.006  10.374 -0.0850  0.2010 -1.3561
  937TIP3   OH227005   5.865   3.193  11.212  0.6365  0.3869  0.6437
  937TIP3    H127006   5.926   3.267  11.200  0.6614  0.2985  0.2042
  937TIP3    H227007   5.783   3.224  11.174  0.4812  0.4092  1.0019
  938TIP3   OH227008   4.690   0.428   9.460  0.9918 -0.1191 -0.2644
  938TIP3    H127009   4.622   0.393   9.518  0.0580 -2.0040 -2.3083
  938TIP3    H227010   4.763   0.366   9.469  0.9225 -0.3013 -0.9146
  939TIP3   OH227011   7.392   7.150  10.415 -0.1582 -0.0522 -0.2152
  939TIP3    H127012   7.302   7.146  10.447 -0.4051  0.5511 -0.8336
  939TIP3    H227013   7.397   7.081  10.349 -0.1722 -0.0603 -0.2083
  940TIP3   OH227014   4.411   4.087  10.942 -0.0177 -0.2677  0.3781
  940TIP3    H127015   4.333   4.143  10.939 -0.4189 -0.7508  1.3312
  940TIP3    H227016   4.459   4.117  11.019 -1.3104 -2.5658  2.2067
  941TIP3   OH227017   4.457   2.219   9.880 -0.2848  0.4883 -0.1393
  941TIP3    H127018   4.468   2.309   9.849 -1.1180  0.1742 -1.4334
  941TIP3    H227019   4.392   2.181   9.821  0.1294 -0.9990  0.3130
  942TIP3   OH227020   6.793   0.215  10.471  0.4232  0.0790  0.0561
  942TIP3    H127021   6.797   0.308  10.493 -0.7125  0.3454 -0.7791
  942TIP3    H227022   6.786   0.171  10.555  1.5228  0.6944  0.4970
  943TIP3   OH227023   8.317   0.281   9.236 -0.0415 -0.3547  0.2713
  943TIP3    H127024   8.393   0.231   9.205  0.6207  0.6255  0.2736
  943TIP3    H227025   8.353   0.338   9.304 -1.2696 -1.7747  2.2425
  944TIP3   OH227026   5.059   3.873  10.851 -0.4557  0.3782  0.1660
  944TIP3    H127027   5.010   3.926  10.788  1.0879  1.9004  0.1747
  944TIP3    H227028   5.041   3.915  10.936 -0.0858  0.2044  0.3301
  945TIP3   OH227029   7.756   7.101  10.232 -0.3946 -0.7259  0.8293
  945TIP3    H127030   7.839   7.147  10.228  0.1641 -1.7530 -2.4327
  945TIP3    H227031   7.771   7.029  10.294  1.6171 -1.6352 -0.6168
  946TIP3   OH227032   8.982   1.171  10.231 -0.0288 -0.0621 -0.0838
  946TIP3    H127033   9.059   1.225  10.212 -1.1689  2.7295  2.4011
  946TIP3    H227034   8.924   1.186  10.156 -0.0432  1.7105  0.2441
  947TIP3   OH227035   7.043   8.971   9.911 -0.3882  0.3662 -0.1138
  947TIP3    H127036   7.094   8.990   9.990  0.2257  0.3378 -0.4934
  947TIP3    H227037   7.063   9.044   9.852 -1.9880  1.1703  0.2810
  948TIP3   OH227038   7.189   6.365  10.029  0.1510  0.0643  0.2332
  948TIP3    H127039   7.145   6.448  10.010 -0.1881 -0.0419  0.5489
  948TIP3    H227040   7.125   6.315  10.080 -0.5896 -1.3801 -1.9858
  949TIP3   OH227041   6.569   5.418  11.206 -0.6320 -0.6246  0.0633
  949TIP3    H127042   6.480   5.406  11.174 -0.4494 -1.5805 -0.1064
  949TIP3    H227043   6.572   5.510  11.234 -1.1757 -0.0899 -1.4781
  950TIP3   OH227044   6.316   3.876  10.375  0.2009  0.4063 -0.2750
  950TIP3    H127045   6.305   3.971  10.377  0.8903  0.4800  0.3982
  950TIP3    H227046   6.367   3.856  10.453 -0.5942 -0.6147  0.0107
  951TIP3   OH227047   7.328   0.282  10.001  0.5097  0.0153  0.1996
  951TIP3    H127048   7.392   0.334   9.953 -0.1122  1.2134  0.6488
  951TIP3    H227049   7.313   0.206   9.945 -0.7290  1.6880 -1.8868
  952TIP3   OH227050   2.037   3.475  10.988  1.0476  0.2896  0.4795
  952TIP3    H127051   1.981   3.512  10.920  1.3538 -0.9888 -0.5042
  952TIP3    H227052   2.087   3.550  11.021  0.9468  0.9197 -0.7639
  953TIP3   OH227053   1.247   6.795  10.368  0.1903  0.3674  0.3713
  953TIP3    H127054   1.183   6.822  10.434  1.3328  0.4834  1.4575
  953TIP3    H227055   1.250   6.867  10.306  0.4089  1.0381  1.1579
  954TIP3   OH227056   1.142   3.643  11.117 -0.2207 -0.1358 -0.0379
  954TIP3    H127057   1.209   3.577  11.135 -0.1070  0.2688  1.0943
  954TIP3    H227058   1.156   3.667  11.026 -0.1752 -1.5744 -0.4427
  955TIP3   OH227059   4.131   1.155   9.455  0.4029  0.4696 -0.5012
  955TIP3    H127060   4.064   1.206   9.500  0.0825 -1.6609  1.6686
  955TIP3    H227061   4.207   1.158   9.513  0.6624 -0.7215 -0.7398
  956TIP3   OH227062   7.284   6.387  11.046  0.2063 -0.0040  0.2906
  956TIP3    H127063   7.342   6.462  11.063  0.0452 -0.2784  2.2807
  956TIP3    H227064   7.203   6.426  11.013  0.7996  0.5399 -0.5462
  957TIP3   OH227065   8.458   0.228   9.932  0.0398  0.4312  0.2531
  957TIP3    H127066   8.488   0.308   9.888  0.4725 -0.2174 -0.6474
  957TIP3    H227067   8.531   0.202   9.987 -0.3811  1.0572  1.1475
  958TIP3   OH227068   6.642   1.007  11.050 -0.5560 -0.2619  0.2759
  958TIP3    H127069   6.633   1.102  11.062 -0.9423 -0.1121 -1.0383
  958TIP3    H227070   6.735   0.994  11.031 -0.3688 -0.2410  1.1361
  959TIP3   OH227071   5.271   5.346  10.099  0.1175  0.4935 -0.1147
  959TIP3    H127072   5.314   5.306  10.174 -1.6790 -1.2882  0.0329
  959TIP3    H227073   5.222   5.275  10.058 -0.7919  1.9181 -1.6356
  960TIP3   OH227074   5.729   3.848  10.675  0.0694  0.6420  0.2542
  960TIP3    H127075   5.734   3.941  10.693 -0.7431  0.8367 -0.4655
  960TIP3    H227076   5.784   3.835  10.597  1.8356  0.1603  1.5251
  961TIP3   OH227077   5.425   0.565  10.887 -0.1372 -0.7581 -0.0574
  961TIP3    H127078   5.519   0.545  10.888  0.1714  0.5150  2.1223
  961TIP3    H227079   5.421   0.660  10.893 -1.6021 -0.6821 -1.5519
  962TIP3   OH227080   6.310   1.776   9.260  0.3961  0.0749  0.5035
  962TIP3    H127081   6.350   1.784   9.173  1.4341  0.8575  1.0288
  962TIP3    H227082   6.378   1.737   9.315  0.4835  1.4351  1.4213
  963TIP3   OH227083   6.353   1.142  10.069  0.3017 -0.4459  0.0233
  963TIP3    H127084   6.360   1.084  10.145  0.8823  1.0648  1.1828
  963TIP3    H227085   6.431   1.197  10.074  0.8498 -0.9147 -2.2386
  964TIP3   OH227086   7.234   9.090  10.125 -0.0917 -0.3042 -0.1911
  964TIP3    H127087   7.234   8.994  10.120  0.2880 -0.4299  1.5601
  964TIP3    H227088   7.273   9.109  10.210 -2.3681  1.3487  0.5709
  965TIP3   OH227089   0.595   7.686   9.124 -0.4375  0.3294  0.1789
  965TIP3    H127090   0.627   7.746   9.192 -0.0039  0.8172 -0.4418
  965TIP3    H227091   0.514   7.726   9.093 -0.8685 -0.1239  0.7097
  966TIP3   OH227092   5.106   0.005  10.814  0.2953 -0.3555 -0.4225
  966TIP3    H127093   5.018  -0.033  10.819  0.3179 -0.2926  1.0778
  966TIP3    H227094   5.091   0.099  10.802  0.1350 -0.3053  0.1333
  967TIP3   OH227095   5.880   9.125   9.386  0.0840  0.3767 -0.1759
  967TIP3    H127096   5.893   9.057   9.452  1.1271  0.4083 -0.3245
  967TIP3    H227097   5.842   9.079   9.311 -1.3368  0.3833  0.5010
  968TIP3   OH227098   4.640   5.218   9.545  0.4394  0.3993  0.3610
  968TIP3    H127099   4.573   5.257   9.490  0.5356  2.0890  1.3635
  968TIP3    H227100   4.723   5.248   9.508  0.5273  0.9187  0.9596
  969TIP3   OH227101   8.027   0.829  11.253 -0.4548 -0.4933 -0.1870
  969TIP3    H127102   8.098   0.769  11.273 -1.2630 -1.8521 -1.2326
  969TIP3    H227103   8.058   0.914  11.285  1.8799 -0.9201 -1.1055
  970TIP3   OH227104   5.577   4.698  10.171 -0.6733 -0.0711 -0.7373
  970TIP3    H127105   5.644   4.755  10.135 -0.2582  1.0730  1.6872
  970TIP3    H227106   5.495   4.743  10.152 -0.4272  0.7598  0.0895
  971TIP3   OH227107   3.351   6.279  10.153 -0.4325 -0.2816  0.2436
  971TIP3    H127108   3.373   6.200  10.103  0.1809  0.3214 -0.4614
  971TIP3    H227109   3.266   6.260  10.192 -0.8718 -0.8273 -0.9318
  972TIP3   OH227110   2.802   4.846  10.018  0.3902 -0.1597 -0.5072
  972TIP3    H127111   2.868   4.842   9.949  0.0563  0.7114 -0.8983
  972TIP3    H227112   2.718   4.850   9.971  0.1327  0.0007 -0.0485
  973TIP3   OH227113   2.162   8.335   9.891  0.8952  0.1844 -0.6653
  973TIP3    H127114   2.122   8.420   9.870  0.3472  0.7638  2.2438
  973TIP3    H227115   2.091   8.285   9.931  1.5949 -1.1037 -0.9981
  974TIP3   OH227116   9.127   4.552  10.934  0.0750  0.2977  0.0144
  974TIP3    H127117   9.152   4.498  11.009 -2.0734 -0.6901  0.1012
  974TIP3    H227118   9.168   4.509  10.859  1.1980  0.5670  0.4479
  975TIP3   OH227119   3.991   4.133  10.699  0.2820 -0.1280 -0.2432
  975TIP3    H127120   3.899   4.145  10.674  0.0880  0.1116  0.5555
  975TIP3    H227121   4.031   4.089  10.624 -0.1709  0.9698 -1.1619
  976TIP3   OH227122   8.714   7.318  10.047 -0.2331 -0.1234  0.3490
  976TIP3    H127123   8.788   7.296  10.104  1.9575  0.9933 -1.8519
  976TIP3    H227124   8.708   7.413  10.052 -0.3537 -0.0571 -0.8294
  977TIP3   OH227125   5.559   8.959  10.562 -0.7868  0.3531 -0.7374
  977TIP3    H127126   5.624   9.005  10.509 -0.0373 -0.5911 -0.6495
  977TIP3    H227127   5.570   8.996  10.650 -0.4394  0.2592 -0.7417
  978TIP3   OH227128   1.448   9.046  10.675  0.4899  0.6744 -0.5397
  978TIP3    H127129   1.397   9.042  10.594  1.1390 -0.0789 -0.9318
  978TIP3    H227130   1.399   8.991  10.737  0.6177  0.2516 -0.8032
  979TIP3   OH227131   3.978   5.357   9.895  0.3535 -0.1337  0.0312
  979TIP3    H127132   3.884   5.370   9.911 -0.3220 -0.5002 -3.0358
  979TIP3    H227133   3.993   5.265   9.912  0.3634  0.0894  1.3007
  980TIP3   OH227134   6.012   6.399  10.954  0.3067  0.1071 -0.0187
  980TIP3    H127135   5.989   6.354  10.873  0.6961 -0.6106  0.2693
  980TIP3    H227136   5.956   6.359  11.020 -1.4906  2.0558 -0.2412
  981TIP3   OH227137   4.097   4.737   9.680  0.0809  0.1403 -0.8070
  981TIP3    H127138   4.128   4.684   9.754  0.2752 -0.8179 -1.5648
  981TIP3    H227139   4.064   4.673   9.617 -2.9756  1.0434 -0.3014
  982TIP3   OH227140   5.796   8.521  10.115 -0.0663  0.2328 -0.1558
  982TIP3    H127141   5.829   8.497  10.028 -0.3579  0.1663 -0.2481
  982TIP3    H227142   5.875   8.542  10.165  0.1046  0.2741 -0.4370
  983TIP3   OH227143   8.849   6.154  10.107 -0.5178 -0.2150  0.4024
  983TIP3    H127144   8.901   6.086  10.150  1.6088  0.3664 -1.0898
  983TIP3    H227145   8.810   6.111  10.031  0.1575 -0.0048 -0.0781
  984TIP3   OH227146   0.297   1.311   9.506  0.4582  0.3074  0.4712
  984TIP3    H127147   0.345   1.299   9.424  0.2259  1.0147  0.2239
  984TIP3    H227148   0.205   1.319   9.479  0.4066  0.7674  0.7760
  985TIP3   OH227149   6.180   6.757   9.872  0.4519 -0.1520  0.5163
  985TIP3    H127150   6.098   6.708   9.873  0.1405  0.2994 -0.7545
  985TIP3    H227151   6.210   6.751   9.781  2.3315 -1.1120  1.1535
  986TIP3   OH227152   1.779   5.361  10.624  0.0086  0.4802 -0.1257
  986TIP3    H127153   1.808   5.293  10.562  0.4310  0.3672  0.1898
  986TIP3    H227154   1.766   5.315  10.706  1.0370  0.8979  0.2902
  987TIP3   OH227155   3.012   0.715   9.254  0.1764  0.2528  0.5147
  987TIP3    H127156   2.999   0.741   9.163 -1.2414  0.6916  0.8247
  987TIP3    H227157   3.074   0.780   9.289  1.7472 -0.6646 -0.4462
  988TIP3   OH227158   3.334   0.851  10.528  0.2927 -0.2119 -0.2304
  988TIP3    H127159   3.253   0.868  10.577  0.2598 -0.9516 -0.0182
  988TIP3    H227160   3.319   0.892  10.443  0.4436  1.3112  0.4300
  989TIP3   OH227161   2.595   8.223   9.691 -0.3878  0.5514  0.6761
  989TIP3    H127162   2.546   8.156   9.644 -1.3447  0.6777  1.4534
  989TIP3    H227163   2.535   8.297   9.698  0.6747  1.5378 -0.2242
  990TIP3   OH227164   5.428   5.614  10.596  0.0024  0.4937  0.2950
  990TIP3    H127165   5.516   5.580  10.616 -0.5753 -1.0037  0.4126
  990TIP3    H227166   5.402   5.568  10.516 -0.0668  2.0923 -0.6220
  991TIP3   OH227167   8.968   2.987  10.111  0.3075 -0.2342 -0.2137
  991TIP3    H127168   9.002   3.066  10.069 -2.3956  1.6746  0.9072
  991TIP3    H227169   8.878   2.981  10.081  0.1222 -2.3254  0.6001
  992TIP3   OH227170   0.547   9.175   9.680  0.2566  0.4875 -0.4482
  992TIP3    H127171   0.517   9.262   9.705  0.0343  0.5838 -1.0206
  992TIP3    H227172   0.611   9.190   9.611 -1.0220  0.1664 -1.7774
  993TIP3   OH227173   3.070   3.015   9.765 -0.1801  0.1076 -0.4476
  993TIP3    H127174   2.995   2.957   9.751 -1.4189  2.0392 -2.3932
  993TIP3    H227175   3.069   3.074   9.690  2.4411  1.1590  0.2360
  994TIP3   OH227176   3.568   4.375   9.427  0.4736 -0.7364  0.2927
  994TIP3    H127177   3.573   4.335   9.340  1.2487  1.0022 -0.5091
  994TIP3    H227178   3.659   4.393   9.450  0.1264  1.4423  0.1503
  995TIP3   OH227179   7.315   7.635   9.246 -0.0154  0.2901  0.3885
  995TIP3    H127180   7.247   7.648   9.180 -0.2095  2.5843  0.9721
  995TIP3    H227181   7.275   7.580   9.312 -0.3190 -0.7691 -0.6378
  996TIP3   OH227182   9.083   6.551  10.524 -0.0686 -0.0807  0.0447
  996TIP3    H127183   9.060   6.467  10.485  0.8313 -0.4367  0.2597
  996TIP3    H227184   9.142   6.591  10.460 -1.7829  1.1495 -0.8561
  997TIP3   OH227185   7.922   2.409  11.057  0.0249  0.1105  0.4652
  997TIP3    H127186   7.917   2.435  11.149 -0.1166 -1.3095  0.8747
  997TIP3    H227187   7.840   2.363  11.040  0.9528 -1.5384  0.2559
  998TIP3   OH227188   8.481   0.491   9.798  0.2561 -0.0253 -0.0684
  998TIP3    H127189   8.468   0.532   9.712 -2.5019  0.7442  0.6122
  998TIP3    H227190   8.525   0.557   9.851 -2.3521  1.4258  0.4282
  999TIP3   OH227191   0.982   5.918  10.535 -0.2140  0.7060 -0.1184
  999TIP3    H127192   1.002   5.946  10.624 -0.5506 -1.0500  0.5498
  999TIP3    H227193   1.064   5.879  10.504 -0.7353 -0.8410  0.3372
 1000TIP3   OH227194   0.904   1.889  10.888 -0.1113 -0.0505  0.2959
 1000TIP3    H127195   0.822   1.852  10.919 -0.5151  0.9375  0.4447
 1000TIP3    H227196   0.920   1.964  10.946  0.9968 -0.3416  0.3937
 1001TIP3   OH227197   8.508   3.598   9.338  0.0496 -0.2824 -0.0017
 1001TIP3    H127198   8.512   3.534   9.409 -0.6664 -0.0417  0.2614
 1001TIP3    H227199   8.421   3.587   9.300 -0.3005  0.8938  0.3978
 1002TIP3   OH227200   3.482   5.247  10.264 -0.1478  1.0550  0.5162
 1002TIP3    H127201   3.399   5.203  10.281 -0.1011  0.3708 -0.8571
 1002TIP3    H227202   3.477   5.272  10.172  2.2118 -1.4470 -0.4454
 1003TIP3   OH227203   4.580   0.392   9.932 -0.3701 -0.6675 -0.0273
 1003TIP3    H127204   4.516   0.451   9.972  2.3869  2.1524  0.6012
 1003TIP3    H227205   4.641   0.371  10.003  1.2284 -0.4978 -1.2796
 1004TIP3   OH227206   4.130   8.155   9.792  0.1740 -0.1544 -0.4505
 1004TIP3    H127207   4.040   8.124   9.786  0.1370 -0.3811  0.8738
 1004TIP3    H227208   4.151   8.186   9.704 -0.9984 -0.6255 -0.9183
 1005TIP3   OH227209   1.729   2.794  10.433 -0.3266  0.0420 -0.2807
 1005TIP3    H127210   1.783   2.870  10.410 -0.7592  0.5544  0.3695
 1005TIP3    H227211   1.706   2.808  10.525 -1.2001 -0.3965 -0.4272
 1006TIP3   OH227212   5.265   6.178  10.329 -0.7044 -0.6848 -0.0293
 1006TIP3    H127213   5.273   6.237  10.255 -0.9841 -0.5015  0.0814
 1006TIP3    H227214   5.287   6.233  10.405  0.6713 -1.1511 -0.0652
 1007TIP3   OH227215   4.667   8.203   9.526  0.4063  0.2984 -0.0300
 1007TIP3    H127216   4.756   8.169   9.539  0.8639  2.2490  2.9215
 1007TIP3    H227217   4.679   8.278   9.466  0.6410  0.1470 -0.1739
 1008TIP3   OH227218   8.033   1.820   9.717 -0.5497 -0.3204  0.3626
 1008TIP3    H127219   8.087   1.759   9.668  0.0980 -0.9433  1.7892
 1008TIP3    H227220   7.954   1.831   9.664 -0.6006 -2.2457 -0.0150
 1009TIP3   OH227221   5.986   1.998   9.968  0.4008  0.4221 -0.0621
 1009TIP3    H127222   6.020   1.909   9.956  1.3990  0.7085  0.5715
 1009TIP3    H227223   5.995   2.038   9.881  0.7419  0.1764 -0.1428
 1010TIP3   OH227224   4.541   5.561  10.144  0.0464  0.1475 -0.4955
 1010TIP3    H127225   4.496   5.608  10.075 -0.8540  1.3155  0.8244
 1010TIP3    H227226   4.484   5.487  10.166 -0.6511  0.9039  0.3118
 1011TIP3   OH227227   7.339   6.820  10.268  0.4698 -0.3746 -0.2308
 1011TIP3    H127228   7.415   6.870  10.239  1.2074 -0.9540  0.6599
 1011TIP3    H227229   7.372   6.765  10.339 -0.6787 -0.9742 -0.1411
 1012TIP3   OH227230   3.795   6.458  10.750 -0.6351 -0.8564  0.1202
 1012TIP3    H127231   3.871   6.487  10.699  0.0104 -1.1484  0.9022
 1012TIP3    H227232   3.721   6.502  10.709  0.0318 -0.0555 -0.2522
 1013TIP3   OH227233   2.711   2.661  10.619  0.2366  0.6845  0.1265
 1013TIP3    H127234   2.753   2.742  10.648  0.7219  1.4699 -2.5348
 1013TIP3    H227235   2.697   2.673  10.525 -2.2864 -1.1983  0.1532
 1014TIP3   OH227236   0.682   6.401  10.921  0.5029 -0.5983  0.1918
 1014TIP3    H127237   0.627   6.328  10.948 -0.5577 -0.0857 -0.4804
 1014TIP3    H227238   0.632   6.444  10.851  0.8455  1.0770  0.9190
 1015TIP3   OH227239   2.118   6.497  10.938 -0.0490 -0.3433  0.8348
 1015TIP3    H127240   2.201   6.450  10.947 -0.5064 -1.1679  0.7956
 1015TIP3    H227241   2.050   6.430  10.951 -0.7417  0.7116  3.2331
 1016TIP3   OH227242   2.309   8.596   8.993  0.1334  0.1781  0.3950
 1016TIP3    H127243   2.300   8.619   9.085  1.4025 -0.3977  0.6807
 1016TIP3    H227244   2.245   8.526   8.980  1.2132 -1.0224  1.3210
 1017TIP3   OH227245   8.507   1.512   8.978 -0.1074  0.4624  0.2151
 1017TIP3    H127246   8.594   1.496   9.016 -0.0091  1.1119  0.2607
 1017TIP3    H227247   8.520   1.501   8.884 -0.0421  0.2785  0.2438
 1018TIP3   OH227248   5.053   0.598  11.332 -0.2860  0.5711 -0.0795
 1018TIP3    H127249   5.135   0.647  11.322  0.6402 -0.8297  0.4458
 1018TIP3    H227250   5.080   0.507  11.344 -1.7642  0.3893  2.8569
 1019TIP3   OH227251   4.404   5.022  11.041  0.1565 -0.1950  0.8492
 1019TIP3    H127252   4.316   4.986  11.045  0.9435 -2.4930 -0.6607
 1019TIP3    H227253   4.404   5.078  10.963  0.1803 -0.7264  0.4597
 1020TIP3   OH227254   8.995   7.911  10.273 -0.4616 -0.0725 -0.2683
 1020TIP3    H127255   9.038   7.895  10.357  2.0779  0.1694 -1.4262
 1020TIP3    H227256   9.037   7.991  10.240 -1.8286  0.1679 -1.5119
 1021TIP3   OH227257   5.566   8.694  10.476  0.5852  0.0559 -0.3008
 1021TIP3    H127258   5.532   8.653  10.556  0.9804  0.0841 -0.1153
 1021TIP3    H227259   5.545   8.787  10.486  1.5870  0.2336  0.2768
 1022TIP3   OH227260   0.134   1.154  11.164  0.1733 -0.0651 -0.3546
 1022TIP3    H127261   0.136   1.065  11.200 -0.9620  0.3996  0.9405
 1022TIP3    H227262   0.077   1.146  11.087 -0.9201 -0.2491  0.4465
 1023TIP3   OH227263   1.016   7.406   9.867  0.3020  0.4414  0.3541
 1023TIP3    H127264   1.000   7.497   9.891  0.9436  1.1511 -1.6482
 1023TIP3    H227265   1.103   7.408   9.825  1.2706 -1.4792  2.1113
 1024TIP3   OH227266   6.139   1.753  10.471 -0.0694 -0.3906  0.2016
 1024TIP3    H127267   6.170   1.839  10.499  1.1646 -0.0333 -2.0591
 1024TIP3    H227268   6.199   1.726  10.402 -2.5048 -1.4422 -1.6993
 1025TIP3   OH227269   1.700   3.775   9.436  0.3297  0.1711  0.9006
 1025TIP3    H127270   1.785   3.813   9.411 -0.7889  1.4486 -1.2674
 1025TIP3    H227271   1.677   3.819   9.517  0.4576  1.9845 -0.0018
 1026TIP3   OH227272   1.217   6.195  10.690  0.1766 -0.2077  0.1881
 1026TIP3    H127273   1.210   6.287  10.718  0.4107 -0.3298  0.6562
 1026TIP3    H227274   1.309   6.186  10.664  0.1564 -0.3121  0.1569
 1027TIP3   OH227275   2.680   4.326   9.466  0.4615  0.0709 -0.0046
 1027TIP3    H127276   2.743   4.290   9.404 -0.6975 -1.0157 -0.6220
 1027TIP3    H227277   2.601   4.342   9.414  0.6057  2.6979  0.4585
 1028TIP3   OH227278   7.258   2.441  11.211 -0.5035  0.3505 -0.5112
 1028TIP3    H127279   7.163   2.440  11.218 -0.4394 -0.2481  0.4960
 1028TIP3    H227280   7.289   2.455  11.301  0.3597 -0.6392 -0.6297
 1029TIP3   OH227281   2.868   6.025  10.600 -0.4780 -0.2768 -0.1243
 1029TIP3    H127282   2.867   6.048  10.507  3.1943  2.0478  0.2334
 1029TIP3    H227283   2.858   6.109  10.645  0.7862 -0.9822  1.5168
 1030TIP3   OH227284   2.464   7.395  10.379  0.3095 -0.9625 -0.2461
 1030TIP3    H127285   2.514   7.324  10.420 -1.2422 -1.9621  0.0005
 1030TIP3    H227286   2.376   7.358  10.366 -0.3902  0.7425 -0.6103
 1031TIP3   OH227287   8.245   6.417   9.980 -0.3425  0.5257  0.1120
 1031TIP3    H127288   8.175   6.482   9.972 -1.9064 -1.2723 -2.0897
 1031TIP3    H227289   8.309   6.442   9.914 -1.0672 -0.1937 -0.9161
 1032TIP3   OH227290   4.701   9.109   9.279  0.3411 -0.0952 -0.2341
 1032TIP3    H127291   4.635   9.056   9.324  1.6996 -0.6310  1.2466
 1032TIP3    H227292   4.715   9.184   9.338  1.5834 -0.3859 -0.1391
 1033TIP3   OH227293   7.642   0.403   9.933  0.4766  0.3208 -0.1389
 1033TIP3    H127294   7.574   0.412   9.866  0.0293  0.4809  0.3288
 1033TIP3    H227295   7.724   0.422   9.887  0.3272 -0.8683 -0.9554
 1034TIP3   OH227296   2.861   2.127   9.852  0.5415 -0.2247  0.4643
 1034TIP3    H127297   2.861   2.222   9.836 -2.7332 -0.2439 -0.3630
 1034TIP3    H227298   2.891   2.088   9.770 -1.4542  0.0853 -0.4757
 1035TIP3   OH227299   7.377   7.545   9.795 -0.4148  0.0738  0.0442
 1035TIP3    H127300   7.363   7.602   9.720  0.6234  0.4141  0.1005
 1035TIP3    H227301   7.428   7.472   9.760  2.5297  1.5837  0.9261
 1036TIP3   OH227302   2.848   8.347   9.673 -0.1507  0.0320  0.3805
 1036TIP3    H127303   2.758   8.328   9.699  0.8883 -1.2699  3.4984
 1036TIP3    H227304   2.873   8.273   9.618 -1.0824  0.6729 -0.9654
 1037TIP3   OH227305   1.437   7.036  10.655  0.2193 -0.2855 -0.0006
 1037TIP3    H127306   1.364   7.098  10.649  1.1683  0.8675  0.0909
 1037TIP3    H227307   1.440   7.012  10.747 -1.6710 -2.4061 -0.3986
 1038TIP3   OH227308   0.947   1.855   9.910  0.7372 -0.5508 -0.5812
 1038TIP3    H127309   0.980   1.784   9.965  2.1558 -0.6935 -1.5687
 1038TIP3    H227310   0.955   1.933   9.964 -0.4198 -1.0481  0.3558
 1039TIP3   OH227311   0.492   2.936   9.517  0.3441  0.3703  0.1923
 1039TIP3    H127312   0.539   3.005   9.564  1.7582 -0.0438 -0.5895
 1039TIP3    H227313   0.495   2.860   9.576  0.6099  0.3543  0.1560
 1040TIP3   OH227314   2.853   0.681   9.796  0.5227  0.1840  0.1639
 1040TIP3    H127315   2.886   0.624   9.727 -0.7652 -1.3399  0.7643
 1040TIP3    H227316   2.932   0.719   9.835  1.4441 -1.5041  0.0140
 1041TIP3   OH227317   5.769   7.235   9.578 -0.0774  0.0660 -0.4806
 1041TIP3    H127318   5.769   7.313   9.632 -1.0242  0.6673 -1.3150
 1041TIP3    H227319   5.851   7.190   9.600 -0.5609  0.1428  1.6081
 1042TIP3   OH227320   0.545   2.599  11.432  0.0985 -0.0532  0.1866
 1042TIP3    H127321   0.498   2.653  11.497 -0.8972 -0.2600 -0.3367
 1042TIP3    H227322   0.478   2.538  11.401  0.5881 -0.0005 -0.9843
 1043TIP3   OH227323   6.772   5.906  10.623  0.0387  0.1850 -0.1238
 1043TIP3    H127324   6.775   5.848  10.547  0.5297  1.7522 -1.3510
 1043TIP3    H227325   6.731   5.854  10.692  1.0092 -1.7903 -0.9886
 1044TIP3   OH227326   0.957   0.704   9.332  0.7038 -0.2803 -0.3480
 1044TIP3    H127327   1.047   0.713   9.361  0.5392  0.3105  0.0060
 1044TIP3    H227328   0.956   0.745   9.245 -0.2224  4.4624  1.5976
 1045TIP3   OH227329   5.337   8.307  10.071 -0.0654  0.3323  0.4402
 1045TIP3    H127330   5.323   8.385  10.126 -0.5876  0.6609 -0.1573
 1045TIP3    H227331   5.408   8.332  10.012  0.3739  0.0387  0.8307
 1046TIP3   OH227332   3.475   1.320  10.884  0.1373  0.5529 -0.1901
 1046TIP3    H127333   3.494   1.273  10.802  2.2284 -0.4407  0.7897
 1046TIP3    H227334   3.558   1.360  10.908 -0.9134  2.4021  0.5218
 1047TIP3   OH227335   4.415   3.902   9.652 -0.1380  0.0178  0.2051
 1047TIP3    H127336   4.468   3.836   9.606 -0.8325 -0.9483  0.7683
 1047TIP3    H227337   4.475   3.941   9.716  0.9672  1.6646 -1.7009
 1048TIP3   OH227338   6.628   6.362   9.888 -0.7092 -0.2255  0.1680
 1048TIP3    H127339   6.720   6.365   9.912 -0.7707 -0.3341  0.4273
 1048TIP3    H227340   6.605   6.269   9.894 -0.3363 -0.4932 -1.8188
 1049TIP3   OH227341   2.272   7.389  10.970  0.0421 -0.3216 -0.0645
 1049TIP3    H127342   2.333   7.461  10.984 -0.6934 -0.1115  2.4649
 1049TIP3    H227343   2.325   7.321  10.929  1.8464  0.0837  1.4308
 1050TIP3   OH227344   0.395   0.204   9.627 -0.6882 -0.2660 -0.7345
 1050TIP3    H127345   0.454   0.203   9.552 -0.3404 -2.0080 -0.4633
 1050TIP3    H227346   0.396   0.296   9.656  3.9099 -0.5117  0.7694
 1051TIP3   OH227347   8.571   2.188  11.007 -0.2103 -0.1542  0.0273
 1051TIP3    H127348   8.493   2.240  10.987  0.1753 -0.5514 -3.0637
 1051TIP3    H227349   8.541   2.097  11.005  0.2657 -0.3071 -1.1484
 1052TIP3   OH227350   7.011   0.687   9.958 -0.5787  0.1543  0.0970
 1052TIP3    H127351   6.943   0.687   9.890 -1.2609  1.5029  0.7357
 1052TIP3    H227352   7.006   0.600   9.996 -1.8141  0.1577 -0.0190
 1053TIP3   OH227353   7.649   4.300  11.265  0.2481  0.2545 -0.2705
 1053TIP3    H127354   7.712   4.228  11.278 -2.2182 -1.8389  1.0454
 1053TIP3    H227355   7.669   4.362  11.335  0.1338 -0.9847  0.9056
 1054TIP3   OH227356   6.144   3.987   9.727 -0.3319  0.0701  0.0074
 1054TIP3    H127357   6.074   3.938   9.684  1.7610 -2.3451 -0.8895
 1054TIP3    H227358   6.186   3.923   9.785  2.6078  0.6403 -1.2922
 1055TIP3   OH227359   8.946   2.060   9.925  0.0341 -0.6058  0.3529
 1055TIP3    H127360   8.978   1.983   9.971 -0.3980 -1.8369 -1.2902
 1055TIP3    H227361   8.852   2.061   9.942  0.2056  0.3230  1.3874
 1056TIP3   OH227362   6.439   1.148   9.602  0.1272 -0.4406  0.0369
 1056TIP3    H127363   6.445   1.136   9.696 -0.2817 -0.5564  0.0546
 1056TIP3    H227364   6.388   1.072   9.572  0.9999 -0.8653 -0.3862
 1057TIP3   OH227365   5.527   2.343  11.456 -0.2342 -0.2718  0.0476
 1057TIP3    H127366   5.503   2.342  11.364 -0.9303 -0.2329  0.2253
 1057TIP3    H227367   5.535   2.436  11.478  0.2599 -0.2880 -0.0541
 1058TIP3   OH227368   7.693   2.247  11.029  0.5116  0.1320 -0.4154
 1058TIP3    H127369   7.727   2.170  11.075  0.0117  0.6356  0.8437
 1058TIP3    H227370   7.618   2.214  10.980  0.7692 -0.3252 -0.5098
 1059TIP3   OH227371   5.836   7.872  11.107 -0.4279 -0.0806 -0.3678
 1059TIP3    H127372   5.897   7.883  11.033 -0.9786 -0.6274 -0.9040
 1059TIP3    H227373   5.753   7.905  11.075 -0.3988  0.8126  0.4218
 1060TIP3   OH227374   2.588   5.697  10.473  0.2217 -0.4052  0.4406
 1060TIP3    H127375   2.558   5.608  10.454 -0.7406  0.5086 -2.9843
 1060TIP3    H227376   2.507   5.746  10.490  0.6773  0.0178  1.4685
 1061TIP3   OH227377   1.494   3.167  10.645  0.3288  0.3728 -0.1516
 1061TIP3    H127378   1.411   3.181  10.690 -0.5402 -0.0006 -1.5571
 1061TIP3    H227379   1.482   3.208  10.559  1.0275 -1.0342 -0.9565
 1062TIP3   OH227380   0.468   4.490   9.096 -0.0588  0.3231  0.9631
 1062TIP3    H127381   0.497   4.403   9.127 -0.0317  0.5891  1.7067
 1062TIP3    H227382   0.378   4.498   9.127 -0.4211  0.1433 -0.0045
 1063TIP3   OH227383   6.523   4.089   9.687  0.2194  0.2120  0.1094
 1063TIP3    H127384   6.498   4.121   9.600 -0.9892 -0.0976  0.3201
 1063TIP3    H227385   6.611   4.123   9.701  0.3912  0.3510 -1.1917
 1064TIP3   OH227386   8.320   1.666  10.718  0.6739 -0.3010 -0.2983
 1064TIP3    H127387   8.264   1.741  10.737  0.4697 -0.3262 -0.8057
 1064TIP3    H227388   8.388   1.700  10.660  1.6324 -0.0944  0.8960
 1065TIP3   OH227389   6.679   5.847   9.803  0.1606 -0.1905 -0.0151
 1065TIP3    H127390   6.620   5.814   9.735  0.1666 -0.8006  0.2778
 1065TIP3    H227391   6.722   5.923   9.762  0.0907 -0.4882 -0.6540
 1066TIP3   OH227392   4.794   1.851   9.267 -0.3825 -0.5253 -0.9252
 1066TIP3    H127393   4.720   1.793   9.286 -0.2188  0.2211  2.6465
 1066TIP3    H227394   4.871   1.797   9.284 -0.1459 -0.3630 -1.4598
 1067TIP3   OH227395   0.273   2.805  11.300 -0.1797  0.0244  0.1453
 1067TIP3    H127396   0.355   2.854  11.292  0.1173 -0.4556  0.2124
 1067TIP3    H227397   0.208   2.870  11.326  0.2541  0.3448  0.4242
 1068TIP3   OH227398   8.689   6.616   9.579  0.0379 -0.1577 -0.0595
 1068TIP3    H127399   8.765   6.673   9.569 -0.4369  0.3579 -0.7647
 1068TIP3    H227400   8.725   6.534   9.613  1.1199 -0.4338 -1.7776
 1069TIP3   OH227401   0.326   7.735   9.490  0.9703 -0.3545  0.3717
 1069TIP3    H127402   0.355   7.747   9.580  0.8723 -1.7627  0.6135
 1069TIP3    H227403   0.344   7.643   9.470  0.9850 -0.0757 -1.0529
 1070TIP3   OH227404   4.241   3.891  10.122  0.0209  0.2882  0.2655
 1070TIP3    H127405   4.287   3.838  10.057  1.7916  2.4438 -0.3550
 1070TIP3    H227406   4.281   3.866  10.205  0.4014  0.2235  0.0652
 1071TIP3   OH227407   8.070   7.504  10.154  0.0720 -0.2055 -0.0827
 1071TIP3    H127408   8.028   7.517  10.069  0.4886 -2.5462 -0.6988
 1071TIP3    H227409   8.161   7.481  10.133  0.0523 -1.3233  0.9715
 1072TIP3   OH227410   8.916   1.692   9.946  0.1251  0.3556 -0.3261
 1072TIP3    H127411   8.962   1.746  10.010 -1.6834 -0.0876  1.4283
 1072TIP3    H227412   8.828   1.681   9.982 -0.4112 -1.4474 -2.0091
 1073TIP3   OH227413   7.989   7.938   9.622  0.7288  0.2297 -0.5149
 1073TIP3    H127414   7.988   7.976   9.534  0.8853  0.5984 -0.3596
 1073TIP3    H227415   7.954   7.850   9.611 -1.1080  0.9467 -0.6153
 1074TIP3   OH227416   8.633   5.286  10.955  0.1944  0.2833 -0.1764
 1074TIP3    H127417   8.624   5.291  10.860 -2.8835  2.2916  0.0790
 1074TIP3    H227418   8.579   5.212  10.980  1.1717 -0.3734  0.0156
 1075TIP3   OH227419   4.561   6.152  10.201  0.6677  0.6057  0.3948
 1075TIP3    H127420   4.495   6.174  10.136  0.6912 -0.7044 -0.1016
 1075TIP3    H227421   4.521   6.174  10.285 -0.5345 -0.4163  0.1237
 1076TIP3   OH227422   7.234   8.711   9.536 -0.0457  0.1646 -0.7514
 1076TIP3    H127423   7.284   8.786   9.569 -0.6786  0.2594  0.0266
 1076TIP3    H227424   7.296   8.663   9.481  1.4573 -0.6271  1.4843
 1077TIP3   OH227425   5.697   1.475  10.891  0.0795  0.3352 -0.1620
 1077TIP3    H127426   5.602   1.473  10.901 -0.3072 -1.3792 -3.0331
 1077TIP3    H227427   5.727   1.397  10.936 -0.0109  0.2145 -0.3109
 1078TIP3   OH227428   7.319   4.382  11.397  0.1468 -0.1237 -0.1409
 1078TIP3    H127429   7.316   4.299  11.348 -1.5730 -0.7983  1.0114
 1078TIP3    H227430   7.260   4.440  11.348  0.9837  0.3012 -0.6780
 1079TIP3   OH227431   5.846   5.828   9.713 -0.6130 -0.2047 -0.3927
 1079TIP3    H127432   5.820   5.808   9.803 -2.8921  0.0133 -0.9384
 1079TIP3    H227433   5.882   5.745   9.680 -1.0325 -0.6827  0.3080
 1080TIP3   OH227434   7.262   4.767  10.379 -0.2256 -0.3043  0.2834
 1080TIP3    H127435   7.201   4.837  10.359  1.2638  0.9904  0.0742
 1080TIP3    H227436   7.237   4.696  10.319  0.1904  1.2147 -1.7920
 1081TIP3   OH227437   8.611   1.081   9.257  0.0550  0.1709  0.3220
 1081TIP3    H127438   8.611   1.175   9.240 -1.0507 -0.0239 -0.9754
 1081TIP3    H227439   8.631   1.042   9.172 -0.4127 -0.7697  0.6336
 1082TIP3   OH227440   3.210   9.099   9.500 -0.0363 -0.4071  0.3901
 1082TIP3    H127441   3.163   9.089   9.582  0.4429 -0.5475  0.6551
 1082TIP3    H227442   3.146   9.078   9.432 -0.3573 -0.5744  0.7407
 1083TIP3   OH227443   5.248   0.527  10.338  0.1851 -0.0936  0.8479
 1083TIP3    H127444   5.291   0.607  10.308  1.4620 -0.2517  2.1727
 1083TIP3    H227445   5.159   0.533  10.303  1.4353 -0.1915 -2.7871
 1084TIP3   OH227446   6.912   5.175   9.833 -0.0076  0.4281 -0.6214
 1084TIP3    H127447   6.953   5.109   9.889 -0.7734  0.5924  0.1476
 1084TIP3    H227448   6.902   5.131   9.748 -0.1294 -0.3073 -0.2374
 1085TIP3   OH227449   2.637   8.546   9.469 -0.3733  0.2670  0.2812
 1085TIP3    H127450   2.654   8.457   9.440 -0.5207 -0.0081  1.0219
 1085TIP3    H227451   2.573   8.537   9.539 -0.2293  0.9352  0.5105
 1086TIP3   OH227452   2.730   3.347  10.597  0.5730 -0.4414  0.5710
 1086TIP3    H127453   2.750   3.428  10.551 -0.0456 -0.6963 -0.1618
 1086TIP3    H227454   2.793   3.284  10.563  0.3179 -0.5518  0.3019
 1087TIP3   OH227455   5.735   2.262  11.207 -0.1591 -0.2231  0.3582
 1087TIP3    H127456   5.640   2.264  11.209 -0.1692 -0.5735  2.7143
 1087TIP3    H227457   5.762   2.349  11.235  0.2292 -0.1663 -0.1708
 1088TIP3   OH227458   5.790   3.962  10.044 -0.4658 -0.1099  0.3359
 1088TIP3    H127459   5.868   3.971  10.098  0.1840 -1.8990 -0.2323
 1088TIP3    H227460   5.774   4.050  10.010  2.8348 -0.1089 -1.6183
 1089TIP3   OH227461   4.364   1.126   9.617 -0.6514  0.0686 -0.5394
 1089TIP3    H127462   4.429   1.058   9.598 -0.6230  0.5891 -2.6061
 1089TIP3    H227463   4.387   1.157   9.704  2.8418  1.2121 -1.6801
 1090TIP3   OH227464   4.785   4.924  11.231 -0.3112 -0.0613 -0.4161
 1090TIP3    H127465   4.859   4.912  11.172 -0.2047 -1.5495 -0.0451
 1090TIP3    H227466   4.808   5.000  11.284  1.0450 -0.5970 -0.1984
 1091TIP3   OH227467   2.072   7.999  10.461 -0.5005 -0.0990  0.5572
 1091TIP3    H127468   2.115   8.085  10.457 -1.8949  0.6266  0.3938
 1091TIP3    H227469   2.136   7.938  10.424  0.1200  1.0415 -0.3216
 1092TIP3   OH227470   0.677   7.822   9.346 -0.3568 -0.0976 -0.3661
 1092TIP3    H127471   0.747   7.841   9.409 -0.8644 -0.4679  0.3358
 1092TIP3    H227472   0.632   7.905   9.333  0.2323  0.1446 -0.8356
 1093TIP3   OH227473   5.836   1.468   9.780 -0.1160 -0.2634  0.1830
 1093TIP3    H127474   5.908   1.438   9.724 -0.3162  1.0822 -0.8598
 1093TIP3    H227475   5.759   1.467   9.723 -0.5931 -0.1273  0.8154
 1094TIP3   OH227476   6.456   2.205  11.179 -0.3300 -0.1328 -0.0920
 1094TIP3    H127477   6.496   2.274  11.126 -0.5781 -0.2234 -0.4009
 1094TIP3    H227478   6.518   2.191  11.250 -0.6388  0.9644  0.4181
 1095TIP3   OH227479   7.304   3.127  11.356 -0.0242  0.3381  0.1988
 1095TIP3    H127480   7.270   3.202  11.406 -0.4113  0.2017  0.1435
 1095TIP3    H227481   7.229   3.068  11.348  0.7551 -0.9836  1.9475
 1096TIP3   OH227482   3.596   3.930   8.995 -0.2891  0.0148 -0.7445
 1096TIP3    H127483   3.516   3.975   8.968 -0.6624 -0.8754 -1.1931
 1096TIP3    H227484   3.565   3.849   9.036  0.3443  0.3670  0.4862
 1097TIP3   OH227485   4.188   2.132  10.293 -0.6107 -0.0013 -0.1037
 1097TIP3    H127486   4.155   2.209  10.247 -0.9949  0.2131  0.5168
 1097TIP3    H227487   4.132   2.124  10.370  0.2484 -0.1332  0.5240
 1098TIP3   OH227488   3.722   6.745  10.390 -0.4341 -0.7181 -0.0461
 1098TIP3    H127489   3.715   6.827  10.341 -2.5267 -1.5580 -1.2746
 1098TIP3    H227490   3.767   6.686  10.331 -1.9339 -1.3957 -0.5611
 1099TIP3   OH227491   3.336   5.805   9.578 -0.4185  1.0888  0.2684
 1099TIP3    H127492   3.314   5.787   9.486 -1.2015 -0.1540  0.6689
 1099TIP3    H227493   3.293   5.734   9.627  0.1539  1.6171  1.5781
 1100TIP3   OH227494   4.880   1.520  10.670  0.3267  1.0056  0.0794
 1100TIP3    H127495   4.942   1.478  10.611 -1.3685 -0.9087 -0.4508
 1100TIP3    H227496   4.932   1.546  10.746  2.2329  2.0111 -1.4857
 1101TIP3   OH227497   6.195   2.668  10.831 -0.3616 -0.2431 -0.3272
 1101TIP3    H127498   6.132   2.733  10.860 -1.2978 -0.6816 -1.2918
 1101TIP3    H227499   6.146   2.586  10.830  0.7811 -0.9935  0.8485
 1102TIP3   OH227500   7.054   5.968   9.729  0.4080  0.1886 -0.0478
 1102TIP3    H127501   7.074   5.973   9.823  2.3319 -0.9226 -0.3435
 1102TIP3    H227502   7.132   6.004   9.686  0.7365 -1.8014 -1.2461
 1103TIP3   OH227503   2.137   3.932  10.474 -0.2328  0.0995  0.1019
 1103TIP3    H127504   2.156   3.986  10.551 -2.1728 -0.3533  0.9515
 1103TIP3    H227505   2.083   3.989  10.419 -2.9424 -1.0826  1.3500
 1104TIP3   OH227506   0.179   4.293  10.490  0.1632  0.3716 -0.7005
 1104TIP3    H127507   0.092   4.315  10.525  0.0399 -0.1761 -0.6504
 1104TIP3    H227508   0.231   4.372  10.505 -0.3729  0.7685 -0.8891
 1105TIP3   OH227509   5.725   7.153  10.760 -0.1434  0.4666  0.1954
 1105TIP3    H127510   5.630   7.163  10.747 -0.2816 -0.9776 -0.0373
 1105TIP3    H227511   5.757   7.243  10.771 -1.4167  1.0332 -0.5355
 1106TIP3   OH227512   3.306   8.797   9.543  0.1401 -0.3612  0.0422
 1106TIP3    H127513   3.295   8.890   9.527  0.1673 -0.2611  0.5861
 1106TIP3    H227514   3.291   8.756   9.458  1.6498  0.2528 -0.5689
 1107TIP3   OH227515   6.303   5.365  11.150  0.0002  0.0490  0.2318
 1107TIP3    H127516   6.309   5.269  11.150  0.8031  0.0693 -1.0440
 1107TIP3    H227517   6.252   5.385  11.072  1.8276  0.7160 -0.8498
 1108TIP3   OH227518   6.705   5.543   9.647  0.0601 -0.0837  0.0007
 1108TIP3    H127519   6.616   5.578   9.648  0.3435  0.6569  0.9461
 1108TIP3    H227520   6.750   5.596   9.580  0.1479  0.5061  0.5151
 1109TIP3   OH227521   0.742   7.979  10.077 -0.1366  0.1800  0.3783
 1109TIP3    H127522   0.736   7.928   9.996  0.8367 -1.2170  1.1273
 1109TIP3    H227523   0.806   7.930  10.130 -0.9032  0.9500  2.0593
 1110TIP3   OH227524   3.472   1.896   9.621 -0.3010 -0.0961 -0.5190
 1110TIP3    H127525   3.499   1.952   9.548 -0.8875 -2.0559 -2.3135
 1110TIP3    H227526   3.377   1.904   9.624 -0.2361  0.6341  0.6639
 1111TIP3   OH227527   4.119   0.974   9.911  0.0263  0.3228 -0.4115
 1111TIP3    H127528   4.141   1.067   9.921  1.9725 -0.2865  2.0055
 1111TIP3    H227529   4.056   0.957   9.981 -0.9412 -0.0360 -1.3484
 1112TIP3   OH227530   0.696   1.950  11.616  0.2540 -0.0674 -0.0640
 1112TIP3    H127531   0.656   2.015  11.675 -0.8228  0.6705 -1.5479
 1112TIP3    H227532   0.628   1.883  11.605  0.8265 -0.7231  0.3099
 1113TIP3   OH227533   9.133   5.630  10.850 -0.6959  0.3795  0.0406
 1113TIP3    H127534   9.117   5.683  10.928 -1.9219  0.6560 -0.3828
 1113TIP3    H227535   9.222   5.596  10.862 -0.3763  1.4830  0.9250
 1114TIP3   OH227536   8.995   1.011   8.969  0.0839 -0.0677  0.0574
 1114TIP3    H127537   9.027   0.954   8.899  1.7512  0.5438  0.2605
 1114TIP3    H227538   8.945   0.953   9.026 -0.4155 -0.7874 -1.0657
 1115TIP3   OH227539   7.970   6.871   9.978 -0.2517 -0.1765  0.4167
 1115TIP3    H127540   8.005   6.783   9.963  0.2683  0.3258 -1.5989
 1115TIP3    H227541   8.018   6.903  10.054 -1.7177 -2.2390  2.3594
 1116TIP3   OH227542   2.815   5.761  10.683  0.6047 -0.3119  0.0101
 1116TIP3    H127543   2.827   5.846  10.640  1.4911  0.2088  1.2311
 1116TIP3    H227544   2.902   5.740  10.718 -0.1437 -0.5216  1.8472
 1117TIP3   OH227545   2.101   1.929  10.066  0.0800  0.9693 -0.1410
 1117TIP3    H127546   2.184   1.902  10.026  0.6870  0.2080  1.5285
 1117TIP3    H227547   2.036   1.869  10.029  0.9684 -1.1208  1.4471
 1118TIP3   OH227548   7.539   1.456  10.418  0.2109  0.1107  0.5196
 1118TIP3    H127549   7.498   1.370  10.429  1.6980 -0.8170 -0.8624
 1118TIP3    H227550   7.632   1.437  10.413  0.4170  1.2768 -3.7377
 1119TIP3   OH227551   0.453   2.874  10.160  0.1917  0.0614 -0.0932
 1119TIP3    H127552   0.458   2.858  10.066 -1.4958  0.6018 -0.3109
 1119TIP3    H227553   0.494   2.960  10.173  1.0191 -0.3064 -0.2237
 1120TIP3   OH227554   3.901   6.641  11.131 -0.4216  0.2308  0.2921
 1120TIP3    H127555   3.879   6.729  11.101 -0.3040  0.5548  1.1046
 1120TIP3    H227556   3.993   6.648  11.159 -0.2050 -0.3259 -0.2648
 1121TIP3   OH227557   1.992   6.657  10.405  0.2425 -0.3109 -0.4189
 1121TIP3    H127558   2.069   6.703  10.438 -0.3389  0.7155 -0.4466
 1121TIP3    H227559   1.918   6.712  10.431 -0.3684 -0.4295 -1.7900
 1122TIP3   OH227560   1.736   8.223   9.769  0.3871 -0.5665 -0.0546
 1122TIP3    H127561   1.702   8.291   9.711  3.2175  0.3223 -0.8231
 1122TIP3    H227562   1.722   8.142   9.722 -0.6108 -0.2525 -0.3246
 1123TIP3   OH227563   5.644   0.358  10.543 -0.6239 -0.1863 -0.2349
 1123TIP3    H127564   5.621   0.394  10.629  0.2606 -0.7240  0.2375
 1123TIP3    H227565   5.620   0.265  10.549  0.1937 -0.4033 -0.2766
 1124TIP3   OH227566   4.589   8.943  10.445 -0.1096  0.3622 -0.0284
 1124TIP3    H127567   4.655   9.000  10.406 -0.2585  0.0680 -0.7259
 1124TIP3    H227568   4.506   8.978  10.415 -0.2373  0.3003  0.2553
 1125TIP3   OH227569   2.671   4.552  10.760  0.6795 -0.0824  0.1878
 1125TIP3    H127570   2.637   4.593  10.839 -0.2070 -0.0142 -0.2060
 1125TIP3    H227571   2.625   4.468  10.755 -2.0148  1.3170 -2.0316
 1126TIP3   OH227572   4.540   8.201  10.079 -0.0066 -0.5530 -0.6548
 1126TIP3    H127573   4.606   8.191  10.010 -0.4103 -0.2549 -1.0829
 1126TIP3    H227574   4.550   8.291  10.109  0.2086 -0.6995 -0.2764
 1127TIP3   OH227575   1.763   0.401   9.653 -0.0271 -0.0206  0.0283
 1127TIP3    H127576   1.830   0.339   9.680 -0.1096  0.2181  0.8357
 1127TIP3    H227577   1.720   0.360   9.579  0.2472 -0.6996  0.2345
 1128TIP3   OH227578   5.050   8.437  11.082  0.1659  0.0767 -0.3989
 1128TIP3    H127579   5.030   8.490  11.005 -0.6573  0.0287 -0.2305
 1128TIP3    H227580   5.128   8.477  11.120  0.5911  0.0931 -1.2555
 1129TIP3   OH227581   5.849   5.804  11.034  0.5666 -0.5812  0.4678
 1129TIP3    H127582   5.775   5.837  10.982  1.4446  0.0395 -0.4359
 1129TIP3    H227583   5.813   5.793  11.122 -1.0548 -1.9121 -0.2919
 1130TIP3   OH227584   3.425   5.248  10.725  0.1029 -0.0140 -0.5803
 1130TIP3    H127585   3.453   5.333  10.758  0.0758 -0.3515  0.3612
 1130TIP3    H227586   3.502   5.191  10.737 -0.1054 -0.2888 -0.5373
 1131TIP3   OH227587   5.002   5.075  10.797  0.2344 -0.0126 -0.0935
 1131TIP3    H127588   5.033   5.138  10.732  3.4452 -0.0041  1.2736
 1131TIP3    H227589   4.992   5.125  10.878 -3.4065 -0.0927 -0.3042
 1132TIP3   OH227590   1.104   0.018  10.020 -0.2955  0.4159 -0.4511
 1132TIP3    H127591   1.076   0.101  10.058  0.5702  0.2456  0.6193
 1132TIP3    H227592   1.155   0.044   9.943  2.8523  1.1670  1.6696
 1133TIP3   OH227593   1.089   1.369  11.209  0.4121  0.4374  0.1660
 1133TIP3    H127594   1.062   1.366  11.117 -0.6883 -1.6749  0.4753
 1133TIP3    H227595   1.149   1.295  11.219  1.6010  1.4579  0.8824
 1134TIP3   OH227596   8.206   4.642  10.314 -0.4866 -0.0566 -0.0308
 1134TIP3    H127597   8.180   4.596  10.234 -0.5047  0.2715 -0.2170
 1134TIP3    H227598   8.182   4.583  10.385 -0.0216 -0.5703 -0.2898
 1135TIP3   OH227599   3.107   8.892  10.660 -0.6843  0.3527  0.5961
 1135TIP3    H127600   3.118   8.900  10.565 -0.7874  1.2154  0.6429
 1135TIP3    H227601   3.194   8.913  10.695 -0.8823  0.9674  0.7238
 1136TIP3   OH227602   7.028   8.378  10.187 -0.2785 -0.3083 -0.3191
 1136TIP3    H127603   7.119   8.408  10.195 -0.5122  0.4527 -0.4098
 1136TIP3    H227604   6.976   8.454  10.214 -0.8665 -1.1724  1.0772
 1137TIP3   OH227605   7.773   3.491   9.690  0.4386  0.0688  0.4237
 1137TIP3    H127606   7.788   3.541   9.609 -0.5447  0.7428  0.6453
 1137TIP3    H227607   7.806   3.547   9.760  1.1626 -0.4575  0.5231
 1138TIP3   OH227608   5.554   0.226   9.605 -0.0783  0.3222  0.1000
 1138TIP3    H127609   5.593   0.220   9.518 -0.6330 -0.1041 -0.1244
 1138TIP3    H227610   5.507   0.310   9.604 -1.3117 -0.3350 -0.5464
 1139TIP3   OH227611   7.449   4.104  11.173 -0.4506  0.4323 -0.0349
 1139TIP3    H127612   7.499   4.059  11.106  0.5823 -0.5309  1.3288
 1139TIP3    H227613   7.502   4.180  11.196  0.1425 -0.2818  1.0153
 1140TIP3   OH227614   7.072   5.999   9.993  0.3618 -0.0799 -0.6233
 1140TIP3    H127615   7.141   5.997  10.059 -0.4810 -1.3369  0.2599
 1140TIP3    H227616   7.020   6.077  10.014  0.5081 -0.0893 -0.2265
 1141TIP3   OH227617   6.112   0.663   9.924  0.2612  0.5549  0.7062
 1141TIP3    H127618   6.133   0.578   9.962  0.2206  0.2793  0.1172
 1141TIP3    H227619   6.021   0.679   9.951 -0.1279 -0.1323 -0.1514
 1142TIP3   OH227620   8.736   7.072   9.387 -0.9498 -0.8584 -0.8338
 1142TIP3    H127621   8.773   6.988   9.360  0.7182 -1.1239  1.9201
 1142TIP3    H227622   8.810   7.131   9.390 -1.6591  0.0311 -0.2792
 1143TIP3   OH227623   8.472   2.253  10.518 -0.0243  0.0414 -0.4354
 1143TIP3    H127624   8.519   2.173  10.494 -1.5045 -1.1353  0.4203
 1143TIP3    H227625   8.383   2.223  10.539 -0.5419  1.8785  0.1610
 1144TIP3   OH227626   7.390   1.562   9.512  0.2207  0.3347 -0.1064
 1144TIP3    H127627   7.337   1.617   9.569  0.6662 -1.0999  1.8047
 1144TIP3    H227628   7.455   1.622   9.475 -0.5151  1.4421  0.3345
 1145TIP3   OH227629   3.435   8.871  10.205  0.2876  0.9045  0.2372
 1145TIP3    H127630   3.355   8.841  10.161  0.3339  0.6145  0.3551
 1145TIP3    H227631   3.436   8.966  10.188  1.9093  0.4678 -3.0390
 1146TIP3   OH227632   4.608   4.858   9.470  0.2620  0.9373  0.0525
 1146TIP3    H127633   4.527   4.908   9.456 -1.8482 -2.3561 -0.8324
 1146TIP3    H227634   4.664   4.916   9.520 -2.7071  3.3871  0.8501
 1147TIP3   OH227635   8.869   0.276   9.724 -0.4140 -0.3459  0.5807
 1147TIP3    H127636   8.860   0.344   9.791  1.5757  1.0636 -0.4930
 1147TIP3    H227637   8.955   0.238   9.740  0.0707 -0.0272 -1.0999
 1148TIP3   OH227638   3.182   0.107  10.840 -0.4535 -0.2110 -0.2323
 1148TIP3    H127639   3.195   0.019  10.806 -0.9677 -0.5108  0.3160
 1148TIP3    H227640   3.243   0.162  10.791  0.6631 -1.0505  0.1933
 1149TIP3   OH227641   8.184   7.791   9.854  0.2496  0.8854  0.2312
 1149TIP3    H127642   8.163   7.751   9.939 -0.8075 -0.3154 -0.5622
 1149TIP3    H227643   8.150   7.880   9.861 -0.5677  0.5425  0.7789
 1150TIP3   OH227644   9.034   5.559   9.943  0.1035  0.2025  0.0133
 1150TIP3    H127645   9.073   5.496   9.883  0.2630  0.3873 -0.0779
 1150TIP3    H227646   8.945   5.571   9.910  0.4756  0.9989 -0.7354
 1151TIP3   OH227647   1.027   1.567  11.380  0.1595 -0.9078  0.0910
 1151TIP3    H127648   1.026   1.489  11.325  0.1187 -1.1230  0.3969
 1151TIP3    H227649   1.014   1.534  11.469 -2.2500 -0.3571 -0.0078
 1152TIP3   OH227650   0.529   4.974  11.022 -0.3934 -0.2760  0.0733
 1152TIP3    H127651   0.605   4.922  10.997 -0.8772 -0.6226 -0.7149
 1152TIP3    H227652   0.564   5.040  11.081  0.7797  0.4862 -1.4079
 1153TIP3   OH227653   3.685   2.600  10.906 -0.5226  0.1616  0.0695
 1153TIP3    H127654   3.692   2.598  11.001 -1.0977  0.1296  0.1178
 1153TIP3    H227655   3.733   2.678  10.880 -1.2589  0.7686  0.4832
 1154TIP3   OH227656   5.466   3.371  10.091  0.1406  0.3990 -0.0832
 1154TIP3    H127657   5.509   3.319  10.023 -2.4984 -1.5521 -0.4181
 1154TIP3    H227658   5.502   3.337  10.173  2.4777  1.9623 -0.3722
 1155TIP3   OH227659   0.854   0.897  10.259 -0.2606  0.2354  0.5623
 1155TIP3    H127660   0.829   0.818  10.308 -0.4746  1.3275  2.3076
 1155TIP3    H227661   0.778   0.955  10.267 -0.3157  0.4394 -1.1657
 1156TIP3   OH227662   0.381   1.132   9.713  0.2933 -0.6184  0.2256
 1156TIP3    H127663   0.377   1.044   9.678  0.4186 -0.4894 -0.1209
 1156TIP3    H227664   0.365   1.189   9.638 -1.1917 -0.3683  0.6889
 1157TIP3   OH227665   3.328   2.482  11.214  0.1464  0.0577  0.2103
 1157TIP3    H127666   3.357   2.449  11.129 -1.4679  0.3483 -0.4866
 1157TIP3    H227667   3.388   2.441  11.277  1.2205 -0.3546 -1.0289
 1158TIP3   OH227668   0.522   8.565  10.369  0.3853 -0.2235  0.0700
 1158TIP3    H127669   0.584   8.500  10.401  2.1001  1.7616  1.0182
 1158TIP3    H227670   0.560   8.595  10.286  0.6425  0.8730  0.5633
 1159TIP3   OH227671   4.707   1.903   9.988 -0.3763 -0.4047 -0.0581
 1159TIP3    H127672   4.685   1.908  10.081 -2.2151  1.3390 -0.5137
 1159TIP3    H227673   4.625   1.879   9.944  0.3124 -0.6387 -1.2864
 1160TIP3   OH227674   0.705   8.818  10.671  0.1833 -0.1119 -0.0635
 1160TIP3    H127675   0.695   8.728  10.701  3.1287 -0.6386 -0.4146
 1160TIP3    H227676   0.682   8.815  10.578 -1.6525 -0.0361  0.3555
 1161TIP3   OH227677   7.595   7.310   9.966  0.1785  0.0247  0.2182
 1161TIP3    H127678   7.584   7.299   9.871  1.2993  0.0094  0.0787
 1161TIP3    H227679   7.513   7.279  10.003 -0.7940  1.2338 -0.8295
 1162TIP3   OH227680   7.663   1.448   9.823  0.2458  0.2235 -0.5871
 1162TIP3    H127681   7.680   1.354   9.823  2.5179  0.5329 -2.5067
 1162TIP3    H227682   7.670   1.473   9.731  1.8132  2.5734  0.0789
 1163TIP3   OH227683   4.546   5.445  10.605 -0.0260 -0.4129 -0.2758
 1163TIP3    H127684   4.558   5.512  10.538 -2.3724  0.3276 -0.0399
 1163TIP3    H227685   4.493   5.488  10.672 -1.1628 -2.3252  0.1206
 1164TIP3   OH227686   2.988   4.913   9.410 -0.0495 -0.3446 -0.1498
 1164TIP3    H127687   2.934   4.947   9.481  0.8119 -0.7275  0.7191
 1164TIP3    H227688   2.984   4.818   9.421  0.6784 -0.3786 -0.1681
 1165TIP3   OH227689   1.129   7.497  10.510 -0.1900 -0.5180 -0.1727
 1165TIP3    H127690   1.041   7.495  10.472 -0.5889  0.4481  0.6259
 1165TIP3    H227691   1.114   7.502  10.605  0.6520  1.4362 -0.0780
 1166TIP3   OH227692   6.058   0.155  10.938  0.1126  0.2300  0.3257
 1166TIP3    H127693   6.016   0.071  10.923 -0.4668  0.7901 -1.4568
 1166TIP3    H227694   6.151   0.137  10.933  0.0255 -0.4802  1.0981
 1167TIP3   OH227695   4.610   4.416   9.497  0.0658  0.0597  0.0681
 1167TIP3    H127696   4.554   4.492   9.482  0.3608  0.2318 -0.1699
 1167TIP3    H227697   4.699   4.447   9.479  0.1122 -0.5640 -0.8711
 1168TIP3   OH227698   1.322   4.980  10.935 -0.5199 -0.2713 -0.0858
 1168TIP3    H127699   1.371   4.971  10.853  0.4315 -1.8739  0.6053
 1168TIP3    H227700   1.247   4.921  10.924 -0.4539 -0.3988  0.1628
 1169TIP3   OH227701   4.510   1.816   9.791 -0.4406 -0.4277  0.2554
 1169TIP3    H127702   4.430   1.797   9.743  0.3945 -1.4128 -0.7896
 1169TIP3    H227703   4.546   1.893   9.748  0.2344 -1.2258 -0.6291
 1170TIP3   OH227704   2.332   6.342  10.965  0.0873  0.3620  0.3384
 1170TIP3    H127705   2.342   6.280  10.893 -0.0879  1.0658 -0.3077
 1170TIP3    H227706   2.388   6.307  11.035  1.1784  0.2688 -0.5514
 1171TIP3   OH227707   2.913   6.340  11.203 -0.1689  0.1308  0.0162
 1171TIP3    H127708   2.942   6.303  11.119  0.4172 -0.6179  0.5266
 1171TIP3    H227709   2.855   6.411  11.179 -0.4605 -0.4311 -1.0266
 1172TIP3   OH227710   6.609   3.090  10.678  0.3537 -0.2538 -0.5870
 1172TIP3    H127711   6.670   3.154  10.715  0.8641 -0.5552 -0.9009
 1172TIP3    H227712   6.588   3.032  10.751 -0.8638  0.8214 -0.0462
 1173TIP3   OH227713   5.938   5.183  10.139  0.4714  0.1914  0.1867
 1173TIP3    H127714   6.025   5.216  10.117 -0.1038  1.4165 -0.3447
 1173TIP3    H227715   5.923   5.112  10.078 -0.2771  2.2366 -2.1618
 1174TIP3   OH227716   8.562   2.914   9.498 -0.2671  0.0611 -0.5493
 1174TIP3    H127717   8.520   2.843   9.449 -1.3746 -0.6767  1.3632
 1174TIP3    H227718   8.536   2.993   9.451 -2.0411 -0.5473 -0.6828
 1175TIP3   OH227719   2.853   6.761  10.989 -0.2237  0.4103 -0.3195
 1175TIP3    H127720   2.786   6.692  10.984  0.6732 -0.3840 -1.8924
 1175TIP3    H227721   2.932   6.716  11.017  0.4563  0.7282 -1.6844
 1176TIP3   OH227722   4.738   0.987  10.199 -0.1413  0.8688  0.5620
 1176TIP3    H127723   4.721   1.080  10.181  0.1080  0.9530  0.7615
 1176TIP3    H227724   4.830   0.975  10.176 -1.0389 -0.2035 -3.0979
 1177TIP3   OH227725   8.668   6.288  10.733  0.3151 -0.4758 -0.2104
 1177TIP3    H127726   8.642   6.379  10.717  0.7383 -0.2137  0.5391
 1177TIP3    H227727   8.761   6.293  10.751  0.2657 -1.0154  0.1915
 1178TIP3   OH227728   0.065   3.496  10.612 -0.1925  0.3246  0.1868
 1178TIP3    H127729   0.077   3.506  10.518  1.2528  2.3953  0.5224
 1178TIP3    H227730  -0.004   3.560  10.633  0.0507  0.4411  0.6315
 1179TIP3   OH227731   3.102   2.460  10.203  0.2198 -0.1588  0.5975
 1179TIP3    H127732   3.010   2.464  10.230  0.5502 -1.3533  1.9618
 1179TIP3    H227733   3.131   2.551  10.203 -0.8082  0.1777  0.6862
 1180TIP3   OH227734   2.150   3.667  10.416  0.0785  0.4629 -0.0936
 1180TIP3    H127735   2.117   3.756  10.427 -0.7911  0.0146  1.1702
 1180TIP3    H227736   2.175   3.662  10.324 -0.2428  1.8792 -0.2818
 1181TIP3   OH227737   5.999   7.414  10.865  0.2341  0.3065 -0.5817
 1181TIP3    H127738   6.091   7.440  10.875 -0.0499  1.6974 -1.3763
 1181TIP3    H227739   5.950   7.485  10.905 -0.5274 -0.5849  0.1328
 1182TIP3   OH227740   0.515   2.696  10.364 -0.0569  0.0723  0.6199
 1182TIP3    H127741   0.600   2.668  10.330 -0.1884 -0.4619  0.7267
 1182TIP3    H227742   0.473   2.740  10.289 -0.2366 -0.8628  0.1568
 1183TIP3   OH227743   1.925   4.338   9.965  0.2057 -0.1704  0.3675
 1183TIP3    H127744   1.959   4.361  10.051  0.8453  1.3950 -0.2779
 1183TIP3    H227745   1.980   4.265   9.936 -0.3457 -1.0621  1.4655
 1184TIP3   OH227746   5.372   5.790   9.527  0.8085 -0.4858  0.4572
 1184TIP3    H127747   5.326   5.833   9.598  1.2758 -0.7029  0.8934
 1184TIP3    H227748   5.327   5.820   9.448  0.9327  0.5612  0.7673
 1185TIP3   OH227749   8.202   0.163   9.983  0.9564  0.5769 -0.3896
 1185TIP3    H127750   8.193   0.216  10.062 -1.4228 -0.1392 -0.1074
 1185TIP3    H227751   8.296   0.157   9.970  1.4905  0.2863  2.6980
 1186TIP3   OH227752   0.703   8.163  10.730  0.4019  0.5249 -0.2134
 1186TIP3    H127753   0.767   8.097  10.702 -0.4797  0.4017 -2.0638
 1186TIP3    H227754   0.674   8.204  10.649 -0.4598  1.9157  0.7620
 1187TIP3   OH227755   6.705   2.609   9.972  0.2306 -0.2381  0.1538
 1187TIP3    H127756   6.719   2.514   9.961  1.3835  0.0491 -1.3236
 1187TIP3    H227757   6.611   2.621   9.962  0.0819 -1.2219  0.2571
 1188TIP3   OH227758   0.501   7.782   9.891 -0.4042  0.6166 -0.2893
 1188TIP3    H127759   0.587   7.758   9.926 -0.5535  0.6807  0.1266
 1188TIP3    H227760   0.464   7.699   9.860 -0.9345  0.2720  1.1768
 1189TIP3   OH227761   8.478   1.116  10.306  0.0649  0.3607 -0.2802
 1189TIP3    H127762   8.555   1.133  10.251  1.2412 -0.1377  1.1359
 1189TIP3    H227763   8.480   1.184  10.373  0.9337 -1.2324  1.4218
 1190TIP3   OH227764   4.841   2.679  10.359  0.8712 -0.0294  0.4146
 1190TIP3    H127765   4.753   2.643  10.355  0.6201  0.7375 -1.8097
 1190TIP3    H227766   4.834   2.754  10.419 -0.6838  1.7398 -1.8362
 1191TIP3   OH227767   2.211   3.303  11.255 -0.0123  0.0590  0.0362
 1191TIP3    H127768   2.160   3.249  11.195  0.0365 -0.2459  0.2671
 1191TIP3    H227769   2.302   3.291  11.228 -0.1368  1.8999 -1.4536
 1192TIP3   OH227770   6.181   6.153  10.802 -0.0655  0.3705  0.3479
 1192TIP3    H127771   6.264   6.112  10.778  1.9789  2.4005  3.1969
 1192TIP3    H227772   6.145   6.097  10.870  0.5191  0.9769  1.1776
 1193TIP3   OH227773   0.281   4.306  10.145  0.1759 -0.2740 -0.2932
 1193TIP3    H127774   0.374   4.290  10.129  0.2840  0.0674 -0.0249
 1193TIP3    H227775   0.236   4.241  10.092  0.5133  0.7361 -1.8860
 1194TIP3   OH227776   6.239   7.540  10.806 -0.2992  0.0978  0.0051
 1194TIP3    H127777   6.311   7.479  10.787 -1.1026 -1.1968  1.0003
 1194TIP3    H227778   6.202   7.559  10.720  1.2772  0.8847 -0.5462
 1195TIP3   OH227779   4.896   6.022  10.174 -0.0204  0.1702  0.2040
 1195TIP3    H127780   4.947   5.949  10.208  0.5568 -0.1455 -1.2533
 1195TIP3    H227781   4.808   5.986  10.164 -0.0611  0.0973  0.8213
 1196TIP3   OH227782   4.262   6.445   9.664 -0.0459  0.0352 -0.0331
 1196TIP3    H127783   4.295   6.523   9.618 -0.4666 -0.3624 -1.0441
 1196TIP3    H227784   4.266   6.469   9.756 -1.1731  1.6895 -0.3531
 1197TIP3   OH227785   2.203   1.524  10.790 -0.5161  0.5309 -0.5145
 1197TIP3    H127786   2.245   1.479  10.863  0.4407 -0.8790 -1.8616
 1197TIP3    H227787   2.131   1.572  10.830  0.2689  0.2114  1.4098
 1198TIP3   OH227788   6.646   5.342   9.298  0.3019 -0.1775  0.3178
 1198TIP3    H127789   6.587   5.287   9.246  1.2181 -1.0094  0.1284
 1198TIP3    H227790   6.587   5.393   9.354 -0.6240 -0.5046 -0.3312
 1199TIP3   OH227791   1.784   6.834  10.456  0.1384 -0.0809  0.0473
 1199TIP3    H127792   1.736   6.855  10.535  0.5750  2.1229 -0.2185
 1199TIP3    H227793   1.720   6.792  10.399 -0.8549  0.7050  0.5709
 1200TIP3   OH227794   4.861   4.952  10.476 -0.0237 -0.0084  0.4374
 1200TIP3    H127795   4.914   5.028  10.451 -0.8032  0.4858  0.2446
 1200TIP3    H227796   4.807   4.983  10.549  0.6338 -0.7906  1.2855
 1201TIP3   OH227797   3.845   5.716  16.484  0.2244 -0.1168  0.5796
 1201TIP3    H127798   3.760   5.760  16.478 -0.2400 -1.1315 -1.6319
 1201TIP3    H227799   3.835   5.653  16.555 -0.3461  0.8149  1.3378
 1202TIP3   OH227800   8.646   0.367   8.990  0.1205  0.3266 -0.1952
 1202TIP3    H127801   8.586   0.373   8.916 -1.1547 -0.8069  0.6811
 1202TIP3    H227802   8.654   0.457   9.021 -2.4938  0.3699  0.6396
 1203TIP3   OH227803   4.417   1.357   9.143  0.0792 -0.4548  0.1368
 1203TIP3    H127804   4.377   1.395   9.221  0.4951  1.2758 -0.4505
 1203TIP3    H227805   4.343   1.324   9.092 -0.1435 -2.5914  1.6723
 1204TIP3   OH227806   2.784   4.938   9.643  0.1276  0.3172 -0.0690
 1204TIP3    H127807   2.696   4.922   9.675  0.0200 -0.2410 -0.6240
 1204TIP3    H227808   2.840   4.883   9.698  0.3435  1.8918  1.3790
 1205TIP3   OH227809   6.451   3.708  10.604  0.0392 -1.1666  0.4694
 1205TIP3    H127810   6.451   3.699  10.699 -1.2196 -0.4216  0.5548
 1205TIP3    H227811   6.378   3.653  10.575 -0.9257  0.2492  0.1297
 1206TIP3   OH227812   0.182   7.115  10.150 -1.0969 -0.0657 -0.3670
 1206TIP3    H127813   0.221   7.196  10.119  1.1256 -1.1579 -0.5823
 1206TIP3    H227814   0.185   7.122  10.246 -1.5598  0.3739 -0.3778
 1207TIP3   OH227815   2.545   3.262  10.944 -0.6224 -0.6517 -0.0567
 1207TIP3    H127816   2.594   3.181  10.929 -0.1055 -0.6151  1.3084
 1207TIP3    H227817   2.453   3.236  10.941 -0.4817 -1.1113 -0.5347
 1208TIP3   OH227818   0.756   6.729  10.769 -0.3112 -0.6400  0.2282
 1208TIP3    H127819   0.809   6.745  10.690  0.0961 -1.8679  0.2431
 1208TIP3    H227820   0.723   6.816  10.793  1.1022  0.0387 -0.1969
 1209TIP3   OH227821   6.450   4.098  10.529 -0.3274  0.5396 -0.1945
 1209TIP3    H127822   6.417   4.061  10.610 -2.2149  1.0921 -0.6767
 1209TIP3    H227823   6.418   4.188  10.528  2.0858  1.4803 -0.2270
 1210TIP3   OH227824   0.658   1.667  10.325  0.3490  0.6650  0.2205
 1210TIP3    H127825   0.722   1.705  10.265  0.7950  2.0277  1.5120
 1210TIP3    H227826   0.711   1.626  10.394 -0.1706  0.3339  0.4298
 1211TIP3   OH227827   1.084   8.863   9.454  0.3454 -0.3172  0.0173
 1211TIP3    H127828   1.134   8.877   9.535  0.7194  0.9410 -0.4149
 1211TIP3    H227829   1.147   8.880   9.384 -0.4201  0.2697 -0.5392
 1212TIP3   OH227830   1.537   1.197  11.421  0.5875 -0.3850  0.5672
 1212TIP3    H127831   1.578   1.113  11.405  1.5927  0.2438 -0.3207
 1212TIP3    H227832   1.577   1.229  11.503  0.7273 -0.4522  0.5239
 1213TIP3   OH227833   6.817   0.691  10.276 -0.2746 -0.1160  0.0790
 1213TIP3    H127834   6.834   0.606  10.235  1.1233  0.0975  0.1864
 1213TIP3    H227835   6.871   0.692  10.354  0.7084  1.3677 -0.5777
 1214TIP3   OH227836   6.623   8.150  10.557  0.4338  0.0973 -0.2117
 1214TIP3    H127837   6.670   8.123  10.478  0.6601  2.6940 -1.0624
 1214TIP3    H227838   6.575   8.071  10.585 -0.5792 -0.6613 -3.6150
 1215TIP3   OH227839   1.459   8.287  10.346 -0.1933 -0.3839  0.4996
 1215TIP3    H127840   1.544   8.326  10.366 -0.0636 -0.9406  1.0542
 1215TIP3    H227841   1.425   8.258  10.431 -0.5306 -0.9936  0.1646
 1216TIP3   OH227842   2.237   1.429   9.411  0.1098 -0.5186  0.1097
 1216TIP3    H127843   2.155   1.459   9.372  0.1083 -1.7069 -0.8615
 1216TIP3    H227844   2.276   1.371   9.345  0.7803 -1.5170  1.3308
 1217TIP3   OH227845   3.075   4.924  10.748 -0.2580 -0.0851  0.4927
 1217TIP3    H127846   3.072   4.943  10.655  2.4383 -0.6438  0.2133
 1217TIP3    H227847   3.120   5.000  10.787 -0.3964 -0.3384  1.1705
 1218TIP3   OH227848   4.244   8.650  11.138  0.7801  0.2418 -0.5479
 1218TIP3    H127849   4.154   8.619  11.127  1.2648 -1.7129  0.6552
 1218TIP3    H227850   4.243   8.739  11.103 -1.3992 -0.0636 -1.3846
 1219TIP3   OH227851   1.772   0.856   9.657 -0.6192  0.3583  0.0809
 1219TIP3    H127852   1.714   0.928   9.636  0.6490  1.1758 -0.7678
 1219TIP3    H227853   1.819   0.838   9.575 -0.2992 -0.8646  0.4993
 1220TIP3   OH227854   8.657   3.206   9.731 -0.1589  0.3455  0.4962
 1220TIP3    H127855   8.624   3.121   9.702 -1.9726  1.5532 -1.2239
 1220TIP3    H227856   8.653   3.202   9.826  1.8480 -2.2085  0.6053
 1221TIP3   OH227857   3.973   5.335  10.494 -0.1815 -0.7244 -0.0979
 1221TIP3    H127858   3.990   5.271  10.563  1.2830  0.9841  1.2555
 1221TIP3    H227859   3.939   5.412  10.541 -4.2740 -1.1785 -1.8873
 1222TIP3   OH227860   0.161   8.390  11.060  0.4785 -0.1140  0.8809
 1222TIP3    H127861   0.241   8.347  11.030 -0.2097 -2.9578  2.7371
 1222TIP3    H227862   0.191   8.452  11.126  1.2380 -0.2321  0.6616
 1223TIP3   OH227863   9.198   7.627  10.136 -0.0428 -0.1828  0.3596
 1223TIP3    H127864   9.107   7.631  10.167 -0.5851  1.4796 -1.2813
 1223TIP3    H227865   9.198   7.677  10.054  2.3545 -0.1729  0.2955
 1224TIP3   OH227866   6.121   1.262  10.005 -0.2563 -0.1245  0.2821
 1224TIP3    H127867   6.195   1.207  10.030 -0.1199 -0.3181 -0.5161
 1224TIP3    H227868   6.161   1.339   9.964 -0.4495  0.5359  1.2843
 1225TIP3   OH227869   5.464   6.757  10.350  0.5843  0.1397 -0.4353
 1225TIP3    H127870   5.447   6.802  10.267  0.5204 -1.8418 -1.5578
 1225TIP3    H227871   5.560   6.755  10.357  0.7296 -2.3288 -2.0697
 1226TIP3   OH227872   6.285   5.350  10.686 -0.3057  0.1213 -0.0834
 1226TIP3    H127873   6.258   5.342  10.778  0.6581 -0.9601  0.1328
 1226TIP3    H227874   6.356   5.414  10.687  0.5023 -0.7443  0.1351
 1227TIP3   OH227875   8.051   7.367   9.585  0.3885 -0.0235  0.0827
 1227TIP3    H127876   7.969   7.333   9.621  1.0651 -1.2515  0.5309
 1227TIP3    H227877   8.047   7.342   9.492  1.0497 -1.7808  0.4816
 1228TIP3   OH227878   7.199   8.139   9.210 -0.0919  0.0312 -0.1000
 1228TIP3    H127879   7.161   8.193   9.279  1.4973  3.0066 -1.3777
 1228TIP3    H227880   7.123   8.098   9.167 -1.3600  1.0436  1.0907
 1229TIP3   OH227881   1.974   4.079  10.301 -0.4069 -0.5055  0.1283
 1229TIP3    H127882   1.923   4.153  10.332 -0.0761 -0.5348  0.7452
 1229TIP3    H227883   1.909   4.019  10.264 -1.2286 -1.8800  3.4844
 1230TIP3   OH227884   7.418   0.628  10.148  0.1920  0.3062 -0.0258
 1230TIP3    H127885   7.486   0.565  10.123  1.5432  0.6497  2.4738
 1230TIP3    H227886   7.466   0.703  10.184 -1.3912 -0.4867  4.2998
 1231TIP3   OH227887   3.024   4.667  10.696 -0.1929  0.0640 -0.0813
 1231TIP3    H127888   3.051   4.755  10.723  2.7339 -0.3063 -1.4324
 1231TIP3    H227889   2.958   4.683  10.628 -0.7653  1.1579  0.7000
 1232TIP3   OH227890   1.228   1.639  10.505  0.1101  0.0520 -0.0962
 1232TIP3    H127891   1.167   1.710  10.486 -0.4183  0.0794  1.5227
 1232TIP3    H227892   1.274   1.667  10.584  0.7575 -0.8683 -0.1302
 1233TIP3   OH227893   6.479   1.406  10.835 -0.0074  0.5888 -0.1815
 1233TIP3    H127894   6.484   1.472  10.766 -0.5953 -1.0229 -1.8362
 1233TIP3    H227895   6.421   1.444  10.901  0.2859  2.0243 -0.7269
 1234TIP3   OH227896   0.153   2.636  10.240  0.0350 -0.4762 -0.2332
 1234TIP3    H127897   0.197   2.699  10.297  1.5709 -1.4651 -0.2423
 1234TIP3    H227898   0.062   2.665  10.236  1.0373  2.9170 -1.8900
 1235TIP3   OH227899   4.208   6.157  11.338  0.0383 -0.6905 -0.2048
 1235TIP3    H127900   4.284   6.169  11.395  0.7833 -1.5869 -0.9792
 1235TIP3    H227901   4.185   6.246  11.310 -0.9063 -0.1292  2.1389
 1236TIP3   OH227902   0.790   8.013  10.480 -0.1076  0.0649 -0.1202
 1236TIP3    H127903   0.875   8.001  10.523  0.4558  2.5300 -0.3902
 1236TIP3    H227904   0.791   7.949  10.408  1.8514  0.5142 -0.5729
 1237TIP3   OH227905   6.498   4.163  10.864  0.0803 -0.4137  0.4656
 1237TIP3    H127906   6.524   4.073  10.883  0.1841 -0.7984 -1.3173
 1237TIP3    H227907   6.404   4.158  10.848  0.0752 -0.1992  0.4178
 1238TIP3   OH227908   2.019   1.123  10.181 -0.4223  0.3197  0.1850
 1238TIP3    H127909   2.037   1.217  10.175  0.7244  0.0361 -2.0978
 1238TIP3    H227910   2.103   1.085  10.205 -0.5307 -0.2179 -0.2732
 1239TIP3   OH227911   3.177   4.127  11.107 -0.2880 -0.5530  0.4530
 1239TIP3    H127912   3.102   4.131  11.048 -0.1686  0.9257  0.3653
 1239TIP3    H227913   3.229   4.054  11.074  0.5554  1.1354 -2.2658
 1240TIP3   OH227914   2.432   0.966  10.310 -0.2827  0.2646  0.0460
 1240TIP3    H127915   2.458   1.011  10.229 -0.7013 -0.0889 -0.2921
 1240TIP3    H227916   2.456   0.875  10.295 -0.3812  0.1955  0.3140
 1241TIP3   OH227917   1.983   3.338  10.522 -0.2887 -0.0522  0.4725
 1241TIP3    H127918   1.989   3.253  10.565 -0.8063 -0.1879  0.2911
 1241TIP3    H227919   2.042   3.395  10.571  1.0640 -0.8349 -0.1794
 1242TIP3   OH227920   7.788   0.150   9.781 -0.3108 -0.0459  0.4657
 1242TIP3    H127921   7.752   0.195   9.704  0.1371  0.8598  0.7689
 1242TIP3    H227922   7.711   0.118   9.828 -0.7690  1.8031  1.0629
 1243TIP3   OH227923   6.216   8.917  10.509  0.7789  0.4276  0.5641
 1243TIP3    H127924   6.149   8.861  10.547 -0.3764  0.9948 -0.5768
 1243TIP3    H227925   6.270   8.943  10.584  0.4332 -0.9554  1.3281
 1244TIP3   OH227926   0.109   4.510  10.209 -0.4206  0.3278 -1.0964
 1244TIP3    H127927   0.167   4.433  10.208 -0.5799  0.2110 -1.6623
 1244TIP3    H227928   0.127   4.552  10.293  2.0230  1.4635 -2.0815
 1245TIP3   OH227929   7.431   5.230  10.838  0.0143 -0.1810 -0.0810
 1245TIP3    H127930   7.421   5.278  10.755  0.6209 -1.4880 -0.9495
 1245TIP3    H227931   7.523   5.242  10.861 -0.3897  1.0400  0.9792
 1246TIP3   OH227932   2.156   3.944   9.547 -0.1652  0.0036  0.0957
 1246TIP3    H127933   2.245   3.932   9.582 -0.6105 -0.6971  1.0092
 1246TIP3    H227934   2.139   3.865   9.496 -0.4931 -0.1420  0.4274
 1247TIP3   OH227935   6.808   8.803   9.976 -0.8806  0.5905 -0.2288
 1247TIP3    H127936   6.888   8.855   9.973  0.0926 -0.9011 -0.5297
 1247TIP3    H227937   6.820   8.735   9.910 -1.5820 -0.7961  1.0160
 1248TIP3   OH227938   4.937   9.010  10.557 -0.3868  0.3756 -0.4230
 1248TIP3    H127939   4.884   8.931  10.562  0.4944 -0.3063 -1.3996
 1248TIP3    H227940   4.898   9.061  10.486 -0.1601  0.1997 -0.6743
 1249TIP3   OH227941   3.356   4.052   9.524 -0.5860  0.5946  0.3915
 1249TIP3    H127942   3.384   3.977   9.470  0.5178  0.0514  1.6381
 1249TIP3    H227943   3.303   4.106   9.465 -3.9794 -2.5860  0.1556
 1250TIP3   OH227944   0.357   4.717  10.263 -0.2238 -0.5872  0.2176
 1250TIP3    H127945   0.277   4.768  10.251  0.2524 -0.1185 -1.2447
 1250TIP3    H227946   0.402   4.723  10.178 -0.4096 -3.9137 -0.2392
 1251TIP3   OH227947   5.876   7.666  10.069  0.4203  0.7494 -0.0539
 1251TIP3    H127948   5.840   7.752  10.045 -1.1162  0.1908  0.1354
 1251TIP3    H227949   5.807   7.604  10.045  1.4233 -0.4261  0.0015
 1252TIP3   OH227950   5.526   3.076  11.090 -0.4099 -0.1561 -0.1183
 1252TIP3    H127951   5.512   3.041  11.002 -0.2632  1.1626 -0.6891
 1252TIP3    H227952   5.554   3.166  11.076  2.0723 -0.6300  1.1841
 1253TIP3   OH227953   6.247   9.093  10.298  0.0354  0.2700  0.0686
 1253TIP3    H127954   6.231   9.033  10.371  0.4615  1.2389  0.9943
 1253TIP3    H227955   6.235   9.180  10.336  1.0596  0.8232 -0.8121
 1254TIP3   OH227956   7.655   4.683  11.252  0.3360  0.0320  0.1717
 1254TIP3    H127957   7.662   4.622  11.179 -1.3330  1.3495 -1.1623
 1254TIP3    H227958   7.646   4.627  11.329  2.7034 -1.4114 -0.4877
 1255TIP3   OH227959   9.026   0.586  10.218 -0.5139 -0.1137 -0.0887
 1255TIP3    H127960   9.004   0.665  10.267  0.9885  0.0634  0.3435
 1255TIP3    H227961   9.058   0.618  10.133  0.7021 -0.2035  0.3205
 1256TIP3   OH227962   6.212   0.344   9.106 -0.0119  0.0183 -0.3591
 1256TIP3    H127963   6.222   0.373   9.015  2.7945 -1.5297 -0.6833
 1256TIP3    H227964   6.248   0.415   9.159 -0.9789  0.6174 -0.4968
 1257TIP3   OH227965   6.828   7.939  10.686  0.5767  0.3634 -0.0811
 1257TIP3    H127966   6.747   7.984  10.710 -0.0604 -1.6102  1.8164
 1257TIP3    H227967   6.884   7.947  10.764  0.9685 -0.9185 -0.2083
 1258TIP3   OH227968   3.094   0.818  10.678  0.7820 -0.4060 -0.4749
 1258TIP3    H127969   3.080   0.812  10.772 -0.0798  2.1916 -0.3640
 1258TIP3    H227970   3.093   0.912  10.659  2.2801 -0.7763 -2.9009
 1259TIP3   OH227971   0.681   7.638   9.593  0.5412  0.2070  0.1714
 1259TIP3    H127972   0.606   7.591   9.628  1.3979 -1.9307 -0.6797
 1259TIP3    H227973   0.645   7.697   9.526 -0.4609  0.0526  0.5662
 1260TIP3   OH227974   4.651   6.811  10.245  0.4714 -0.2512  0.1102
 1260TIP3    H127975   4.682   6.725  10.272 -0.2092 -0.1786  1.1717
 1260TIP3    H227976   4.626   6.800  10.153 -0.9842 -1.5901  0.6301
 1261TIP3   OH227977   1.619   1.763  10.971  0.2918  0.1551  0.3828
 1261TIP3    H127978   1.618   1.673  11.003  2.6530  0.5937  1.9316
 1261TIP3    H227979   1.551   1.808  11.022  1.1094 -0.1275  1.7741
 1262TIP3   OH227980   3.288   7.793  10.919  0.0015  0.0750  0.1614
 1262TIP3    H127981   3.236   7.713  10.912  0.6607 -0.4275  0.9031
 1262TIP3    H227982   3.374   7.769  10.885  0.2847  0.3933  0.6441
 1263TIP3   OH227983   6.855   1.650   9.506  0.1414  0.4547  0.0362
 1263TIP3    H127984   6.807   1.627   9.427  1.4253 -1.0146 -0.3697
 1263TIP3    H227985   6.892   1.567   9.536  1.7281  1.3842  0.7634
 1264TIP3   OH227986   6.165   6.057  10.495  0.1685 -0.1045 -0.3067
 1264TIP3    H127987   6.124   6.082  10.578  0.9020 -0.0224  0.0338
 1264TIP3    H227988   6.237   6.119  10.484  1.1603 -1.1879 -0.1408
 1265TIP3   OH227989   4.558   0.284  10.484  0.7050  0.1329  0.1138
 1265TIP3    H127990   4.505   0.205  10.487 -0.0947  0.4888 -2.3241
 1265TIP3    H227991   4.494   0.356  10.483  1.1189  0.5656 -2.9475
 1266TIP3   OH227992   8.405   7.927   9.109  0.2986 -0.1278  0.4973
 1266TIP3    H127993   8.333   7.945   9.049  0.3762 -0.2415  0.3688
 1266TIP3    H227994   8.436   8.013   9.136 -0.4394 -0.0706  1.2292
 1267TIP3   OH227995   3.208   1.223   9.571 -0.3177 -0.0758 -0.6382
 1267TIP3    H127996   3.170   1.265   9.648 -0.2079  1.4037 -1.3716
 1267TIP3    H227997   3.176   1.132   9.576  0.6402 -0.3477  1.7544
 1268TIP3   OH227998   6.782   7.568  10.662 -0.1401 -0.0059 -0.1894
 1268TIP3    H127999   6.771   7.503  10.593  0.5231 -0.6167  0.2733
 1268TIP3    H228000   6.869   7.606  10.646 -0.5357  0.8202 -0.4853
 1269TIP3   OH228001   4.364   7.307  10.806 -0.1056 -0.2770 -0.5670
 1269TIP3    H128002   4.387   7.251  10.732  0.7983 -4.0262  2.1835
 1269TIP3    H228003   4.281   7.271  10.838  0.6943 -0.4150  1.5569
 1270TIP3   OH228004   1.813   5.197  10.905 -0.0187 -0.2863 -0.7160
 1270TIP3    H128005   1.875   5.131  10.936 -2.0699 -0.6138  3.3116
 1270TIP3    H228006   1.850   5.280  10.935  0.3609 -0.0230 -1.8600
 1271TIP3   OH228007   7.749   6.245   9.545 -0.1133 -0.0241 -0.0490
 1271TIP3    H128008   7.654   6.247   9.553 -0.2312 -2.8302  0.2715
 1271TIP3    H228009   7.766   6.273   9.455 -1.3972 -0.9021 -0.5959
 1272TIP3   OH228010   1.338   5.344  10.177  0.2236  0.8331 -0.0111
 1272TIP3    H128011   1.375   5.409  10.237 -1.0799  2.2262 -0.6499
 1272TIP3    H228012   1.406   5.331  10.111  1.1270  0.3085  0.9860
 1273TIP3   OH228013   3.296   4.011  10.021 -0.2560  0.2664  0.4429
 1273TIP3    H128014   3.330   3.985   9.936 -1.6335  0.8747 -0.3276
 1273TIP3    H228015   3.371   4.006  10.080  0.6969 -0.2605 -0.7794
 1274TIP3   OH228016   6.666   4.894  11.139 -0.1628  0.2208  0.5729
 1274TIP3    H128017   6.706   4.852  11.215 -2.0966  1.7909  2.5821
 1274TIP3    H228018   6.741   4.922  11.085  1.3034 -0.2885  2.2596
 1275TIP3   OH228019   3.113   2.079  10.615 -0.2264  0.0843 -0.2123
 1275TIP3    H128020   3.102   2.163  10.571  0.8943  0.8964  0.9955
 1275TIP3    H228021   3.062   2.087  10.695 -0.5958 -0.6185 -0.3705
 1276TIP3   OH228022   8.901   2.015   9.626 -0.5250 -0.2305  0.6126
 1276TIP3    H128023   8.856   1.931   9.634  0.8817 -1.1139 -0.2281
 1276TIP3    H228024   8.959   2.019   9.702 -0.8082  0.1321  0.8134
 1277TIP3   OH228025   0.308   7.908   9.293 -0.3270  0.2309  0.1332
 1277TIP3    H128026   0.298   7.839   9.359 -1.6698  1.3503  1.1776
 1277TIP3    H228027   0.384   7.959   9.323 -0.0450 -0.1022 -0.0042
 1278TIP3   OH228028   7.911   9.124  10.227  0.2603  0.0975 -0.7091
 1278TIP3    H128029   7.924   9.168  10.143 -2.4358 -1.4714 -2.1045
 1278TIP3    H228030   7.952   9.038  10.216  0.8585  0.2847  0.0070
 1279TIP3   OH228031   1.373   6.026  10.058  0.6519 -0.1365 -0.1265
 1279TIP3    H128032   1.318   5.989   9.988 -0.2608 -0.4492  0.7280
 1279TIP3    H228033   1.444   6.070  10.012  1.1672 -2.0029 -1.2187
 1280TIP3   OH228034   2.701   6.634  10.673  0.4717  0.2370  0.2345
 1280TIP3    H128035   2.784   6.628  10.625 -0.0462 -1.7341 -0.5129
 1280TIP3    H228036   2.664   6.546  10.668 -1.0046  0.7128  1.7878
 1281TIP3   OH228037   3.790   4.974   9.632  1.2422  0.0139  0.7060
 1281TIP3    H128038   3.880   5.001   9.650  1.3972 -0.0941  0.1263
 1281TIP3    H228039   3.774   5.004   9.542  0.3270  1.0039  1.1759
 1282TIP3   OH228040   6.170   2.950  11.477 -0.2209  0.0455 -0.3823
 1282TIP3    H128041   6.198   2.859  11.479 -0.2455  0.0419  1.7819
 1282TIP3    H228042   6.076   2.945  11.459 -0.6348 -0.5153  1.7276
 1283TIP3   OH228043   3.613   0.739  10.600 -0.2688 -0.3774  0.2755
 1283TIP3    H128044   3.522   0.767  10.595 -0.7295 -1.8624 -0.2622
 1283TIP3    H228045   3.656   0.782  10.526 -0.3637  0.8356  0.9030
 1284TIP3   OH228046   8.565   7.899  10.316 -0.6643 -0.1240 -0.0206
 1284TIP3    H128047   8.533   7.905  10.405 -0.1229 -0.6614  0.2161
 1284TIP3    H228048   8.567   7.990  10.285 -2.0325 -0.0485  0.0778
 1285TIP3   OH228049   5.728   4.538  10.312 -0.0175  0.3020  0.1893
 1285TIP3    H128050   5.685   4.453  10.300  1.5443 -0.0894 -4.6676
 1285TIP3    H228051   5.678   4.599  10.258  0.9066  1.6910  0.8393
 1286TIP3   OH228052   6.620   7.142  10.948 -0.1232  0.2780 -0.0679
 1286TIP3    H128053   6.698   7.147  10.892 -0.2002 -1.8364 -0.4411
 1286TIP3    H228054   6.575   7.225  10.932  1.1029  0.7680 -1.2602
 1287TIP3   OH228055   0.394   8.997  10.417 -0.0995  0.1237 -0.3171
 1287TIP3    H128056   0.352   8.955  10.341  0.1432 -2.8393  1.0329
 1287TIP3    H228057   0.321   9.020  10.474 -0.1535 -0.2739 -0.2216
 1288TIP3   OH228058   5.383   2.156  10.898  0.8112 -0.1511  0.2716
 1288TIP3    H128059   5.308   2.122  10.849  1.0620 -0.4734  0.1086
 1288TIP3    H228060   5.395   2.093  10.970  1.4454 -0.5722 -0.1871
 1289TIP3   OH228061   8.920   6.734   9.642 -0.2666  0.1145 -0.3853
 1289TIP3    H128062   8.995   6.778   9.602 -0.7519  1.2711 -0.0527
 1289TIP3    H228063   8.959   6.670   9.702  0.4484 -0.1473 -1.1075
 1290TIP3   OH228064   5.369   0.842   9.686  0.1308 -0.4856  0.2333
 1290TIP3    H128065   5.460   0.823   9.708  0.4523  2.3829  1.8834
 1290TIP3    H228066   5.373   0.926   9.639 -1.7257  0.2632  1.3318
 1291TIP3   OH228067   0.723   5.513  10.955  0.0530  0.2230  0.4301
 1291TIP3    H128068   0.729   5.420  10.936 -0.0915 -0.3518  2.8695
 1291TIP3    H228069   0.814   5.541  10.968 -0.0323 -0.2937  2.4972
 1292TIP3   OH228070   7.349   4.010   9.366 -0.2324 -0.0079 -0.4284
 1292TIP3    H128071   7.358   4.093   9.320  0.9845  0.1618  0.0720
 1292TIP3    H228072   7.274   4.022   9.423  1.0919  1.4967  1.0984
 1293TIP3   OH228073   0.511   2.923  11.193  0.3091 -0.0217  0.2641
 1293TIP3    H128074   0.569   2.948  11.122 -0.0862  1.8092  0.5325
 1293TIP3    H228075   0.570   2.908  11.268  0.4465  2.4107  0.6973
 1294TIP3   OH228076   8.781   2.281  10.568  0.1706 -0.6062 -0.8040
 1294TIP3    H128077   8.750   2.365  10.600  1.8065 -0.1850 -0.2012
 1294TIP3    H228078   8.805   2.296  10.477  1.5697 -0.0511 -0.3817
 1295TIP3   OH228079   6.164   5.494  11.439 -0.2139  0.2860  0.1841
 1295TIP3    H128080   6.167   5.499  11.535  0.2895  0.4666  0.1617
 1295TIP3    H228081   6.226   5.560  11.409 -1.0739  0.8961 -0.2909
 1296TIP3   OH228082   1.920   0.572   9.383 -0.3022 -0.1551  0.5001
 1296TIP3    H128083   1.999   0.519   9.377 -0.5954 -0.5875  0.4831
 1296TIP3    H228084   1.848   0.509   9.382 -0.8792  0.3379 -3.3027
 1297TIP3   OH228085   3.144   8.432   9.814 -0.0558 -0.1275 -0.0628
 1297TIP3    H128086   3.088   8.361   9.782  0.6467 -0.4429 -0.6490
 1297TIP3    H228087   3.107   8.511   9.775 -0.6288 -0.2136  0.2971
 1298TIP3   OH228088   3.419   4.758  10.770 -0.1175 -0.3608 -0.8733
 1298TIP3    H128089   3.400   4.722  10.683  0.6985 -2.0662 -0.3856
 1298TIP3    H228090   3.364   4.707  10.829 -0.0084  0.1934 -0.2889
 1299TIP3   OH228091   8.834   0.948   9.326 -0.5968  0.1549  0.2101
 1299TIP3    H128092   8.847   0.891   9.250 -0.9567  0.0645  0.2118
 1299TIP3    H228093   8.747   0.986   9.313  0.0392  1.4783 -0.2839
 1300TIP3   OH228094   2.169   8.204  10.735 -0.3384 -0.0852 -0.1414
 1300TIP3    H128095   2.082   8.165  10.725 -1.2760  1.9983 -0.6926
 1300TIP3    H228096   2.155   8.280  10.792  1.6073 -1.0826  1.8106
 1301TIP3   OH228097   6.290   0.100   9.264 -0.0399  0.4920 -0.4248
 1301TIP3    H128098   6.251   0.170   9.211 -0.3197  0.1790 -0.6433
 1301TIP3    H228099   6.227   0.087   9.335  0.6981  1.4259  0.4242
 1302TIP3   OH228100   8.716   9.130  10.312 -0.3767  0.4320  0.4071
 1302TIP3    H128101   8.804   9.148  10.345  0.2080 -1.7921  0.2452
 1302TIP3    H228102   8.701   9.197  10.246  0.7652  1.4865  1.1831
 1303TIP3   OH228103   4.850   8.299  10.222  0.6528 -0.1747 -0.8615
 1303TIP3    H128104   4.851   8.226  10.161  1.6757 -2.0643  1.2649
 1303TIP3    H228105   4.942   8.317  10.240  0.3824  0.1988  0.2590
 1304TIP3   OH228106   2.887   3.521  10.413  0.4944  0.1243 -0.2089
 1304TIP3    H128107   2.966   3.571  10.430  1.2175 -1.1305  0.2731
 1304TIP3    H228108   2.817   3.585  10.413  1.3459  1.0759  0.7278
 1305TIP3   OH228109   7.205   1.115   9.778 -0.0680 -0.4641  0.0291
 1305TIP3    H128110   7.282   1.162   9.810 -0.5571  0.1293  0.3600
 1305TIP3    H228111   7.237   1.027   9.759  1.5220  0.6176 -3.1006
 1306TIP3   OH228112   8.271   0.229  11.004  0.0563 -0.5351 -0.5612
 1306TIP3    H128113   8.242   0.317  10.980 -0.4848 -0.6169 -0.2191
 1306TIP3    H228114   8.320   0.242  11.085  2.2461 -0.1995 -1.8453
 1307TIP3   OH228115   8.908   0.617   9.591 -0.3726  0.1521 -0.1818
 1307TIP3    H128116   8.914   0.567   9.673 -0.5083 -0.4789 -0.5483
 1307TIP3    H228117   8.993   0.603   9.548 -0.9668 -1.0644 -1.0109
 1308TIP3   OH228118   3.718   3.910  10.983 -1.0086  0.2071 -0.0441
 1308TIP3    H128119   3.782   3.980  10.964  1.0009 -1.6670 -0.6201
 1308TIP3    H228120   3.654   3.951  11.041  1.5835  1.8419  1.8856
 1309TIP3   OH228121   4.490   1.856   9.081  0.0751  0.3516  0.3323
 1309TIP3    H128122   4.535   1.778   9.048 -1.3152 -0.5379  0.4573
 1309TIP3    H228123   4.475   1.838   9.174  1.8373  1.8190  0.9704
 1310TIP3   OH228124   1.931   1.468   9.591  0.7977  0.6923  0.0296
 1310TIP3    H128125   1.996   1.483   9.522  1.5761 -0.0692  0.5727
 1310TIP3    H228126   1.904   1.377   9.578 -1.2919  1.4073 -1.1093
 1311TIP3   OH228127   6.532   2.989  10.001 -0.0522  0.4328  0.2022
 1311TIP3    H128128   6.454   2.977   9.947 -0.5111 -0.5638  1.0377
 1311TIP3    H228129   6.528   2.917  10.065  1.9094 -0.0516 -0.1524
 1312TIP3   OH228130   0.703   7.282  10.003  0.6451 -0.1959 -0.3445
 1312TIP3    H128131   0.620   7.240  10.024  1.0691 -0.5159  0.7686
 1312TIP3    H228132   0.688   7.324   9.918 -0.2639 -1.2787 -0.7419
 1313TIP3   OH228133   5.438   3.595  10.587  0.3244 -0.2389 -0.0408
 1313TIP3    H128134   5.435   3.557  10.499  2.3489  3.3049 -1.8950
 1313TIP3    H228135   5.369   3.661  10.587  1.6285  1.1881  0.1901
 1314TIP3   OH228136   2.818   8.538   9.111 -0.9230  0.3400 -0.2462
 1314TIP3    H128137   2.875   8.531   9.034  0.4771 -1.3995  0.8905
 1314TIP3    H228138   2.729   8.541   9.074 -0.2670  0.0062 -1.9389
 1315TIP3   OH228139   6.101   1.152  10.317 -0.0192 -0.0747  0.1072
 1315TIP3    H128140   6.180   1.098  10.321  0.3560  0.4799  0.2983
 1315TIP3    H228141   6.030   1.089  10.305  0.3220 -0.6936  1.1427
 1316TIP3   OH228142   2.866   5.452   9.661 -0.5142  0.3202  0.0002
 1316TIP3    H128143   2.895   5.496   9.741  1.3139  1.1459 -1.0777
 1316TIP3    H228144   2.840   5.523   9.603  0.0305 -0.1523 -0.8401
 1317TIP3   OH228145   3.700   1.302  10.097 -0.2513  0.0412 -0.4912
 1317TIP3    H128146   3.652   1.290  10.179  0.0273 -0.0082 -0.3344
 1317TIP3    H228147   3.642   1.355  10.042 -0.0309  0.9017  0.0927
 1318TIP3   OH228148   6.010   2.911  10.754 -0.1698 -0.0112  0.0082
 1318TIP3    H128149   6.037   2.961  10.677  0.8792 -0.1723  0.2615
 1318TIP3    H228150   6.025   2.971  10.828  0.7916 -0.5580  0.2827
 1319TIP3   OH228151   2.764   0.930  10.639  0.1726 -0.2378 -0.2108
 1319TIP3    H128152   2.821   0.933  10.562  0.2015 -0.9927 -0.2228
 1319TIP3    H228153   2.774   0.841  10.673 -0.2463 -0.0704  0.3587
 1320TIP3   OH228154   2.221   2.906   9.351  0.0408 -0.0137  0.0964
 1320TIP3    H128155   2.142   2.885   9.300  0.9543 -0.0356 -1.3445
 1320TIP3    H228156   2.219   3.001   9.360  0.6104  0.1390 -1.2362
 1321TIP3   OH228157   2.446   8.497  10.095  0.6691 -0.2659  0.0239
 1321TIP3    H128158   2.457   8.450  10.178  0.9967 -0.9021 -0.3633
 1321TIP3    H228159   2.473   8.586  10.114 -0.0039 -0.2141  0.7931
 1322TIP3   OH228160   5.976   4.522  10.191 -0.0143 -0.3264  0.5265
 1322TIP3    H128161   5.975   4.617  10.174  1.0694 -0.2154  0.9718
 1322TIP3    H228162   5.896   4.506  10.241  0.2313  0.5175  1.2227
 1323TIP3   OH228163   1.042   0.045  10.578 -0.0674 -0.2711  0.3895
 1323TIP3    H128164   0.965  -0.009  10.557  1.4208 -2.4378  0.1171
 1323TIP3    H228165   1.044   0.048  10.674 -0.8328  0.3572  0.3947
 1324TIP3   OH228166   7.891   0.725  11.014  0.1209  0.5300 -0.4130
 1324TIP3    H128167   7.799   0.710  10.989 -0.3405 -0.2625  1.5834
 1324TIP3    H228168   7.887   0.790  11.084  1.1979  1.2300 -0.9690
 1325TIP3   OH228169   6.221   2.401  10.622 -0.5979  0.9502  0.6794
 1325TIP3    H128170   6.189   2.362  10.704  0.9413 -0.7439  0.5435
 1325TIP3    H228171   6.168   2.360  10.554 -0.7756  1.1254  0.7107
 1326TIP3   OH228172   0.185   5.258  10.972  0.2440  0.1764  0.1828
 1326TIP3    H128173   0.108   5.232  11.023 -0.6546  1.0270 -0.6903
 1326TIP3    H228174   0.222   5.175  10.940 -1.6579 -0.1849 -1.2627
 1327TIP3   OH228175   0.852   1.384  10.070  0.6069 -0.3747  0.5483
 1327TIP3    H128176   0.812   1.309  10.114 -0.1095 -0.5780 -0.4191
 1327TIP3    H228177   0.939   1.393  10.111  0.2287 -0.9675  1.5086
 1328TIP3   OH228178   5.316   1.727  10.751  0.2841  0.2473 -0.2702
 1328TIP3    H128179   5.403   1.712  10.789  0.3687  1.6124  0.1054
 1328TIP3    H228180   5.303   1.652  10.693  1.2096 -0.5876  0.5617
 1329TIP3   OH228181   5.878   0.780  10.013  0.5987  0.1303 -0.1511
 1329TIP3    H128182   5.788   0.746  10.007  0.8520 -0.4573 -0.7686
 1329TIP3    H228183   5.901   0.767  10.105  0.2099 -0.1518 -0.0860
 1330TIP3   OH228184   6.209   8.500  10.890 -0.0396 -0.7614  0.5353
 1330TIP3    H128185   6.259   8.504  10.971  0.2663  1.6540  0.2854
 1330TIP3    H228186   6.263   8.446  10.831  3.1232  2.6918 -0.1531
 1331TIP3   OH228187   0.689   7.002  10.792  0.5183  0.1187  0.4590
 1331TIP3    H128188   0.770   7.052  10.805 -0.4315  1.3841  1.7711
 1331TIP3    H228189   0.665   7.021  10.701  2.6071 -1.7473 -0.5781
 1332TIP3   OH228190   8.422   0.346  11.232  0.6755  0.0201  0.2059
 1332TIP3    H128191   8.390   0.433  11.209  0.3595 -0.3538 -0.8392
 1332TIP3    H228192   8.487   0.326  11.164  1.5792 -0.1123  1.0828
 1333TIP3   OH228193   8.261   6.760   9.875  0.0508 -0.4405  0.0832
 1333TIP3    H128194   8.279   6.831   9.937 -0.9741 -1.2567  1.3746
 1333TIP3    H228195   8.318   6.778   9.800 -0.5699  2.0220  0.1415
 1334TIP3   OH228196   0.699   0.411  10.842 -0.1390  0.0129 -0.0627
 1334TIP3    H128197   0.785   0.410  10.800  0.7542 -0.4470  1.6823
 1334TIP3    H228198   0.654   0.335  10.807  1.5284 -1.8394  1.5706
 1335TIP3   OH228199   4.181   6.660  11.189  0.5163 -0.9801 -0.4556
 1335TIP3    H128200   4.268   6.660  11.229 -0.6826  1.8944  2.6687
 1335TIP3    H228201   4.174   6.745  11.145 -1.2207 -0.3353  0.9239
 1336TIP3   OH228202   3.658   0.447  10.385 -0.1142 -0.2041  0.3190
 1336TIP3    H128203   3.650   0.381  10.316  1.2895 -0.8946  0.7898
 1336TIP3    H228204   3.682   0.527  10.338 -0.1898 -0.4117 -0.0822
 1337TIP3   OH228205   6.590   7.827   9.880 -0.0636  0.0718 -0.2691
 1337TIP3    H128206   6.686   7.827   9.869  0.0125  1.2667  0.2326
 1337TIP3    H228207   6.557   7.809   9.792  0.6236  0.6555 -0.6659
 1338TIP3   OH228208   8.772   0.100  10.611 -0.1819  0.7728 -0.4965
 1338TIP3    H128209   8.679   0.080  10.604 -0.4433  1.5716  0.4963
 1338TIP3    H228210   8.800   0.056  10.692  0.1994  0.9217 -0.5432
 1339TIP3   OH228211   5.886   0.043  10.061 -0.5949  0.5650  0.2044
 1339TIP3    H128212   5.878   0.124  10.010 -0.7976 -0.2941 -1.1901
 1339TIP3    H228213   5.934   0.069  10.140 -1.3390  2.1863  0.1545
 1340TIP3   OH228214   5.990   8.330  11.128 -0.1464 -0.0808 -0.3100
 1340TIP3    H128215   5.962   8.248  11.167 -0.3449  0.4341  0.6645
 1340TIP3    H228216   6.084   8.333  11.144 -0.3198  0.4075  0.6974
 1341TIP3   OH228217   3.588   4.929  10.493  0.0706 -0.3453 -0.5507
 1341TIP3    H128218   3.547   4.912  10.578 -0.3391  0.7076 -0.5209
 1341TIP3    H228219   3.565   4.853  10.440  2.3800 -2.2687  0.9571
 1342TIP3   OH228220   4.095   1.976   9.068 -0.2329 -0.0649  0.2062
 1342TIP3    H128221   4.028   1.943   9.007 -0.2678  0.7935 -0.2385
 1342TIP3    H228222   4.164   2.011   9.011 -0.8966  2.0300  0.6039
 1343TIP3   OH228223   6.899   4.804   9.237 -0.3066 -0.1332  0.1627
 1343TIP3    H128224   6.966   4.871   9.223 -0.8310  0.0069 -1.8558
 1343TIP3    H228225   6.831   4.849   9.287  0.0551  0.3657  0.2141
 1344TIP3   OH228226   5.345   0.748  11.117 -0.2155 -0.7499  0.0705
 1344TIP3    H128227   5.255   0.775  11.133 -0.0232  0.3680 -0.6025
 1344TIP3    H228228   5.392   0.830  11.102  0.6461 -1.3932 -0.8699
 1345TIP3   OH228229   6.742   2.603  10.389 -0.0516 -0.2833  0.4493
 1345TIP3    H128230   6.651   2.629  10.375  0.4755  0.9132 -1.1197
 1345TIP3    H228231   6.748   2.515  10.351 -1.1777 -1.6658  3.2064
 1346TIP3   OH228232   8.371   2.962  10.638 -0.0934  0.2230  0.4924
 1346TIP3    H128233   8.406   2.883  10.679 -1.1585 -0.2580  0.5122
 1346TIP3    H228234   8.406   3.034  10.691 -0.3341 -0.3164  1.4076
 1347TIP3   OH228235   6.005   6.901  11.142  0.1666 -0.0344  0.1450
 1347TIP3    H128236   5.986   6.924  11.233  0.0796  0.6155 -0.0336
 1347TIP3    H228237   6.002   6.984  11.095  0.6599 -0.3042 -0.3761
 1348TIP3   OH228238   4.583   0.081  10.224 -0.3126 -0.4369  0.4062
 1348TIP3    H128239   4.499   0.083  10.271 -0.8911  1.8767 -0.5740
 1348TIP3    H228240   4.564   0.033  10.143 -0.2070 -1.4208  0.9466
 1349TIP3   OH228241   4.549   8.854  10.882 -0.4912  0.0717  0.4855
 1349TIP3    H128242   4.573   8.932  10.833 -0.2891  0.8829  1.8362
 1349TIP3    H228243   4.465   8.827  10.845 -0.4331  0.7630 -0.1697
 1350TIP3   OH228244   3.690   2.621   9.889 -0.2652  0.1853 -0.2104
 1350TIP3    H128245   3.732   2.707   9.889 -0.9250  0.5300  0.5668
 1350TIP3    H228246   3.644   2.618   9.973 -0.9639 -0.5723 -0.6094
 1351TIP3   OH228247   5.097   2.245  10.773 -0.1924 -0.0473  0.4211
 1351TIP3    H128248   5.051   2.177  10.723  2.7776 -1.4700 -0.5951
 1351TIP3    H228249   5.081   2.222  10.865  0.9853 -2.4137  0.1083
 1352TIP3   OH228250   8.946   4.062  10.665 -0.6171  0.1044 -0.1524
 1352TIP3    H128251   8.875   4.105  10.712  0.2994  3.6594 -1.7016
 1352TIP3    H228252   8.904   4.015  10.594 -1.5363  0.6436  0.0227
 1353TIP3   OH228253   1.430   3.925   9.862  0.2994  0.3153  0.0121
 1353TIP3    H128254   1.505   3.914   9.804  1.2457 -0.5132  1.3633
 1353TIP3    H228255   1.418   4.020   9.868 -0.4117  0.4250 -2.2363
 1354TIP3   OH228256   0.809   2.768   9.485  0.0674  0.3224  0.2060
 1354TIP3    H128257   0.748   2.697   9.463  0.8897 -0.5107  0.5327
 1354TIP3    H228258   0.823   2.758   9.579  2.3250 -0.8527 -0.1888
 1355TIP3   OH228259   4.348   8.687  10.077  0.2054  0.2343 -0.0976
 1355TIP3    H128260   4.431   8.723  10.107  1.1116 -0.5383 -1.5201
 1355TIP3    H228261   4.307   8.759  10.029 -0.2407  0.7992  1.1040
 1356TIP3   OH228262   5.156   5.857  10.030 -0.0330  0.0837  0.3314
 1356TIP3    H128263   5.119   5.926   9.975  0.1108 -0.5723 -0.6020
 1356TIP3    H228264   5.249   5.879  10.037 -0.1967  0.6227  1.0259
 1357TIP3   OH228265   4.507   9.055   9.702 -0.5908 -0.1092  0.4712
 1357TIP3    H128266   4.510   9.059   9.607 -1.0372 -1.6955  0.3638
 1357TIP3    H228267   4.599   9.042   9.728 -0.6711 -1.6626  0.1013
 1358TIP3   OH228268   6.690   1.939   9.549 -0.6304 -0.9340 -0.3274
 1358TIP3    H128269   6.662   1.991   9.624 -0.6053 -0.3373 -0.7245
 1358TIP3    H228270   6.785   1.949   9.547 -0.7839  0.4931 -1.4672
 1359TIP3   OH228271   5.934   6.192  11.155 -0.0372  0.1850  0.1046
 1359TIP3    H128272   5.851   6.150  11.177  0.4682 -0.0235  1.7203
 1359TIP3    H228273   5.989   6.121  11.122 -0.2667  0.1971 -0.3076
 1360TIP3   OH228274   8.019   7.252   9.962  0.3965 -0.0363 -0.0954
 1360TIP3    H128275   8.084   7.314   9.932 -0.0601 -0.2071 -1.5014
 1360TIP3    H228276   7.965   7.301  10.024  0.9197  0.5333 -0.0873
 1361TIP3   OH228277   6.088   5.930  10.920 -0.3859 -0.3494 -0.3066
 1361TIP3    H128278   6.010   5.885  10.951  0.8972 -0.8819  2.3923
 1361TIP3    H228279   6.148   5.860  10.895 -0.1571  0.0218 -0.8248
 1362TIP3   OH228280   7.465   4.025  10.619  0.3693 -0.6319 -0.3500
 1362TIP3    H128281   7.410   3.947  10.624  1.7491 -1.6327 -0.2809
 1362TIP3    H228282   7.414   4.093  10.663 -1.2902 -1.2105 -1.2970
 1363TIP3   OH228283   3.488   8.300  11.159  0.3656 -0.0054 -0.2126
 1363TIP3    H128284   3.503   8.218  11.113  0.5276  1.6500 -3.3886
 1363TIP3    H228285   3.393   8.302  11.175  0.4571 -1.0745  0.5448
 1364TIP3   OH228286   1.568   7.038  10.095 -0.2429 -0.5680  0.0146
 1364TIP3    H128287   1.573   7.080  10.009  0.6120 -0.3890  0.1420
 1364TIP3    H228288   1.576   7.110  10.157  1.8325 -0.9461  0.2367
 1365TIP3   OH228289   2.964   3.190   9.568  0.0825  0.1975 -0.2600
 1365TIP3    H128290   2.899   3.163   9.632  0.0937  1.6310  0.3894
 1365TIP3    H228291   2.963   3.285   9.570  0.3012  0.2968 -2.1897
 1366TIP3   OH228292   1.248   0.485   9.712 -0.2239  0.2874  0.1060
 1366TIP3    H128293   1.182   0.415   9.717  0.7846 -0.6166  1.9293
 1366TIP3    H228294   1.214   0.553   9.770  0.2293 -0.0299  0.7647
 1367TIP3   OH228295   6.698   8.744  11.038 -0.1206 -0.4000 -0.5225
 1367TIP3    H128296   6.783   8.764  10.998 -0.1588  0.9709  0.0296
 1367TIP3    H228297   6.705   8.779  11.127 -2.0573  1.9075 -1.1862
 1368TIP3   OH228298   6.226   7.995  10.111 -0.2280 -0.2303 -0.4000
 1368TIP3    H128299   6.180   7.985  10.195  2.2246 -1.0291  0.9490
 1368TIP3    H228300   6.203   8.084  10.083 -3.0985 -0.8159 -0.2219
 1369TIP3   OH228301   3.146   8.934  10.410  0.2145  0.0294  0.3071
 1369TIP3    H128302   3.116   8.905  10.324 -0.3860 -1.1867  0.9066
 1369TIP3    H228303   3.162   9.028  10.399  1.7802 -0.3834 -1.5764
 1370TIP3   OH228304   0.705   4.425   9.842  0.4275 -0.6153  0.7647
 1370TIP3    H128305   0.687   4.506   9.794  1.2234 -0.0114  1.4487
 1370TIP3    H228306   0.801   4.417   9.839  0.3098 -1.9822 -0.0096
 1371TIP3   OH228307   4.685   1.369  10.516  0.1498  0.1913  0.3545
 1371TIP3    H128308   4.629   1.444  10.495 -0.4151  0.1358  1.5711
 1371TIP3    H228309   4.742   1.401  10.587  0.3580 -0.3365  0.4278
 1372TIP3   OH228310   6.724   6.255  10.255  0.6667  0.1485  0.0860
 1372TIP3    H128311   6.681   6.178  10.292  0.1983  1.0283  1.4855
 1372TIP3    H228312   6.693   6.328  10.309  1.1668  1.3135 -1.1347
 1373TIP3   OH228313   7.035   3.038  11.317 -0.6694 -0.0202  0.0402
 1373TIP3    H128314   7.038   2.958  11.265 -0.2031  0.6987 -1.0863
 1373TIP3    H228315   6.973   3.094  11.272 -0.3265  0.5909  0.3111
 1374TIP3   OH228316   6.421   3.111  10.441 -0.4596 -0.0364  0.6387
 1374TIP3    H128317   6.469   3.062  10.508  0.5666 -0.0327 -0.0854
 1374TIP3    H228318   6.386   3.043  10.383 -2.0457 -0.0928  1.5975
 1375TIP3   OH228319   2.689   3.930  10.584 -0.1283 -0.0284 -0.3153
 1375TIP3    H128320   2.679   4.009  10.531  2.2294  1.2997  1.0776
 1375TIP3    H228321   2.699   3.860  10.520 -1.1173  0.9338 -1.5841
 1376TIP3   OH228322   6.008   8.757  10.582 -0.0299  0.3887  0.3105
 1376TIP3    H128323   5.927   8.757  10.634 -0.7992  1.5544 -0.8222
 1376TIP3    H228324   6.030   8.664  10.571 -0.7450  0.0815  1.3259
 1377TIP3   OH228325   8.607   5.578  10.102 -0.0219  0.2104  0.3263
 1377TIP3    H128326   8.533   5.637  10.115 -0.1256 -0.0064  0.7419
 1377TIP3    H228327   8.622   5.579  10.008 -0.7303  0.0418  0.2062
 1378TIP3   OH228328   6.026   7.137  10.846 -0.1605  0.3355 -0.0129
 1378TIP3    H128329   6.011   7.079  10.772  0.5022  0.8869 -0.5852
 1378TIP3    H228330   6.016   7.225  10.810 -0.3479  0.5980  0.6657
 1379TIP3   OH228331   4.411   6.909   9.730 -0.0396 -0.4439 -0.4023
 1379TIP3    H128332   4.336   6.969   9.738 -1.2860 -1.8170 -1.2081
 1379TIP3    H228333   4.424   6.875   9.819 -0.0026  0.2320 -0.1466
 1380TIP3   OH228334   8.076   2.487   9.307 -0.3269 -0.5411  0.0716
 1380TIP3    H128335   8.006   2.450   9.360 -1.7250  1.4438 -0.2534
 1380TIP3    H228336   8.064   2.582   9.315  2.9309 -0.0662  0.7655
 1381TIP3   OH228337   5.650   0.574   9.955  0.0688 -0.3734 -0.1674
 1381TIP3    H128338   5.642   0.485   9.920  1.1649  0.2754 -2.2485
 1381TIP3    H228339   5.680   0.626   9.881  0.9133  1.4533  1.3686
 1382TIP3   OH228340   3.608   3.707  10.838  0.5270  0.1281 -0.7099
 1382TIP3    H128341   3.513   3.717  10.845  0.5715  0.3616 -0.4248
 1382TIP3    H228342   3.643   3.775  10.895  0.8616 -0.5632 -0.0750
 1383TIP3   OH228343   1.415   3.027   9.788 -0.5295 -0.2028 -0.2965
 1383TIP3    H128344   1.489   3.005   9.731 -0.6041  1.0721 -0.9163
 1383TIP3    H228345   1.413   2.957   9.853 -0.7081 -1.9465 -2.0925
 1384TIP3   OH228346   3.561   4.713  10.292  0.0709 -0.0937 -0.1093
 1384TIP3    H128347   3.525   4.761  10.217 -0.2758  1.1959  0.8433
 1384TIP3    H228348   3.644   4.678  10.260 -1.5024 -2.3704 -2.0890
 1385TIP3   OH228349   7.086   4.228  11.064  0.2447 -0.1903  0.3434
 1385TIP3    H128350   6.996   4.229  11.034  1.1802 -0.6301 -2.8514
 1385TIP3    H228351   7.109   4.135  11.070  0.8127 -0.0850 -0.0621
 1386TIP3   OH228352   1.483   0.708  10.706 -0.1135  0.0605  0.4016
 1386TIP3    H128353   1.509   0.800  10.703 -1.6924  0.5526  0.6576
 1386TIP3    H228354   1.464   0.685  10.615  2.4683 -0.7346 -0.0039
 1387TIP3   OH228355   6.368   3.001  11.043  0.6777 -0.1682 -0.0929
 1387TIP3    H128356   6.337   2.947  11.115 -0.6181 -0.0877 -0.5748
 1387TIP3    H228357   6.289   3.039  11.004  1.4240  0.6428 -0.8903
 1388TIP3   OH228358   8.010   7.797  10.277 -0.2358  0.4956  0.0253
 1388TIP3    H128359   8.089   7.771  10.230 -0.5890 -0.8547  0.1513
 1388TIP3    H228360   8.007   7.892  10.267 -0.2554  0.2873 -2.6258
 1389TIP3   OH228361   3.838   1.833  10.728  0.2882 -0.3291 -0.4061
 1389TIP3    H128362   3.814   1.787  10.648 -0.6044 -0.1739 -0.2319
 1389TIP3    H228363   3.758   1.877  10.756  0.4739 -0.7034  0.7808
 1390TIP3   OH228364   5.528   7.349   9.850  0.3742  0.1765  0.1567
 1390TIP3    H128365   5.585   7.275   9.829  1.4007  0.4788  1.6706
 1390TIP3    H228366   5.542   7.412   9.780 -1.5638 -1.5452 -1.9322
 1391TIP3   OH228367   1.466   2.919   9.495  0.9758  0.4239  0.1890
 1391TIP3    H128368   1.539   2.915   9.555  1.0218  0.1598  0.1159
 1391TIP3    H228369   1.476   2.842   9.439  0.5453  0.2886  0.2927
 1392TIP3   OH228370   4.369   5.797  10.340 -0.1180  0.4119  0.0501
 1392TIP3    H128371   4.347   5.730  10.406 -1.8091  0.8335 -0.0306
 1392TIP3    H228372   4.439   5.848  10.381  0.6523 -0.8860  0.4468
 1393TIP3   OH228373   5.121   7.601  10.347  0.1145 -0.1718 -0.0417
 1393TIP3    H128374   5.095   7.647  10.268 -0.2994 -1.6278 -0.8020
 1393TIP3    H228375   5.039   7.581  10.392  0.4047  1.8139  1.5074
 1394TIP3   OH228376   0.489   0.164   9.370 -0.4038  0.1198  0.2749
 1394TIP3    H128377   0.473   0.243   9.318  1.8192 -0.1389 -0.9278
 1394TIP3    H228378   0.409   0.112   9.360 -0.9568  1.1386 -0.9567
 1395TIP3   OH228379   6.754   3.297  10.784 -0.1056 -0.3055 -0.2718
 1395TIP3    H128380   6.835   3.268  10.826  0.8040 -0.1949 -1.8879
 1395TIP3    H228381   6.717   3.361  10.845  0.7221 -0.7645  0.7459
 1396TIP3   OH228382   3.038   1.621   9.763 -0.2901  0.3602 -0.1312
 1396TIP3    H128383   3.040   1.656   9.674  0.6235  1.6817  0.3878
 1396TIP3    H228384   3.129   1.623   9.793  0.2446 -4.2637 -0.6765
 1397TIP3   OH228385   2.943   0.511  10.019  0.1887  0.3562  0.0154
 1397TIP3    H128386   2.901   0.532   9.936  0.9065  0.7577 -0.2566
 1397TIP3    H228387   3.036   0.504   9.997  0.1390 -2.2316  0.2466
 1398TIP3   OH228388   2.962   2.118  11.238 -0.0626 -0.1072  0.0836
 1398TIP3    H128389   2.884   2.098  11.187  0.9233  0.3117 -1.6814
 1398TIP3    H228390   2.939   2.096  11.328 -1.1463 -3.1436 -0.7986
 1399TIP3   OH228391   6.716   7.806  10.169  0.0096 -0.7094 -0.4212
 1399TIP3    H128392   6.702   7.714  10.145 -1.6260 -0.7516  0.5053
 1399TIP3    H228393   6.746   7.803  10.260 -0.9152 -0.3167 -0.0908
 1400TIP3   OH228394   5.720   2.905  10.587  0.0343 -0.7305  0.4409
 1400TIP3    H128395   5.729   2.956  10.667 -1.5686 -1.1455  0.9288
 1400TIP3    H228396   5.781   2.831  10.599  0.9416  0.0160  0.5655
 1401TIP3   OH228397   2.557   5.836  10.785 -0.3721  0.0058  0.7222
 1401TIP3    H128398   2.519   5.750  10.806 -1.9614  0.2939 -0.8144
 1401TIP3    H228399   2.628   5.816  10.723  0.3973 -0.3117  1.6736
 1402TIP3   OH228400   6.976   0.723  10.476  0.2672  0.4733 -0.1738
 1402TIP3    H128401   6.974   0.759  10.565  0.6373  0.9765 -0.3683
 1402TIP3    H228402   7.068   0.728  10.449  0.6037 -1.8821  0.2958
 1403TIP3   OH228403   6.590   0.467  10.334 -0.1096  0.4554 -0.3000
 1403TIP3    H128404   6.659   0.463  10.268  2.0225 -2.0052  1.8436
 1403TIP3    H228405   6.636   0.476  10.417 -2.2872 -1.5795  1.2860
 1404TIP3   OH228406   0.310   1.582   9.550  0.1150  0.0525  0.8484
 1404TIP3    H128407   0.219   1.564   9.574 -0.3565 -0.7944 -1.3384
 1404TIP3    H228408   0.349   1.496   9.536  1.6737  0.3396  3.0002
 1405TIP3   OH228409   5.861   1.908  11.325 -0.2040 -0.0745  0.5039
 1405TIP3    H128410   5.919   1.983  11.312  0.1955 -0.3303  0.7941
 1405TIP3    H228411   5.822   1.923  11.411  0.3971 -0.5398  0.8660
 1406TIP3   OH228412   6.535   8.555  10.888 -0.1684  0.3035  0.3843
 1406TIP3    H128413   6.565   8.464  10.887 -1.3030 -0.1198  2.0158
 1406TIP3    H228414   6.597   8.600  10.946 -0.1970  0.3685  0.3647
 1407TIP3   OH228415   7.073   0.973  10.636  0.4998 -0.0585  0.2487
 1407TIP3    H128416   7.160   0.962  10.675  0.1722  0.1155  1.0513
 1407TIP3    H228417   7.016   0.916  10.687 -0.2158  1.2945  1.0369
 1408TIP3   OH228418   7.205   3.971  11.143 -0.1629 -0.1767  0.2132
 1408TIP3    H128419   7.286   4.021  11.149 -0.7412  0.6878  1.2923
 1408TIP3    H228420   7.231   3.887  11.106  1.1971  0.1404  0.3935
 1409TIP3   OH228421   4.019   6.543   9.935 -0.1826 -0.7964  0.3280
 1409TIP3    H128422   4.021   6.616   9.873 -0.3341  0.4986  1.7970
 1409TIP3    H228423   3.982   6.471   9.885 -3.3032  1.0346 -0.2667
 1410TIP3   OH228424   6.136   3.845  10.988 -0.4379  0.4759  0.4058
 1410TIP3    H128425   6.109   3.844  11.080 -0.5312  1.8359  0.4105
 1410TIP3    H228426   6.069   3.896  10.943  0.8741  1.9268  0.0249
 1411TIP3   OH228427   3.676   5.542  10.406  0.0540  0.1225  0.3758
 1411TIP3    H128428   3.748   5.557  10.345  0.6052  1.9872  1.3796
 1411TIP3    H228429   3.718   5.509  10.485 -0.1371  1.3285  1.0058
 1412TIP3   OH228430   7.622   2.922  11.039  0.0132 -0.8218  0.3397
 1412TIP3    H128431   7.630   2.828  11.019 -1.0885 -0.8584  0.0280
 1412TIP3    H228432   7.551   2.952  10.983 -0.0081  0.0896  0.8448
 1413TIP3   OH228433   3.266   5.703   9.350  0.2453 -0.4831 -0.1325
 1413TIP3    H128434   3.181   5.666   9.372  0.8246 -1.2428  0.9095
 1413TIP3    H228435   3.275   5.688   9.256  0.5122 -3.1983  0.2556
 1414TIP3   OH228436   7.344   6.540  10.790  0.0103  0.4968 -0.4965
 1414TIP3    H128437   7.385   6.458  10.817 -1.4118  0.0632  0.4687
 1414TIP3    H228438   7.276   6.513  10.728  2.1565  1.3482 -3.4572
 1415TIP3   OH228439   8.258   0.726   9.375 -0.2848  0.0965  0.5075
 1415TIP3    H128440   8.223   0.676   9.449 -0.1001  0.0796  0.5834
 1415TIP3    H228441   8.278   0.812   9.412 -1.3519  0.4981  0.2022
 1416TIP3   OH228442   7.247   5.287   9.966 -0.2721  0.4768 -0.1790
 1416TIP3    H128443   7.301   5.354   9.923 -0.4377  1.6775  1.3865
 1416TIP3    H228444   7.297   5.206   9.956  1.4046  1.3855  0.4130
 1417TIP3   OH228445   8.959   1.561  10.895 -0.4688  0.1861  0.1081
 1417TIP3    H128446   9.053   1.543  10.888 -0.3456  1.3102 -1.9121
 1417TIP3    H228447   8.918   1.474  10.899  0.5033 -0.4519 -2.0998
 1418TIP3   OH228448   0.552   0.199  10.740  0.2352  0.0806  0.2898
 1418TIP3    H128449   0.596   0.118  10.766 -0.6655 -0.7864 -0.7953
 1418TIP3    H228450   0.465   0.193  10.779  0.1437  0.4974  0.1556
 1419TIP3   OH228451   5.183   4.520  10.110 -0.5702 -0.0128 -0.2474
 1419TIP3    H128452   5.135   4.448  10.070 -0.6059 -0.8078  1.1407
 1419TIP3    H228453   5.272   4.512  10.076 -0.1791 -1.6983  1.0324
 1420TIP3   OH228454   4.344   1.865  10.985 -0.3485 -0.4750 -0.5795
 1420TIP3    H128455   4.262   1.890  11.029  0.5670  0.6848  0.5775
 1420TIP3    H228456   4.380   1.949  10.954  1.1644 -0.7451  0.3587
 1421TIP3   OH228457   6.026   4.560  10.532  0.1247 -0.3169 -0.1902
 1421TIP3    H128458   6.071   4.500  10.591  0.0006 -1.3155 -1.0661
 1421TIP3    H228459   6.095   4.603  10.483  0.1805 -0.8479 -0.5874
 1422TIP3   OH228460   5.842   4.947  11.361  0.3258  0.3648  1.1189
 1422TIP3    H128461   5.841   4.852  11.350 -0.6963  0.2847  1.7311
 1422TIP3    H228462   5.763   4.977  11.316  1.2493  1.0731 -0.0988
 1423TIP3   OH228463   6.626   3.453   9.934  0.2143  0.2371  0.1139
 1423TIP3    H128464   6.567   3.511   9.887  0.2673  0.2770  0.0964
 1423TIP3    H228465   6.694   3.431   9.871  1.7658  2.3942  0.9282
 1424TIP3   OH228466   1.682   4.669  10.735  0.3051  0.3385  0.0253
 1424TIP3    H128467   1.666   4.615  10.658  1.7399 -0.6016  0.3490
 1424TIP3    H228468   1.660   4.613  10.809  1.7496  0.1783  0.3607
 1425TIP3   OH228469   2.888   8.685   9.410 -0.1181 -0.1400  0.2366
 1425TIP3    H128470   2.913   8.694   9.318  0.1337  0.3927  0.3538
 1425TIP3    H228471   2.803   8.641   9.407  0.1621 -0.6552 -0.2220
 1426TIP3   OH228472   0.640   4.275  11.089 -0.2297  0.5662  0.2629
 1426TIP3    H128473   0.597   4.301  11.008 -1.6901  0.1478  0.8674
 1426TIP3    H228474   0.593   4.197  11.118  1.7161 -0.6487  0.3658
 1427TIP3   OH228475   1.036   0.269  10.118 -0.4114  0.7686 -0.7846
 1427TIP3    H128476   1.029   0.240  10.209 -2.4308 -1.3712 -1.4949
 1427TIP3    H228477   0.978   0.344  10.112 -1.0508  0.3123 -0.4799
 1428TIP3   OH228478   0.523   4.924   9.839 -0.2224 -0.6177  0.1653
 1428TIP3    H128479   0.494   4.863   9.771 -0.8748 -0.6982  0.5025
 1428TIP3    H228480   0.454   4.990   9.842  1.5121  1.4363 -1.7428
 1429TIP3   OH228481   0.256   8.003  10.589  0.1914  0.5406 -0.3374
 1429TIP3    H128482   0.302   8.071  10.539  0.6522  0.8286  0.4536
 1429TIP3    H228483   0.164   8.011  10.562  0.5674 -0.0259 -1.9249
 1430TIP3   OH228484   2.138   5.300  10.591  0.6280  0.1346  0.5070
 1430TIP3    H128485   2.110   5.355  10.664 -1.2481 -0.2996  0.1670
 1430TIP3    H228486   2.071   5.232  10.585  1.5054 -0.6644 -0.7208
 1431TIP3   OH228487   8.580   1.434   8.694  0.1582 -0.5347 -1.0477
 1431TIP3    H128488   8.564   1.427   8.599 -0.4168  0.4337 -1.0356
 1431TIP3    H228489   8.613   1.523   8.706 -0.5777 -0.3631 -0.2271
 1432TIP3   OH228490   7.617   6.080   9.923 -0.9363 -0.7158  0.2871
 1432TIP3    H128491   7.689   6.125   9.879 -0.7118 -2.9269 -1.7616
 1432TIP3    H228492   7.546   6.145   9.924  0.4381  0.8698  0.6937
 1433TIP3   OH228493   3.152   3.694  10.376 -0.0807 -0.1201  0.0642
 1433TIP3    H128494   3.236   3.664  10.410  0.2230 -0.5686 -1.0378
 1433TIP3    H228495   3.112   3.742  10.449  1.1198  0.0862  0.6069
 1434TIP3   OH228496   3.707   0.643  10.221  0.2817 -0.2353  0.2065
 1434TIP3    H128497   3.782   0.663  10.164 -0.1396 -0.0620 -0.3017
 1434TIP3    H228498   3.632   0.638  10.161 -0.2277  0.2469  0.7834
 1435TIP3   OH228499   7.876   4.266  10.684  0.3190  0.2191  0.8425
 1435TIP3    H128500   7.799   4.322  10.700 -1.3431 -1.1093 -1.7658
 1435TIP3    H228501   7.897   4.279  10.592  2.2928 -0.6440  1.1180
 1436TIP3   OH228502   4.055   0.091   9.646 -0.3295  0.0459 -0.7594
 1436TIP3    H128503   3.977   0.072   9.594  1.3205 -1.8413 -2.6933
 1436TIP3    H228504   4.096   0.165   9.601 -0.1414 -0.0316 -0.7153
 1437TIP3   OH228505   5.799   4.309  10.022  0.4206 -0.3215  0.0001
 1437TIP3    H128506   5.801   4.258   9.941 -2.0536 -1.0601  0.3212
 1437TIP3    H228507   5.826   4.397   9.996  0.0128 -0.6242 -1.5453
 1438TIP3   OH228508   3.979   3.087  10.218 -0.0228 -0.2875 -0.5451
 1438TIP3    H128509   3.894   3.128  10.205 -0.7870 -1.5964  0.0766
 1438TIP3    H228510   3.978   3.058  10.310  0.5652 -1.4481 -0.8846
 1439TIP3   OH228511   7.468   5.122  10.461  0.4790 -0.0792 -0.0824
 1439TIP3    H128512   7.496   5.095  10.373 -1.6935 -0.8935 -0.5811
 1439TIP3    H228513   7.510   5.208  10.473  2.3866 -0.8068 -1.0805
 1440TIP3   OH228514   1.808   3.730   9.938  0.3062 -0.0910 -0.5328
 1440TIP3    H128515   1.723   3.707   9.899  0.4170 -0.2639 -0.6753
 1440TIP3    H228516   1.857   3.768   9.866  0.4833 -0.3349 -0.5408
 1441TIP3   OH228517   8.759   5.292  11.213  0.6777  0.2847  0.5257
 1441TIP3    H128518   8.715   5.283  11.129 -2.4100  0.5054  1.9952
 1441TIP3    H228519   8.757   5.386  11.231  4.7013  0.7898 -0.6980
 1442TIP3   OH228520   5.468   2.293  11.160 -0.1136  0.1729 -0.1962
 1442TIP3    H128521   5.412   2.215  11.156 -0.7768  0.6016  0.3910
 1442TIP3    H228522   5.412   2.365  11.130 -0.5792  0.9470  2.2815
 1443TIP3   OH228523   0.170   3.352  10.388 -0.2376  0.1336 -0.2609
 1443TIP3    H128524   0.077   3.345  10.367 -0.3785  2.0811 -0.4822
 1443TIP3    H228525   0.212   3.371  10.304  0.2687 -0.0766 -0.0559
 1444TIP3   OH228526   1.279   3.704  10.650 -0.3327  0.4188 -0.2559
 1444TIP3    H128527   1.281   3.609  10.646 -0.5100  0.3412  1.2158
 1444TIP3    H228528   1.238   3.731  10.567  0.0378 -0.7531 -0.8335
 1445TIP3   OH228529   3.211   1.723  11.071 -0.0649  0.0532 -0.1259
 1445TIP3    H128530   3.275   1.696  11.005 -0.5305 -0.7166 -0.2773
 1445TIP3    H228531   3.262   1.732  11.152  0.8694  2.7985 -0.9081
 1446TIP3   OH228532   7.838   1.367  11.273  1.1111  0.1414 -0.2829
 1446TIP3    H128533   7.885   1.284  11.265  0.2710 -0.5297  1.2936
 1446TIP3    H228534   7.896   1.422  11.327  0.7333 -0.1743  0.4483
 1447TIP3   OH228535   1.839   1.103  11.035 -0.3607 -0.0645 -0.2408
 1447TIP3    H128536   1.744   1.103  11.021 -0.5262  2.1404  0.4068
 1447TIP3    H228537   1.876   1.129  10.951 -0.4418  0.4671 -0.1149
 1448TIP3   OH228538   6.711   8.376   9.690  0.0901 -0.3007  0.2479
 1448TIP3    H128539   6.648   8.438   9.727  0.3507 -0.6438  1.3288
 1448TIP3    H228540   6.681   8.361   9.601  0.3193  1.7656 -0.2264
 1449TIP3   OH228541   7.092   1.582  10.359 -0.5075  0.3683  0.2886
 1449TIP3    H128542   7.090   1.494  10.397  0.9182  0.4702  0.6724
 1449TIP3    H228543   7.022   1.582  10.294 -0.1115 -1.2725 -0.1878
 1450TIP3   OH228544   2.146   4.176  10.030 -0.4571 -0.1334  0.4238
 1450TIP3    H128545   2.164   4.150  10.120 -1.6973 -0.2722  0.6528
 1450TIP3    H228546   2.106   4.099   9.990  1.5980 -0.6437 -0.7704
 1451TIP3   OH228547   3.297   7.777  10.378  0.4212 -0.0011 -0.7076
 1451TIP3    H128548   3.278   7.751  10.288 -0.9294 -0.0449 -0.4264
 1451TIP3    H228549   3.313   7.871  10.373  0.8491 -0.0897 -1.0620
 1452TIP3   OH228550   0.026   6.074   9.415  1.0205 -0.3239  0.0176
 1452TIP3    H128551   0.097   6.068   9.479 -1.1308  0.2639  2.6356
 1452TIP3    H228552  -0.005   6.165   9.421 -2.0860 -1.3356  1.5631
 1453TIP3   OH228553   1.902   0.961   9.878  0.1693  0.6170  0.4737
 1453TIP3    H128554   1.841   0.924   9.814  0.3601  1.8124 -0.4287
 1453TIP3    H228555   1.988   0.927   9.853 -0.1355 -1.6835  2.1979
 1454TIP3   OH228556   5.263   0.290   9.163  0.4245  0.3412  0.0279
 1454TIP3    H128557   5.314   0.212   9.184 -0.7270 -0.4842 -0.1154
 1454TIP3    H228558   5.326   0.362   9.162  1.2979 -0.3726  1.4893
 1455TIP3   OH228559   3.136   3.802  10.117 -0.3386 -0.5515  0.5327
 1455TIP3    H128560   3.150   3.754  10.199 -0.5793 -1.3241  0.1301
 1455TIP3    H228561   3.216   3.853  10.106 -0.7839  0.5022  1.8633
 1456TIP3   OH228562   8.475   1.343   9.835 -0.3698 -0.1990 -0.1027
 1456TIP3    H128563   8.425   1.392   9.770  0.3410  1.8500  0.8147
 1456TIP3    H228564   8.482   1.402   9.910  0.9121 -1.5595  0.9119
 1457TIP3   OH228565   1.149   4.856  10.635  0.0993 -0.2842  0.4052
 1457TIP3    H128566   1.166   4.946  10.605  0.0372 -0.2403  0.5014
 1457TIP3    H228567   1.127   4.808  10.556 -1.0958  0.0668  0.5114
 1458TIP3   OH228568   9.083   7.676   9.572  0.8710 -0.2021 -0.3000
 1458TIP3    H128569   9.107   7.690   9.663 -0.0551 -1.0872  0.0973
 1458TIP3    H228570   9.095   7.761   9.531  2.1105  0.0077  0.4442
 1459TIP3   OH228571   0.799   6.847  10.511 -0.2371 -0.3109 -0.5884
 1459TIP3    H128572   0.747   6.803  10.443  0.0548  0.7456 -1.5292
 1459TIP3    H228573   0.759   6.934  10.518  2.1692  1.0425 -2.3221
 1460TIP3   OH228574   3.729   3.019  11.003 -0.3185 -0.1684  0.1288
 1460TIP3    H128575   3.655   2.959  11.006  0.0928 -0.6390  1.1379
 1460TIP3    H228576   3.780   2.990  10.928 -0.6335 -0.4573  0.0236
 1461TIP3   OH228577   9.067   3.576  10.349 -0.4022 -0.0628  0.0964
 1461TIP3    H128578   9.004   3.580  10.420 -1.0349  0.4758 -0.4811
 1461TIP3    H228579   9.116   3.658  10.355  2.8124 -1.9172  2.7917
 1462TIP3   OH228580   2.222   6.608  10.694 -0.4623 -0.6437  0.1767
 1462TIP3    H128581   2.155   6.596  10.761  1.3310  0.5307  2.2838
 1462TIP3    H228582   2.206   6.696  10.660 -1.2811 -1.1844 -0.9099
 1463TIP3   OH228583   0.442   3.989   9.570  0.0627  0.1818 -0.0635
 1463TIP3    H128584   0.352   3.958   9.555  0.4692 -0.3042 -1.7085
 1463TIP3    H228585   0.432   4.081   9.592 -0.7634  0.5648 -1.8842
 1464TIP3   OH228586   6.986   6.034  10.334  0.1163  0.7457  0.8863
 1464TIP3    H128587   7.080   6.019  10.334  0.3499  1.5266 -2.1172
 1464TIP3    H228588   6.971   6.092  10.259 -2.5586  2.1986  2.3965
 1465TIP3   OH228589   6.677   7.529  10.220 -0.0819 -0.4983 -0.0243
 1465TIP3    H128590   6.742   7.486  10.276  1.3743 -0.8385 -1.8858
 1465TIP3    H228591   6.593   7.509  10.262  0.9816  0.3590  2.7245
 1466TIP3   OH228592   7.007   6.961  10.280 -0.1311 -1.1622 -0.2856
 1466TIP3    H128593   7.055   6.878  10.281 -0.9150 -1.6518 -1.5892
 1466TIP3    H228594   7.025   7.000  10.194  3.3043  1.9392  1.5592
 1467TIP3   OH228595   5.711   3.456   9.804 -0.2830  0.6466 -0.1197
 1467TIP3    H128596   5.800   3.423   9.791  0.0543  0.8427  1.4315
 1467TIP3    H228597   5.724   3.547   9.832 -0.9112  0.4209  0.9551
 1468TIP3   OH228598   7.177   7.555  11.067  0.2936  0.0577  0.3192
 1468TIP3    H128599   7.221   7.489  11.013 -0.1983 -1.3905  1.6192
 1468TIP3    H228600   7.086   7.554  11.038  0.5971  1.3967 -0.7852
 1469TIP3   OH228601   2.489   3.215  10.642 -0.3101  0.4968  0.1223
 1469TIP3    H128602   2.564   3.273  10.635  0.2491 -0.3274 -1.2052
 1469TIP3    H228603   2.510   3.157  10.716 -0.7004  1.6985  1.2006
 1470TIP3   OH228604   6.710   3.422  11.030  0.2240 -0.0276 -0.2256
 1470TIP3    H128605   6.664   3.342  11.053  1.0063 -0.2318  0.7218
 1470TIP3    H228606   6.654   3.492  11.062  0.2098 -0.2466  0.2296
 1471TIP3   OH228607   7.533   2.278   9.956  0.4635 -0.0393  0.2341
 1471TIP3    H128608   7.609   2.304  10.008  0.6773  0.7371 -0.4314
 1471TIP3    H228609   7.556   2.305   9.867 -0.2171 -0.6257 -0.1212
 1472TIP3   OH228610   6.560   6.696  10.186 -0.2691 -0.0507  0.4160
 1472TIP3    H128611   6.627   6.685  10.253 -0.1210 -0.4359  0.2117
 1472TIP3    H228612   6.518   6.779  10.206  0.2966  0.2102  0.5212
 1473TIP3   OH228613   1.010   1.765   9.661  0.7224  0.2637 -0.6400
 1473TIP3    H128614   0.925   1.747   9.622  0.4163  0.4996 -0.0891
 1473TIP3    H228615   0.990   1.797   9.749  1.3447  1.0994 -0.7846
 1474TIP3   OH228616   3.327   1.967  10.459 -0.2362  0.3303 -0.2511
 1474TIP3    H128617   3.240   1.979  10.421 -0.6058  0.4059  0.6021
 1474TIP3    H228618   3.311   1.920  10.541  0.3633  1.7143  0.6944
 1475TIP3   OH228619   5.246   8.303   9.530  0.1667  0.1278 -0.0121
 1475TIP3    H128620   5.213   8.226   9.577  0.3996  0.3679  0.5476
 1475TIP3    H228621   5.189   8.310   9.454  0.9476 -1.3682 -0.7731
 1476TIP3   OH228622   8.828   0.367  10.356 -0.1924 -0.3807  0.3766
 1476TIP3    H128623   8.860   0.317  10.282  1.9054  0.0466  0.9078
 1476TIP3    H228624   8.908   0.392  10.404 -1.4057  0.1991  2.2068
 1477TIP3   OH228625   7.475   3.278  10.303  0.1621 -0.3679 -0.0123
 1477TIP3    H128626   7.396   3.331  10.290 -0.3365 -0.9834  0.4363
 1477TIP3    H228627   7.539   3.316  10.243 -0.3752  0.3399 -0.1581
 1478TIP3   OH228628   8.591   2.353  10.230  0.1880  0.1473  0.1902
 1478TIP3    H128629   8.517   2.339  10.171  0.7454  0.7569 -0.6725
 1478TIP3    H228630   8.555   2.404  10.302 -0.0030  1.3940 -0.7654
 1479TIP3   OH228631   8.353   0.723  10.121 -0.2908  0.1777 -0.4463
 1479TIP3    H128632   8.351   0.639  10.168 -1.0771  0.4776  0.0629
 1479TIP3    H228633   8.354   0.698  10.028 -2.5931 -0.4108 -0.3627
 1480TIP3   OH228634   2.513   6.831   9.829 -0.0400 -0.1641  0.4460
 1480TIP3    H128635   2.598   6.872   9.810 -0.0121  0.3743  1.6621
 1480TIP3    H228636   2.535   6.754   9.880 -0.3171  0.3815  1.4016
 1481TIP3   OH228637   2.425   3.076  10.227 -0.4622  0.9138  0.2726
 1481TIP3    H128638   2.397   3.006  10.286 -0.1910  2.1163  1.8981
 1481TIP3    H228639   2.475   3.031  10.159 -0.2269 -0.4681  1.3110
 1482TIP3   OH228640   9.013   1.961  11.265  1.0797  0.3286  0.2783
 1482TIP3    H128641   9.044   1.883  11.219  2.5372  0.2569  1.3240
 1482TIP3    H228642   9.088   2.021  11.265 -0.1827  1.9975 -0.9993
 1483TIP3   OH228643   5.049   1.220   9.546 -0.4924  0.5633  0.1085
 1483TIP3    H128644   5.100   1.174   9.612 -1.3451 -0.0942  0.3139
 1483TIP3    H228645   5.074   1.312   9.558  1.4788  0.1636 -0.5386
 1484TIP3   OH228646   6.045   5.525  10.385  0.8772 -0.4271  0.2016
 1484TIP3    H128647   6.058   5.549  10.477  0.3567 -2.2273  0.8027
 1484TIP3    H228648   6.129   5.488  10.358  0.9878 -0.0258  0.0009
 1485TIP3   OH228649   7.648   8.236  10.777  0.8100  0.0006  0.0655
 1485TIP3    H128650   7.700   8.157  10.762  0.3019 -0.0947 -1.3412
 1485TIP3    H228651   7.693   8.304  10.727 -1.1256 -0.3907 -2.3735
 1486TIP3   OH228652   6.467   6.841  11.125 -0.7082  0.2045  0.4236
 1486TIP3    H128653   6.394   6.858  11.065  0.1929 -0.1599 -0.8331
 1486TIP3    H228654   6.452   6.751  11.155  0.4958 -0.8485 -1.8303
 1487TIP3   OH228655   8.199   5.986  10.824  0.1096 -0.2553 -1.0034
 1487TIP3    H128656   8.273   5.960  10.769  1.9407  3.2163 -0.4321
 1487TIP3    H228657   8.207   5.930  10.901  1.7168 -0.4536 -1.2711
 1488TIP3   OH228658   8.682   4.494   9.135 -0.2844  0.0859 -0.0867
 1488TIP3    H128659   8.594   4.506   9.099 -0.8361 -0.7288  0.9389
 1488TIP3    H228660   8.705   4.404   9.113  0.3507  0.3247 -0.4327
 1489TIP3   OH228661   4.829   1.980  10.341  0.2596 -0.1297  0.1543
 1489TIP3    H128662   4.877   2.062  10.331  0.5478 -0.4605 -1.3202
 1489TIP3    H228663   4.753   2.003  10.395  0.9352  0.8399  0.7231
 1490TIP3   OH228664   4.100   8.701  10.713 -0.4220 -0.3206  0.4285
 1490TIP3    H128665   4.026   8.718  10.772 -0.8938  0.1345 -0.2834
 1490TIP3    H228666   4.072   8.625  10.662 -0.7525  0.3292 -0.3901
 1491TIP3   OH228667   0.967   2.683  10.116 -0.2420  0.1652 -0.0841
 1491TIP3    H128668   1.025   2.758  10.129 -0.9183  0.5324  0.8953
 1491TIP3    H228669   0.988   2.652  10.028  1.6232  0.1247  0.3256
 1492TIP3   OH228670   3.522   1.441   9.626  0.1419 -0.0005  0.4259
 1492TIP3    H128671   3.560   1.467   9.542  0.7906  0.8072  0.9625
 1492TIP3    H228672   3.474   1.360   9.606  1.4890 -0.6209 -0.4136
 1493TIP3   OH228673   2.708   3.603  10.002 -0.1948 -0.3649  0.6342
 1493TIP3    H128674   2.709   3.598  10.097 -3.7251 -0.9863  0.7782
 1493TIP3    H228675   2.616   3.616   9.979  0.5990  0.5047 -2.6941
 1494TIP3   OH228676   4.407   3.323   9.948  0.1004 -0.0740  0.5330
 1494TIP3    H128677   4.452   3.343  10.030 -2.9697  1.8694  1.8980
 1494TIP3    H228678   4.329   3.273   9.974 -1.2175  1.0036 -1.1145
 1495TIP3   OH228679   8.232   6.492   9.654 -0.3450  0.2701 -0.2441
 1495TIP3    H128680   8.216   6.583   9.632 -0.8296  0.1113 -0.5765
 1495TIP3    H228681   8.149   6.448   9.634 -0.1265 -0.2355 -0.0582
 1496TIP3   OH228682   8.602   8.361   9.425 -0.2950  0.0201  0.1799
 1496TIP3    H128683   8.610   8.399   9.513  1.6816 -0.7359  0.3730
 1496TIP3    H228684   8.545   8.286   9.436 -1.1941  0.7320  0.5218
 1497TIP3   OH228685   1.984   4.388  10.276 -0.0624  0.3289 -0.5712
 1497TIP3    H128686   2.072   4.353  10.289 -0.2844  0.1122  0.4534
 1497TIP3    H228687   1.979   4.463  10.336 -0.7643 -0.0142 -0.1941
 1498TIP3   OH228688   6.123   3.078   9.757  0.0433  0.6976 -0.3594
 1498TIP3    H128689   6.196   3.137   9.775  0.9586 -0.2856 -0.7660
 1498TIP3    H228690   6.135   3.050   9.666 -1.3154  1.1621 -0.7016
 1499TIP3   OH228691   4.891   9.158   9.855  0.0971  0.6055 -0.7407
 1499TIP3    H128692   4.985   9.147   9.838  0.2589 -2.3854  1.4269
 1499TIP3    H228693   4.849   9.096   9.796 -0.5460  1.7341 -1.4964
 1500TIP3   OH228694   4.092   4.651  11.083 -0.0662 -0.7629  0.5638
 1500TIP3    H128695   4.072   4.630  10.992 -0.8950 -0.8495  0.7517
 1500TIP3    H228696   4.152   4.582  11.112  1.1478 -0.0819 -0.2444
 1501TIP3   OH228697   7.567   4.494  11.442 -0.1807 -0.2197  0.2321
 1501TIP3    H128698   7.487   4.448  11.414  0.0429 -1.2639  1.2111
 1501TIP3    H228699   7.539   4.547  11.517 -0.1343  0.1063  0.0191
 1502TIP3   OH228700   6.674   0.724  10.918 -0.3164  0.4948  0.7528
 1502TIP3    H128701   6.639   0.810  10.945 -2.6035 -0.3989  0.8713
 1502TIP3    H228702   6.628   0.705  10.836  0.3560 -0.5247  0.6010
 1503TIP3   OH228703   6.325   1.876   9.699  0.0110 -0.0786 -0.0075
 1503TIP3    H128704   6.270   1.953   9.685  0.6261  0.7416  1.8006
 1503TIP3    H228705   6.269   1.814   9.744  0.6360  1.0513  2.5522
 1504TIP3   OH228706   1.107   2.273  10.207 -0.0580  0.1374 -0.0557
 1504TIP3    H128707   1.095   2.359  10.246 -1.3196 -0.5076  1.0697
 1504TIP3    H228708   1.136   2.290  10.118 -1.1712  1.7353 -0.1305
 1505TIP3   OH228709   4.942   4.680  10.668  0.7885  0.1398  0.4785
 1505TIP3    H128710   4.945   4.631  10.586 -0.1695  1.3291 -0.3025
 1505TIP3    H228711   4.850   4.706  10.677  0.9179  0.1934  1.8374
 1506TIP3   OH228712   1.589   0.466  10.188  0.2544  0.2728 -0.3973
 1506TIP3    H128713   1.618   0.527  10.120  0.3080 -0.5767 -1.1595
 1506TIP3    H228714   1.668   0.422  10.217  0.2854  0.9098  0.5115
 1507TIP3   OH228715   4.438   7.566  10.839 -0.5826  0.0670 -0.1478
 1507TIP3    H128716   4.377   7.613  10.896 -1.8886  1.4074 -2.4738
 1507TIP3    H228717   4.390   7.487  10.813 -1.6063  1.2746 -2.2304
 1508TIP3   OH228718   4.133   8.423  10.368  0.4176  0.2416  0.1473
 1508TIP3    H128719   4.133   8.519  10.364 -0.9707  0.2421 -3.3990
 1508TIP3    H228720   4.202   8.397  10.307  0.5534 -1.0508  0.8213
 1509TIP3   OH228721   1.926   1.290  11.263  0.3770  0.4972  0.2911
 1509TIP3    H128722   1.932   1.196  11.248 -1.1827  0.4610 -0.2531
 1509TIP3    H228723   1.896   1.298  11.354  4.1806  0.6114  1.7298
 1510TIP3   OH228724   1.577   8.528  10.613  0.2449  0.2029  0.2322
 1510TIP3    H128725   1.536   8.515  10.528 -1.0055 -0.4510  0.9039
 1510TIP3    H228726   1.538   8.609  10.647 -0.2301 -0.2193  0.7138
 1511TIP3   OH228727   1.711   8.867  10.384 -0.2917  0.2169 -0.4897
 1511TIP3    H128728   1.791   8.909  10.416 -0.0759 -0.2677 -0.3864
 1511TIP3    H228729   1.671   8.933  10.327  1.0353 -0.1156 -1.9003
 1512TIP3   OH228730   4.888   6.076  11.027 -0.2465 -0.2744  0.2000
 1512TIP3    H128731   4.833   6.030  10.963 -1.9726  3.1327 -0.9774
 1512TIP3    H228732   4.919   6.154  10.981  1.2415  0.6170  2.5305
 1513TIP3   OH228733   5.125   6.178   9.522 -0.6734  0.2775 -1.0594
 1513TIP3    H128734   5.174   6.099   9.545 -1.1032  0.6623  1.4817
 1513TIP3    H228735   5.035   6.157   9.544 -0.6957  1.6610  0.3791
 1514TIP3   OH228736   5.854   4.563   9.866  0.0894  0.2088 -0.2703
 1514TIP3    H128737   5.830   4.637   9.922 -1.4537 -0.0744 -0.5018
 1514TIP3    H228738   5.936   4.589   9.825  1.0651  0.5955  1.8022
 1515TIP3   OH228739   5.671   0.704   9.712 -0.5365  0.0961 -0.1030
 1515TIP3    H128740   5.685   0.793   9.679  1.3923 -0.1954 -0.1833
 1515TIP3    H228741   5.663   0.651   9.633  0.7390 -0.1188 -0.1129
 1516TIP3   OH228742   0.500   5.754  10.046  0.1217  0.0809  0.7217
 1516TIP3    H128743   0.516   5.793   9.960  0.5952  0.4628  0.9832
 1516TIP3    H228744   0.578   5.701  10.063  0.2916  0.4709  1.1742
 1517TIP3   OH228745   8.745   0.919   9.872 -0.0408 -0.0792 -0.6978
 1517TIP3    H128746   8.837   0.936   9.854  0.7544 -2.3044  0.9070
 1517TIP3    H228747   8.719   0.988   9.933  1.1581 -0.5773  0.4116
 1518TIP3   OH228748   4.535   4.132  10.251  0.0277  0.4070 -0.3493
 1518TIP3    H128749   4.577   4.047  10.236 -1.7941 -0.3393 -1.5636
 1518TIP3    H228750   4.573   4.190  10.185 -0.5979 -0.1891 -1.2608
 1519TIP3   OH228751   0.594   3.741  11.247  0.5272 -0.6988  0.5656
 1519TIP3    H128752   0.529   3.694  11.194  1.7501 -1.3241 -0.4323
 1519TIP3    H228753   0.678   3.703  11.220  1.3509  0.4686  1.4303
 1520TIP3   OH228754   0.039   2.739   9.322 -0.9319 -0.2743 -0.3433
 1520TIP3    H128755   0.020   2.694   9.404 -0.1317  0.8599  0.5166
 1520TIP3    H228756   0.121   2.786   9.339 -1.8128  1.6699 -1.0701
 1521TIP3   OH228757   7.104   8.523   9.424 -0.0559 -0.1444 -0.0942
 1521TIP3    H128758   7.116   8.602   9.476 -0.0347  0.7195 -1.3758
 1521TIP3    H228759   7.189   8.508   9.383 -0.8168  0.9151 -2.2063
 1522TIP3   OH228760   6.800   6.496  10.692 -0.2110  0.2434  0.3382
 1522TIP3    H128761   6.831   6.450  10.613  1.6095  2.1525 -0.1660
 1522TIP3    H228762   6.831   6.442  10.764 -0.0850 -0.4746 -0.2371
 1523TIP3   OH228763   7.155   7.888  10.335  0.2735 -0.0028 -0.3125
 1523TIP3    H128764   7.166   7.927  10.249 -1.6612 -1.5396 -1.3701
 1523TIP3    H228765   7.202   7.805  10.330  3.1689  1.4105  1.4194
 1524TIP3   OH228766   7.649   5.629  10.663 -0.1094  0.4496  0.9750
 1524TIP3    H128767   7.713   5.685  10.618  1.1756 -1.6080  0.0903
 1524TIP3    H228768   7.703   5.567  10.712 -1.4815  0.0087  1.9649
 1525TIP3   OH228769   0.838   1.553  10.839 -0.0941 -0.0210 -0.0003
 1525TIP3    H128770   0.864   1.639  10.872 -0.1220  0.4812 -1.2178
 1525TIP3    H228771   0.748   1.542  10.871 -1.1553  1.6920 -2.0746
 1526TIP3   OH228772   1.462   1.534   9.993 -0.0965 -0.4401 -0.2617
 1526TIP3    H128773   1.544   1.579  10.012 -1.5544  2.3841 -0.0991
 1526TIP3    H228774   1.449   1.475  10.067  0.6860  0.7883  0.8919
 1527TIP3   OH228775   0.966   8.909   9.997  0.1079  0.2756 -0.2520
 1527TIP3    H128776   0.920   8.876   9.920 -0.8074 -0.7085  0.6884
 1527TIP3    H228777   0.916   8.876  10.072  1.6024  0.2578  0.7907
 1528TIP3   OH228778   6.235   5.149  10.501  0.4175 -0.5828 -0.0009
 1528TIP3    H128779   6.151   5.172  10.462  0.5775 -0.5439 -0.3300
 1528TIP3    H228780   6.252   5.218  10.565  1.2766  0.7080 -1.5479
 1529TIP3   OH228781   4.293   5.342  10.564 -0.0535 -0.0607 -0.5164
 1529TIP3    H128782   4.321   5.303  10.481  0.1423 -0.7070 -0.1482
 1529TIP3    H228783   4.315   5.435  10.555  2.3288 -0.5377 -0.2045
 1530TIP3   OH228784   2.634   3.648  10.844 -0.3924 -0.0285  0.1016
 1530TIP3    H128785   2.687   3.569  10.852 -0.4410 -0.0614  0.0978
 1530TIP3    H228786   2.546   3.616  10.820 -0.4520  0.0142  0.2603
 1531TIP3   OH228787   2.911   4.709  10.234 -0.7617 -0.3785 -0.1324
 1531TIP3    H128788   2.868   4.768  10.173  1.1359  0.6283 -0.5888
 1531TIP3    H228789   2.896   4.622  10.197 -1.8772 -0.0213 -0.5666
 1532TIP3   OH228790   6.568   8.022  10.260 -0.3288 -0.0797  0.3278
 1532TIP3    H128791   6.538   7.962  10.328  3.1574 -1.0573  1.2136
 1532TIP3    H228792   6.613   7.965  10.197 -0.0925  1.2363 -0.7353
 1533TIP3   OH228793   7.135   4.326  10.503  0.5577 -0.0455 -0.4972
 1533TIP3    H128794   7.080   4.251  10.525  0.3383  0.8124  2.2782
 1533TIP3    H228795   7.082   4.402  10.528  1.2339  1.0192 -2.1342
 1534TIP3   OH228796   2.826   6.320  10.683 -0.5678  0.5589 -0.6252
 1534TIP3    H128797   2.734   6.308  10.708 -0.1352  0.6214  1.1209
 1534TIP3    H228798   2.844   6.412  10.700  0.6042 -0.0821  2.0337
 1535TIP3   OH228799   7.591   5.372  10.437 -0.4099 -0.2235 -0.5103
 1535TIP3    H128800   7.566   5.368  10.345  1.4959 -0.7815 -1.0374
 1535TIP3    H228801   7.659   5.439  10.440 -0.7445  0.0825  0.5818
 1536TIP3   OH228802   8.793   4.609   9.957 -0.3929 -0.2301 -0.2047
 1536TIP3    H128803   8.716   4.663   9.979  0.0569 -0.0513  1.0203
 1536TIP3    H228804   8.760   4.519   9.958 -0.4887 -0.2009  0.9050
 1537TIP3   OH228805   5.194   1.186  10.352 -0.2129  0.8993 -0.0111
 1537TIP3    H128806   5.250   1.119  10.312 -0.6220  1.1995 -1.0974
 1537TIP3    H228807   5.158   1.235  10.279  0.0703  2.3228  0.7638
 1538TIP3   OH228808   9.076   1.514   8.854 -0.2079  0.0771  0.2465
 1538TIP3    H128809   9.046   1.437   8.902 -1.4479  0.9952  0.9924
 1538TIP3    H228810   9.137   1.479   8.789 -0.3957 -1.4750  0.8603
 1539TIP3   OH228811   5.805   2.239  10.597 -0.2257  0.1332 -0.1350
 1539TIP3    H128812   5.882   2.188  10.625  0.2301  1.3077  0.8322
 1539TIP3    H228813   5.820   2.256  10.504 -0.1754 -1.1005 -0.3713
 1540TIP3   OH228814   6.559   1.433  10.485 -0.0427  0.3395 -0.2718
 1540TIP3    H128815   6.639   1.386  10.463 -0.7809 -0.0980 -2.1809
 1540TIP3    H228816   6.585   1.492  10.556  1.5376 -1.0020  0.3367
 1541TIP3   OH228817   6.214   8.060  11.089  0.0936 -0.4751 -0.3421
 1541TIP3    H128818   6.133   8.067  11.139 -0.2689 -1.4836 -0.7631
 1541TIP3    H228819   6.198   8.112  11.010  0.7535  1.3167  0.6415
 1542TIP3   OH228820   7.554   7.839   9.933  0.2052  0.1359 -0.0463
 1542TIP3    H128821   7.547   7.916   9.876 -3.1692 -0.1761 -0.2442
 1542TIP3    H228822   7.581   7.768   9.874 -0.8262  0.3235 -0.7707
 1543TIP3   OH228823   5.481   2.847  10.491 -0.2373 -0.2735 -0.2210
 1543TIP3    H128824   5.489   2.772  10.432 -1.2405 -1.6624  1.2868
 1543TIP3    H228825   5.567   2.856  10.531  0.1795  0.0679 -1.1798
 1544TIP3   OH228826   8.782   1.780   9.711  0.1249 -0.1733 -0.1618
 1544TIP3    H128827   8.704   1.800   9.762  0.5831 -0.2509  0.5814
 1544TIP3    H228828   8.846   1.750   9.775  0.6413 -0.4894 -0.8116
 1545TIP3   OH228829   4.345   5.242  10.316 -0.0152  0.1448  0.7120
 1545TIP3    H128830   4.300   5.158  10.313  0.8864 -0.3965 -2.6276
 1545TIP3    H228831   4.314   5.288  10.237  2.0372  1.4835  0.6077
 1546TIP3   OH228832   3.718   4.160  10.714  0.3683  0.0879  0.2225
 1546TIP3    H128833   3.636   4.197  10.745 -0.3630 -0.0087 -1.5116
 1546TIP3    H228834   3.712   4.067  10.734 -0.0821  0.0335 -0.1590
 1547TIP3   OH228835   8.837   8.485  10.709 -0.7371  0.7752 -0.2366
 1547TIP3    H128836   8.835   8.572  10.751 -2.1576  0.1753  1.0542
 1547TIP3    H228837   8.788   8.429  10.770 -1.3257 -0.5558 -1.8751
 1548TIP3   OH228838   9.189   8.282  10.690 -0.1485  0.2586 -0.4450
 1548TIP3    H128839   9.260   8.298  10.628  0.1308  0.6218 -0.0408
 1548TIP3    H228840   9.115   8.331  10.655  0.7789  2.8587  0.9453
 1549TIP3   OH228841   6.220   9.047   9.490 -0.2959 -0.2052  0.0813
 1549TIP3    H128842   6.188   9.137   9.493 -0.8663 -0.4157  0.5204
 1549TIP3    H228843   6.189   9.008   9.571 -0.5305 -0.9564 -0.3594
 1550TIP3   OH228844   3.010   0.570  10.813  0.1112  0.0968 -0.3810
 1550TIP3    H128845   2.983   0.487  10.776 -2.3211  0.4189  0.5160
 1550TIP3    H228846   3.044   0.548  10.900 -1.3437  0.0688  0.2125
 1551TIP3   OH228847   0.613   3.498  10.974  0.0371  0.5224  0.6839
 1551TIP3    H128848   0.547   3.553  11.017 -0.6906 -0.3072  0.6378
 1551TIP3    H228849   0.573   3.412  10.969 -0.3932  0.7888 -2.6568
 1552TIP3   OH228850   8.311   2.473   9.135  0.1730 -0.2717  0.6329
 1552TIP3    H128851   8.370   2.405   9.165  0.9459  0.9440  1.9533
 1552TIP3    H228852   8.229   2.458   9.183 -0.8419 -2.2179 -1.5132
 1553TIP3   OH228853   7.537   3.806  10.047 -0.1742 -0.2374 -0.2290
 1553TIP3    H128854   7.477   3.752   9.996 -0.2994 -0.3205  0.0087
 1553TIP3    H228855   7.524   3.895  10.013 -0.8841 -0.1538  0.2516
 1554TIP3   OH228856   6.412   2.663   9.906 -0.5377  0.2697  0.2863
 1554TIP3    H128857   6.387   2.742   9.859 -2.2042 -0.2632  0.2057
 1554TIP3    H228858   6.332   2.611   9.910  0.9770 -2.5327 -1.8053
 1555TIP3   OH228859   0.342   8.640   9.002 -0.7758 -0.2358  0.3014
 1555TIP3    H128860   0.265   8.694   8.984 -0.3384  0.5793  0.7880
 1555TIP3    H228861   0.308   8.564   9.048 -1.2701  0.2161  0.6984
 1556TIP3   OH228862   3.142   2.429   9.424 -0.3812  0.2575  0.0751
 1556TIP3    H128863   3.131   2.455   9.333 -0.0899 -0.9373 -0.3204
 1556TIP3    H228864   3.221   2.375   9.425 -0.4943  0.0807  1.0033
 1557TIP3   OH228865   4.422   1.711  10.048  0.3512  0.0641 -0.1720
 1557TIP3    H128866   4.435   1.757   9.965  1.4450  0.3482  0.1422
 1557TIP3    H228867   4.459   1.769  10.114  1.6983 -1.2036  0.2510
 1558TIP3   OH228868   0.664   1.459   9.733 -0.3118 -0.5791 -0.4788
 1558TIP3    H128869   0.651   1.460   9.828 -0.2855 -1.6315 -0.4536
 1558TIP3    H228870   0.664   1.551   9.708  1.0010 -0.2308  0.7147
 1559TIP3   OH228871   8.436   8.145   9.484  0.6075 -0.2303  0.3518
 1559TIP3    H128872   8.405   8.107   9.567  0.9327 -0.1023  0.5353
 1559TIP3    H228873   8.366   8.128   9.422  0.9762 -1.6465  0.2824
 1560TIP3   OH228874   7.303   1.280  10.327 -0.4505  0.1449  0.4146
 1560TIP3    H128875   7.256   1.327  10.396 -0.3804  1.9581 -0.6893
 1560TIP3    H228876   7.248   1.291  10.249 -0.3790 -1.5882  0.0826
 1561TIP3   OH228877   1.304   0.681  11.377 -0.0556 -0.1000  0.3778
 1561TIP3    H128878   1.240   0.740  11.338 -0.7167  0.0028  1.5453
 1561TIP3    H228879   1.331   0.724  11.458  0.6096 -0.6859  0.4811
 1562TIP3   OH228880   0.895   0.511  10.679  0.1698  0.3243  0.2498
 1562TIP3    H128881   0.955   0.477  10.613  0.7890  2.1348 -0.1816
 1562TIP3    H228882   0.858   0.590  10.640  0.6640  1.5486  2.0714
 1563TIP3   OH228883   0.104   1.967   9.794 -0.0302 -0.0767  0.0738
 1563TIP3    H128884   0.017   1.979   9.756 -0.5848  0.7815  1.5408
 1563TIP3    H228885   0.165   1.990   9.723 -0.9538 -1.0129 -1.0781
 1564TIP3   OH228886   4.681   0.054  11.145  0.3048 -0.0898  0.4265
 1564TIP3    H128887   4.671   0.111  11.221  1.2186  0.6823 -0.0048
 1564TIP3    H228888   4.726   0.108  11.080 -0.1254 -0.8497 -0.5361
 1565TIP3   OH228889   2.901   5.143  10.429  0.2209  0.6239 -0.3860
 1565TIP3    H128890   2.875   5.235  10.423  0.3512  0.6435 -0.6852
 1565TIP3    H228891   2.992   5.146  10.460  0.1860  0.5930 -0.2815
 1566TIP3   OH228892   7.154   2.107   9.619  0.5821  0.2342 -0.6328
 1566TIP3    H128893   7.159   2.195   9.581  0.1632  0.7259  0.4055
 1566TIP3    H228894   7.231   2.101   9.675 -0.7977  1.0646  1.5112
 1567TIP3   OH228895   0.132   3.685  10.029 -0.3148 -0.1805  0.2722
 1567TIP3    H128896   0.094   3.598  10.042 -1.4332  0.6302  3.0104
 1567TIP3    H228897   0.076   3.725   9.961 -0.0808 -1.3846 -0.6638
 1568TIP3   OH228898   7.990   7.248  10.248  0.0947 -0.0616 -0.0102
 1568TIP3    H128899   8.057   7.213  10.188  0.0124 -1.5087  0.6958
 1568TIP3    H228900   8.034   7.319  10.294  1.2495 -1.1359  0.6059
 1569TIP3   OH228901   8.783   7.829   9.564 -0.3907 -0.1051  0.4454
 1569TIP3    H128902   8.812   7.913   9.600 -2.9968  0.6892  0.9033
 1569TIP3    H228903   8.802   7.766   9.633 -0.1136  0.4364  0.8805
 1570TIP3   OH228904   2.123   4.899  10.566  0.0831 -0.1314  0.1801
 1570TIP3    H128905   2.218   4.893  10.572  0.0217 -0.1254  1.2633
 1570TIP3    H228906   2.095   4.810  10.544  0.3743  0.0302 -0.9328
 1571TIP3   OH228907   4.410   2.126   9.347 -0.1834  0.9651  0.3582
 1571TIP3    H128908   4.494   2.124   9.302 -0.5374  1.0133 -0.3321
 1571TIP3    H228909   4.355   2.181   9.291 -1.4700 -1.2389 -0.7172
 1572TIP3   OH228910   8.222   7.567   9.680 -0.2945  0.3065 -0.4482
 1572TIP3    H128911   8.149   7.533   9.627 -0.7946 -1.7291  1.3912
 1572TIP3    H228912   8.182   7.637   9.731 -0.4631  0.5085 -0.8472
 1573TIP3   OH228913   5.849   7.050  11.395  0.0008  0.1213  0.0753
 1573TIP3    H128914   5.765   7.022  11.361  0.3728 -0.9130 -0.0417
 1573TIP3    H228915   5.894   6.968  11.417  0.8630  0.6666  0.3878
 1574TIP3   OH228916   6.142   8.808  10.236 -0.2646  0.6146  0.2351
 1574TIP3    H128917   6.138   8.903  10.227  0.1791  0.7767  1.5836
 1574TIP3    H228918   6.192   8.793  10.317 -2.0516 -0.7219  1.1550
 1575TIP3   OH228919   4.358   1.204  11.030  0.2088  0.1301 -0.1473
 1575TIP3    H128920   4.399   1.154  11.100  0.7728  0.0440 -0.5279
 1575TIP3    H228921   4.306   1.140  10.982  0.4642  0.0215 -0.2837
 1576TIP3   OH228922   7.827   4.518   9.595  0.1310 -0.4601 -0.1591
 1576TIP3    H128923   7.898   4.555   9.648 -0.8245 -0.0832  0.8859
 1576TIP3    H228924   7.857   4.530   9.504  2.1367 -1.7988  0.2535
 1577TIP3   OH228925   3.950   2.270   8.991 -0.4014  0.2563 -0.0711
 1577TIP3    H128926   3.864   2.277   8.950 -1.4562  0.7964  2.0906
 1577TIP3    H228927   3.965   2.175   8.999 -0.1630  0.1382 -1.6251
 1578TIP3   OH228928   3.330   3.645  10.858  0.1534  0.9556  0.3724
 1578TIP3    H128929   3.278   3.658  10.779 -0.5570  0.4547  0.7545
 1578TIP3    H228930   3.360   3.554  10.853  0.0778  0.9102  0.6924
 1579TIP3   OH228931   3.636   5.556  11.036 -0.3595  0.5987 -0.1189
 1579TIP3    H128932   3.715   5.509  11.013 -0.5840  0.8002 -1.3814
 1579TIP3    H228933   3.657   5.601  11.118 -0.1776 -1.7158  1.1768
 1580TIP3   OH228934   2.924   6.575  10.537  0.3613 -0.2434 -0.0043
 1580TIP3    H128935   2.911   6.509  10.469 -0.0432 -0.4586  0.2835
 1580TIP3    H228936   3.017   6.566  10.561  0.3016 -0.7376  0.0588
 1581TIP3   OH228937   8.932   6.397  10.802  0.6578 -0.0882 -0.4827
 1581TIP3    H128938   8.917   6.484  10.840  0.9084  0.1420 -0.8974
 1581TIP3    H228939   9.026   6.383  10.814  0.8508  0.2442 -1.5449
 1582TIP3   OH228940   8.884   1.565  11.197 -0.2198 -0.1123 -0.5465
 1582TIP3    H128941   8.956   1.505  11.176  1.3831  1.2462  0.8495
 1582TIP3    H228942   8.876   1.620  11.119  0.5282 -0.0089 -0.5546
 1583TIP3   OH228943   1.031   8.945  10.495 -0.3284 -0.4344 -0.5084
 1583TIP3    H128944   1.120   8.971  10.519 -0.8352 -0.3271  1.4255
 1583TIP3    H228945   1.006   9.006  10.426  0.4325  0.7664  0.2379
 1584TIP3   OH228946   1.936   0.828   9.410 -0.0533  0.5387  0.0902
 1584TIP3    H128947   1.933   0.864   9.321  0.7471  1.2147  0.3241
 1584TIP3    H228948   1.912   0.736   9.399  1.2521  0.2942 -1.0048
 1585TIP3   OH228949   4.393   5.302   9.888  0.5772 -0.3205  0.3287
 1585TIP3    H128950   4.341   5.356   9.947 -1.0538 -1.2259 -0.2359
 1585TIP3    H228951   4.339   5.293   9.810  2.0473 -0.4194 -0.7086
 1586TIP3   OH228952   8.840   3.970  10.414 -0.1260 -0.4441 -0.0286
 1586TIP3    H128953   8.895   4.033  10.368  0.6641 -2.5574 -2.1714
 1586TIP3    H228954   8.751   4.002  10.399  0.0928 -0.9368 -3.0551
 1587TIP3   OH228955   0.243   4.358   9.488 -0.4202 -0.5335 -0.1313
 1587TIP3    H128956   0.279   4.335   9.402  0.4523  0.6629 -0.1082
 1587TIP3    H228957   0.319   4.373   9.543 -0.9434  0.4178  0.3709
 1588TIP3   OH228958   5.816   1.754  11.093  0.0645 -0.3705  0.4475
 1588TIP3    H128959   5.727   1.718  11.088 -0.5844  1.2433 -0.3215
 1588TIP3    H228960   5.830   1.771  11.186 -1.1652  1.0638  0.4005
 1589TIP3   OH228961   6.442   7.129   9.843 -0.4438 -0.1494  0.2262
 1589TIP3    H128962   6.535   7.149   9.848 -0.7370  1.1897  0.8661
 1589TIP3    H228963   6.409   7.185   9.773 -1.4450  2.5345  2.6355
 1590TIP3   OH228964   6.941   5.686  11.156 -0.3777  0.4573  0.5453
 1590TIP3    H128965   7.029   5.687  11.195 -0.4335 -0.4958  0.7212
 1590TIP3    H228966   6.933   5.599  11.117 -0.8861  0.8757 -0.3161
 1591TIP3   OH228967   2.462   5.948  10.127  0.1337  0.1160  0.8091
 1591TIP3    H128968   2.536   5.900  10.091 -0.5557 -0.6937  0.4475
 1591TIP3    H228969   2.407   5.968  10.052  0.2087  1.1324  1.0092
 1592TIP3   OH228970   7.410   4.412  10.920 -0.0301 -0.1347 -0.0256
 1592TIP3    H128971   7.414   4.323  10.883  0.9165 -1.2268  2.5215
 1592TIP3    H228972   7.317   4.425  10.941 -0.1218 -0.6580 -0.0851
 1593TIP3   OH228973   1.487   4.718  10.186  0.4438 -0.5990 -0.2676
 1593TIP3    H128974   1.567   4.748  10.231  0.0312 -1.1501  0.8720
 1593TIP3    H228975   1.487   4.766  10.103  1.3128  0.3421  0.2521
 1594TIP3   OH228976   1.085   5.538   9.816 -0.9639  0.1330 -0.0057
 1594TIP3    H128977   1.032   5.480   9.872  0.3218 -1.3082 -0.1993
 1594TIP3    H228978   1.026   5.610   9.793 -2.0031 -0.0447  1.9120
 1595TIP3   OH228979   2.410   7.749  10.954 -0.1704 -0.2643 -0.4971
 1595TIP3    H128980   2.481   7.755  10.889  0.3516 -0.8614  0.0004
 1595TIP3    H228981   2.336   7.793  10.913  0.5956  0.6952 -0.8773
 1596TIP3   OH228982   0.619   1.573  10.011  0.2307  0.4208  0.5154
 1596TIP3    H128983   0.564   1.581  10.089 -0.8672  1.3186 -0.3144
 1596TIP3    H228984   0.689   1.513  10.037 -1.4080 -1.1813  1.4579
 1597TIP3   OH228985   7.505   1.432  10.876  0.2027  0.0707 -0.5354
 1597TIP3    H128986   7.542   1.366  10.818 -0.8589  0.3021 -1.4998
 1597TIP3    H228987   7.430   1.389  10.917  0.0642  0.3839 -0.4539
 1598TIP3   OH228988   5.376   6.221  11.513  0.0032  0.3419 -0.5379
 1598TIP3    H128989   5.414   6.309  11.519 -1.1693  0.7863  1.2800
 1598TIP3    H228990   5.283   6.236  11.496 -0.4961 -0.4459  1.2788
 1599TIP3   OH228991   0.069   0.192  11.009 -0.5723  0.4014 -0.1371
 1599TIP3    H128992   0.030   0.109  11.039  0.6144 -0.2608 -0.3699
 1599TIP3    H228993  -0.006   0.250  10.995 -1.3088  0.1871  2.3967
 1600TIP3   OH228994   1.400   0.642  10.450 -0.4200  0.0726 -0.3461
 1600TIP3    H128995   1.345   0.579  10.403 -0.2636 -1.1428  1.0193
 1600TIP3    H228996   1.464   0.671  10.385 -0.4958 -1.1887 -1.0116
 1601TIP3   OH228997   3.235   8.762   9.274 -0.0864  0.3055  0.1515
 1601TIP3    H128998   3.156   8.780   9.223  0.8695 -0.6267 -1.7793
 1601TIP3    H228999   3.302   8.744   9.208  1.1428 -1.3141  1.7479
 1602TIP3   OH229000   2.526   4.865  10.751  0.0808 -0.2843  0.5990
 1602TIP3    H129001   2.553   4.846  10.661 -2.0808  1.7327 -0.5879
 1602TIP3    H229002   2.534   4.781  10.797  0.6871 -1.5110 -1.5927
 1603TIP3   OH229003   7.936   4.459  10.938 -0.2095  0.2701 -0.2438
 1603TIP3    H129004   7.852   4.448  10.983 -0.0681  1.4140  0.3496
 1603TIP3    H229005   7.913   4.505  10.856 -0.0683  1.6052  0.4352
 1604TIP3   OH229006   4.780   0.183  10.620 -0.0424  0.0147  0.3074
 1604TIP3    H129007   4.701   0.190  10.566  0.4562  1.0096 -0.3413
 1604TIP3    H229008   4.848   0.156  10.559 -0.0033 -1.5253  1.0044
 1605TIP3   OH229009   6.353   8.182   9.727 -0.2736  0.1273  0.0026
 1605TIP3    H129010   6.293   8.111   9.750 -0.9136  0.6221 -0.1061
 1605TIP3    H229011   6.419   8.181   9.796 -1.0914  0.3615  0.8073
 1606TIP3   OH229012   5.510   4.228   9.678  0.4353 -0.4396 -0.4903
 1606TIP3    H129013   5.420   4.221   9.711 -0.4285  0.6744 -2.4404
 1606TIP3    H229014   5.550   4.295   9.734 -0.0351 -0.6994  0.1748
 1607TIP3   OH229015   7.139   7.863  10.802  0.0602  0.0355 -0.0094
 1607TIP3    H129016   7.217   7.809  10.812 -1.1693 -2.2254 -1.7124
 1607TIP3    H229017   7.142   7.893  10.711 -1.6229 -1.1410 -0.5017
 1608TIP3   OH229018   7.865   0.316  10.214 -0.4673 -0.0454  0.1779
 1608TIP3    H129019   7.901   0.227  10.210  1.0307  0.5531 -0.2971
 1608TIP3    H229020   7.777   0.308  10.178 -0.3830 -1.3443  0.2059
 1609TIP3   OH229021   2.125   1.145   9.664  0.1894 -0.0692  0.3821
 1609TIP3    H129022   2.196   1.177   9.610  0.2601  1.5870  1.3699
 1609TIP3    H229023   2.050   1.139   9.605  0.5536  0.5682 -0.1576
 1610TIP3   OH229024   6.175   2.514   9.890  0.6071 -0.0861 -0.3765
 1610TIP3    H129025   6.120   2.444   9.854  0.4583 -0.3030  0.2712
 1610TIP3    H229026   6.126   2.594   9.873  1.1337 -0.0354 -1.8336
 1611TIP3   OH229027   0.361   3.783  10.831  0.2749 -0.2051  0.6415
 1611TIP3    H129028   0.446   3.801  10.870  0.0518 -1.4116  1.7259
 1611TIP3    H229029   0.309   3.862  10.847  1.0137  0.3289  0.4295
 1612TIP3   OH229030   1.262   1.157  11.208 -0.0564  0.0641 -0.0894
 1612TIP3    H129031   1.313   1.131  11.284  0.5987 -0.0507 -0.5603
 1612TIP3    H229032   1.274   1.085  11.146 -1.1629 -0.1839 -0.0389
 1613TIP3   OH229033   5.742   1.661   9.455  0.3965  0.4562 -0.1552
 1613TIP3    H129034   5.757   1.569   9.477 -0.0495  0.5467  0.5692
 1613TIP3    H229035   5.712   1.660   9.364  0.7777 -0.0750 -0.2767
 1614TIP3   OH229036   4.819   2.357  11.051  0.2771  0.0390  0.1639
 1614TIP3    H129037   4.905   2.316  11.044  0.8795  1.5235 -2.2735
 1614TIP3    H229038   4.758   2.285  11.065  1.6892 -1.2629 -0.1951
 1615TIP3   OH229039   5.917   1.899  10.879  0.2293 -0.1369 -0.1203
 1615TIP3    H129040   5.883   1.856  10.958  0.7262  2.0535  1.3784
 1615TIP3    H229041   5.873   1.984  10.877  1.4133  0.4856 -1.3081
 1616TIP3   OH229042   0.296   0.186  10.855 -0.1020 -0.2845  0.0763
 1616TIP3    H129043   0.215   0.188  10.905  0.3240 -0.1175  0.7797
 1616TIP3    H229044   0.268   0.179  10.763 -0.9442  0.9742  0.2070
 1617TIP3   OH229045   7.608   2.406   9.423 -0.2508 -0.1008  0.1332
 1617TIP3    H129046   7.583   2.315   9.407  0.5052 -0.4880  1.0213
 1617TIP3    H229047   7.537   2.458   9.387 -1.0107 -1.0667  0.2098
 1618TIP3   OH229048   1.252   0.859  11.070 -0.2284 -0.1131  0.4600
 1618TIP3    H129049   1.180   0.831  11.012  2.1048  0.1379 -2.8734
 1618TIP3    H229050   1.307   0.781  11.079 -0.7227 -0.2521  2.7992
 1619TIP3   OH229051   2.065   5.351  10.290  0.1609  0.0911  0.0602
 1619TIP3    H129052   2.063   5.301  10.208 -0.4009  1.4685 -0.8004
 1619TIP3    H229053   1.982   5.329  10.333 -0.0100  0.1510 -0.2329
 1620TIP3   OH229054   1.058   5.180  10.120 -0.1818  0.1117 -0.5247
 1620TIP3    H129055   1.002   5.241  10.073  0.0856 -0.5910 -1.7946
 1620TIP3    H229056   1.087   5.117  10.054  1.6710  0.1301  0.1938
 1621TIP3   OH229057   3.322   2.338   9.697 -0.4459 -0.3873 -0.3473
 1621TIP3    H129058   3.368   2.318   9.615 -0.0485  1.0885 -0.5204
 1621TIP3    H229059   3.338   2.262   9.753  0.2316 -0.9235 -1.2377
 1622TIP3   OH229060   6.393   0.561   9.221  0.2169 -0.2195 -0.1519
 1622TIP3    H129061   6.343   0.604   9.289  1.3291 -0.3608  0.7925
 1622TIP3    H229062   6.411   0.630   9.157  1.2929  0.5648  0.9491
 1623TIP3   OH229063   7.110   4.025   9.535 -0.1312 -0.0249 -0.1189
 1623TIP3    H129064   7.059   4.099   9.567  0.5349  0.8120 -0.9495
 1623TIP3    H229065   7.074   4.007   9.448  0.7355  0.3400 -0.5594
 1624TIP3   OH229066   0.043   0.589  10.700  0.1562  1.1810  0.8133
 1624TIP3    H129067   0.089   0.659  10.654  1.4734 -0.6868 -0.8685
 1624TIP3    H229068   0.094   0.576  10.780  0.2530  1.7286  0.8460
 1625TIP3   OH229069   4.492   5.387  10.993 -0.0728  0.0407  0.2932
 1625TIP3    H129070   4.579   5.383  11.031  0.3671  0.4125 -0.6590
 1625TIP3    H229071   4.436   5.420  11.064  0.9914  2.1649  0.2141
 1626TIP3   OH229072   1.585   3.676  10.146 -0.0671  0.3943  0.3228
 1626TIP3    H129073   1.671   3.704  10.113 -0.1459  1.5124  1.0182
 1626TIP3    H229074   1.535   3.757  10.153 -0.9162 -0.1562  0.7073
 1627TIP3   OH229075   4.299   1.459  11.322  0.3172 -0.2819 -0.4675
 1627TIP3    H129076   4.236   1.411  11.269 -0.9428  0.1207  0.6262
 1627TIP3    H229077   4.333   1.394  11.383  0.3558 -0.3100 -0.5183
 1628TIP3   OH229078   5.191   4.177  11.165  0.0885  0.4287  0.4395
 1628TIP3    H129079   5.264   4.157  11.106 -0.6045  0.6049 -0.5082
 1628TIP3    H229080   5.144   4.248  11.121 -1.2429 -0.3733  0.5169
 1629TIP3   OH229081   3.147   1.287   9.876  0.0147 -0.3936  0.3587
 1629TIP3    H129082   3.242   1.286   9.888  0.0901 -0.9632 -0.1686
 1629TIP3    H229083   3.118   1.203   9.911 -0.3374 -0.0890  0.8024
 1630TIP3   OH229084   0.897   4.867   9.379  0.1436 -0.1117 -0.0395
 1630TIP3    H129085   0.853   4.901   9.301  2.3409 -1.8839 -2.2161
 1630TIP3    H229086   0.951   4.940   9.409  0.2444  0.2179 -0.9776
 1631TIP3   OH229087   8.840   0.548  10.727  0.0961  0.0831 -0.2502
 1631TIP3    H129088   8.794   0.614  10.674 -0.6224 -0.8269 -0.7830
 1631TIP3    H229089   8.905   0.511  10.668  0.6381  0.4430  0.1104
 1632TIP3   OH229090   4.199   6.975   9.897  0.4735  0.1970  0.2171
 1632TIP3    H129091   4.132   7.042   9.883  0.6012  0.3710  0.4347
 1632TIP3    H229092   4.263   7.016   9.954  1.2782  0.3799 -0.7741
 1633TIP3   OH229093   4.240   2.716   9.643 -0.0098 -0.4133  0.0369
 1633TIP3    H129094   4.241   2.748   9.734  0.7622 -0.1879 -0.0376
 1633TIP3    H229095   4.326   2.742   9.609 -1.1470  1.6138 -1.5001
 1634TIP3   OH229096   6.552   0.186  10.930 -0.2218 -0.5968 -0.1684
 1634TIP3    H129097   6.642   0.154  10.924 -0.0889 -0.8925  2.3821
 1634TIP3    H229098   6.554   0.273  10.891  1.3680 -0.2835  0.5272
 1635TIP3   OH229099   5.714   2.003  11.555 -0.3843  0.4376  0.2908
 1635TIP3    H129100   5.635   1.977  11.602 -0.1936 -0.0512  0.3444
 1635TIP3    H229101   5.721   2.098  11.570 -1.7157  0.7531 -0.8413
 1636TIP3   OH229102   6.158   3.894  11.259  0.1279  0.1210 -0.3772
 1636TIP3    H129103   6.218   3.826  11.290  1.2313  1.4657  0.5593
 1636TIP3    H229104   6.071   3.854  11.266  0.6320 -0.7932  1.3542
 1637TIP3   OH229105   7.251   5.733   9.113  0.1517 -0.6285 -0.2101
 1637TIP3    H129106   7.274   5.825   9.109  0.3940 -0.6723  0.1085
 1637TIP3    H229107   7.264   5.700   9.024  1.4130 -0.6766 -0.0240
 1638TIP3   OH229108   0.933   2.146  10.449  0.1273 -0.2725  0.0617
 1638TIP3    H129109   1.015   2.187  10.477 -0.1258 -0.5359  1.2308
 1638TIP3    H229110   0.915   2.080  10.516  0.0188 -1.6521 -1.2774
 1639TIP3   OH229111   8.166   4.871  10.465 -0.1931  0.0900 -0.2746
 1639TIP3    H129112   8.142   4.781  10.444 -1.2062  0.0173  1.1105
 1639TIP3    H229113   8.257   4.878  10.435  0.1243 -1.5911  0.1525
 1640TIP3   OH229114   7.361   2.138   9.769  0.3098 -0.1763  0.1903
 1640TIP3    H129115   7.430   2.081   9.736  0.6931  0.8617 -0.8606
 1640TIP3    H229116   7.401   2.186   9.842  1.6376  2.3318 -2.0095
 1641TIP3   OH229117   3.968   3.618  10.591  0.2598 -0.4583  0.1024
 1641TIP3    H129118   4.031   3.599  10.661  0.0619 -1.4055  0.0349
 1641TIP3    H229119   4.020   3.617  10.511  0.2182 -0.9613  0.0766
 1642TIP3   OH229120   6.687   2.610  10.677 -0.1638  1.1533 -0.0053
 1642TIP3    H129121   6.591   2.608  10.685 -0.3001  0.1250 -1.3345
 1642TIP3    H229122   6.702   2.603  10.582  1.2275  0.0553  0.2654
 1643TIP3   OH229123   1.803   7.300  10.770  0.0540 -0.1647 -0.5756
 1643TIP3    H129124   1.779   7.392  10.769 -0.8722 -0.3026  2.1067
 1643TIP3    H229125   1.874   7.294  10.834 -0.7931 -1.4663  0.2880
 1644TIP3   OH229126   7.755   8.194   9.525  0.5740  0.2391 -0.5850
 1644TIP3    H129127   7.733   8.103   9.502 -0.2404  0.5475 -1.0710
 1644TIP3    H229128   7.834   8.212   9.474  0.6259 -0.1340 -0.6444
 1645TIP3   OH229129   1.323   0.109   9.846  0.3664 -0.4314 -0.1508
 1645TIP3    H129130   1.403   0.145   9.884  0.6438  0.0348 -1.1442
 1645TIP3    H229131   1.354   0.057   9.771 -0.2747 -0.0602 -0.6782
 1646TIP3   OH229132   5.438   4.547   9.962  0.1428  0.4260 -0.3464
 1646TIP3    H129133   5.501   4.598  10.013  0.6821 -1.0812  0.5571
 1646TIP3    H229134   5.486   4.523   9.882  0.6783 -0.5577  0.2548
 1647TIP3   OH229135   4.003   0.383  10.965  0.2385  0.4607 -0.1863
 1647TIP3    H129136   4.053   0.377  10.884  1.2619 -1.8676  0.5536
 1647TIP3    H229137   3.998   0.477  10.983  2.7457  0.8697 -1.2712
 1648TIP3   OH229138   5.870   1.882   9.539  0.1637 -0.1633  0.4256
 1648TIP3    H129139   5.951   1.879   9.489 -0.9096  0.7309 -1.5162
 1648TIP3    H229140   5.827   1.798   9.520  0.2430 -0.2835  0.7661
 1649TIP3   OH229141   5.474   1.430   9.266 -0.3788 -0.0938  0.3825
 1649TIP3    H129142   5.481   1.522   9.240 -0.9490  0.0388  0.6873
 1649TIP3    H229143   5.390   1.424   9.311 -0.6672 -0.9202 -0.2594
 1650TIP3   OH229144   0.720   3.337  10.680  0.2764  0.4599 -0.0956
 1650TIP3    H129145   0.632   3.346  10.715  0.0222 -1.2257 -0.2380
 1650TIP3    H229146   0.719   3.386  10.598 -0.4674  0.5993 -0.0072
 1651TIP3   OH229147   7.586   6.515  10.665 -0.7727 -0.0085  0.1142
 1651TIP3    H129148   7.519   6.580  10.685 -2.0619 -1.2325 -0.0275
 1651TIP3    H229149   7.565   6.441  10.723  1.1595  0.0012  0.8854
 1652TIP3   OH229150   4.050   8.133   9.377  0.2392  0.3327 -0.6207
 1652TIP3    H129151   4.103   8.201   9.336  0.6597 -0.5441 -1.5734
 1652TIP3    H229152   4.114   8.076   9.420 -0.1070  0.4858  0.1254
 1653TIP3   OH229153   5.542   6.605  10.046 -0.8687 -0.2489 -0.0532
 1653TIP3    H129154   5.530   6.557   9.964 -2.3275 -1.3762  0.7647
 1653TIP3    H229155   5.613   6.559  10.091  0.6603  1.0063 -1.0845
 1654TIP3   OH229156   8.408   0.986   9.536 -0.3070  0.1865  0.5040
 1654TIP3    H129157   8.373   0.956   9.620 -1.1538 -0.9627 -0.2263
 1654TIP3    H229158   8.498   1.012   9.556 -0.6642  0.4637  1.8686
 1655TIP3   OH229159   3.092   8.968   9.785  0.1197 -1.0864  0.5590
 1655TIP3    H129160   3.182   8.937   9.775  0.1428 -0.8701  0.0984
 1655TIP3    H229161   3.039   8.889   9.785  0.4085 -1.3085  2.0530
 1656TIP3   OH229162   2.861   2.898  10.804 -0.2459  0.4944 -0.1194
 1656TIP3    H129163   2.909   2.978  10.827 -1.3807  1.1231  0.1777
 1656TIP3    H229164   2.855   2.850  10.887  0.4672  0.0619 -0.3060
 1657TIP3   OH229165   4.825   5.186  11.300 -0.1583  0.0868 -0.1683
 1657TIP3    H129166   4.807   5.267  11.253  0.3706  0.5361  0.3868
 1657TIP3    H229167   4.897   5.208  11.360 -0.6224 -0.5356  0.6454
 1658TIP3   OH229168   7.097   7.751   9.104 -0.8913  0.3776 -0.0395
 1658TIP3    H129169   7.039   7.682   9.072 -0.0147  0.9874 -3.2057
 1658TIP3    H229170   7.044   7.830   9.101 -0.6020  0.5517 -0.7073
 1659TIP3   OH229171   7.404   6.231   9.835 -0.0032 -0.0224 -0.5483
 1659TIP3    H129172   7.331   6.246   9.895 -2.9489 -1.3021 -3.5321
 1659TIP3    H229173   7.369   6.174   9.767  3.6882 -0.3431 -2.4552
 1660TIP3   OH229174   6.293   1.536  10.988  1.0971 -0.4242 -0.4216
 1660TIP3    H129175   6.316   1.612  11.040  1.7147 -0.9731  0.1303
 1660TIP3    H229176   6.200   1.521  11.008  1.2566 -0.4723  0.3348
 1661TIP3   OH229177   0.673   4.602  11.167  0.1158  0.0154  0.2150
 1661TIP3    H129178   0.707   4.596  11.256 -3.7883 -0.9809  1.8494
 1661TIP3    H229179   0.645   4.513  11.146 -2.4196  0.8874 -0.4404
 1662TIP3   OH229180   4.755   5.923  10.864 -0.2470  0.0226  0.8178
 1662TIP3    H129181   4.676   5.964  10.831 -1.0662 -0.4484  2.1052
 1662TIP3    H229182   4.817   5.926  10.791 -1.8059 -0.5674 -0.5698
 1663TIP3   OH229183   4.971   3.022  11.330 -0.3478  0.3597 -0.5650
 1663TIP3    H129184   5.053   3.011  11.281 -1.1634 -1.1847 -1.6552
 1663TIP3    H229185   4.903   2.988  11.272 -1.7112  1.0918  0.5428
 1664TIP3   OH229186   4.579   3.976   9.851 -0.2446 -0.6423  0.1389
 1664TIP3    H129187   4.597   4.058   9.805 -0.7782 -0.1561  0.7651
 1664TIP3    H229188   4.664   3.948   9.885  0.2023 -1.1341 -1.2947
 1665TIP3   OH229189   6.308   4.052  10.087 -0.1915  0.0602  0.6544
 1665TIP3    H129190   6.264   4.109  10.023 -1.3856  0.1716  1.5319
 1665TIP3    H229191   6.363   3.995  10.034  0.4231  1.4895 -0.3105
 1666TIP3   OH229192   4.586   6.665  10.744  0.7192 -0.4360  0.2545
 1666TIP3    H129193   4.525   6.601  10.707  1.7220 -1.6498  0.6325
 1666TIP3    H229194   4.536   6.710  10.812  0.2616 -1.5087  0.6499
 1667TIP3   OH229195   1.890   8.145   9.524  0.0189  0.2760  0.8577
 1667TIP3    H129196   1.922   8.202   9.594  2.0154 -1.2143  1.2477
 1667TIP3    H229197   1.850   8.071   9.570 -1.3359  0.6689  0.3668
 1668TIP3   OH229198   4.615   5.862  10.464 -0.2057  0.5849  0.0482
 1668TIP3    H129199   4.580   5.887  10.549 -3.0408  1.3473 -1.1976
 1668TIP3    H229200   4.679   5.931  10.443 -0.4327  1.0989  0.9945
 1669TIP3   OH229201   4.810   5.678   9.975 -0.4811  0.4410  0.4400
 1669TIP3    H129202   4.806   5.719   9.888 -2.4564 -0.2980  0.1305
 1669TIP3    H229203   4.786   5.748  10.036 -0.3601  0.6439  0.2553
 1670TIP3   OH229204   6.646   5.357  10.703  0.5007  0.1523 -0.4015
 1670TIP3    H129205   6.729   5.373  10.749 -0.3491  0.4465  1.1012
 1670TIP3    H229206   6.586   5.421  10.740 -0.2454  0.3971 -1.9678
 1671TIP3   OH229207   9.209   2.501   9.628  0.3385 -0.0202 -0.5040
 1671TIP3    H129208   9.163   2.578   9.662  0.2899 -0.8933  1.5318
 1671TIP3    H229209   9.301   2.526   9.628  0.6245 -0.6632  2.4952
 1672TIP3   OH229210   7.575   3.734  10.781  0.3811 -0.0961 -0.3855
 1672TIP3    H129211   7.598   3.748  10.689 -2.1999  1.0776 -0.9477
 1672TIP3    H229212   7.620   3.805  10.828  0.7230  0.0423 -0.9183
 1673TIP3   OH229213   6.863   2.891  10.161 -0.0873  0.1774 -0.1106
 1673TIP3    H129214   6.925   2.869  10.230  0.8915  0.2543 -0.9355
 1673TIP3    H229215   6.796   2.823  10.165  1.0622 -1.0086 -0.4051
 1674TIP3   OH229216   3.003   1.467  10.534 -0.3859 -0.0638  0.5887
 1674TIP3    H129217   2.919   1.428  10.560 -0.6923  0.0181 -0.2592
 1674TIP3    H229218   3.067   1.425  10.591 -1.0737  0.3117  1.6605
 1675TIP3   OH229219   8.644   8.652   9.923 -0.2553 -0.3897 -0.1343
 1675TIP3    H129220   8.736   8.678   9.920 -0.4178  0.5780  1.6196
 1675TIP3    H229221   8.596   8.734   9.936 -1.0732 -1.1203  2.0907
 1676TIP3   OH229222   8.169   1.986  10.101  0.1896 -0.8143 -0.2158
 1676TIP3    H129223   8.150   2.043  10.027 -1.6698  1.3958  1.7596
 1676TIP3    H229224   8.244   2.028  10.144 -1.1598  0.2814  1.2228
 1677TIP3   OH229225   8.943   5.580  10.646  0.5398  0.1399  0.3292
 1677TIP3    H129226   8.989   5.517  10.590  1.1974 -0.3512  1.3785
 1677TIP3    H229227   9.000   5.590  10.722  0.2049  1.6504  0.4088
 1678TIP3   OH229228   3.131   2.136  10.271 -0.2080 -0.3303 -0.0014
 1678TIP3    H129229   3.157   2.183  10.191 -0.8663 -0.0605 -0.0575
 1678TIP3    H229230   3.117   2.205  10.336  0.0213 -0.5308  0.2620
 1679TIP3   OH229231   8.260   4.462   9.549 -0.3313  0.2424  0.3782
 1679TIP3    H129232   8.273   4.392   9.613 -2.0339 -0.5928 -0.1482
 1679TIP3    H229233   8.290   4.425   9.466  0.1631  0.6863  0.3502
 1680TIP3   OH229234   5.397   4.935  10.552  0.5767 -0.1719 -0.1624
 1680TIP3    H129235   5.331   4.928  10.621 -2.1053 -0.4543 -2.5502
 1680TIP3    H229236   5.413   4.844  10.524  0.7710  0.0069 -0.6565
 1681TIP3   OH229237   5.867   5.314   9.716 -1.2861  0.0365  0.1482
 1681TIP3    H129238   5.775   5.286   9.721 -0.8230 -1.6433 -0.0232
 1681TIP3    H229239   5.917   5.235   9.737  0.1234  1.0759  0.8933
 1682TIP3   OH229240   2.436   0.257   9.834 -0.6006 -0.1326 -0.3490
 1682TIP3    H129241   2.359   0.249   9.776 -0.2650 -0.4125 -0.7624
 1682TIP3    H229242   2.406   0.315   9.904 -0.6459  1.2550 -1.4500
 1683TIP3   OH229243   4.694   5.529   9.486  0.0814 -0.3314  0.4825
 1683TIP3    H129244   4.621   5.584   9.458 -0.3925 -1.4072 -0.4927
 1683TIP3    H229245   4.663   5.487   9.565  0.3858  0.6446  1.1425
 1684TIP3   OH229246   8.079   4.724  10.036  0.2228 -0.3842 -0.2399
 1684TIP3    H129247   8.099   4.816  10.052  0.2573 -0.6086  1.1397
 1684TIP3    H229248   8.140   4.697   9.967 -1.0860  1.0984 -2.1101
 1685TIP3   OH229249   2.558   8.512   9.031  0.0113  0.0148  0.6141
 1685TIP3    H129250   2.511   8.464   9.099 -2.6871  0.4146 -0.8394
 1685TIP3    H229251   2.490   8.560   8.983  2.0469  1.4827 -1.0032
 1686TIP3   OH229252   4.251   2.489   9.993  0.1110  0.1367  0.4402
 1686TIP3    H129253   4.174   2.542   9.974  0.5572  0.5978 -0.1409
 1686TIP3    H229254   4.308   2.503   9.918  0.2453 -1.1666  0.2773
 1687TIP3   OH229255   4.339   8.393  11.040  0.0961  0.1306  0.3957
 1687TIP3    H129256   4.403   8.359  11.103  0.3872  0.1352  0.1084
 1687TIP3    H229257   4.277   8.442  11.093 -0.5462 -1.1535  0.8652
 1688TIP3   OH229258   6.134   6.691  10.775 -0.0549  0.1336  0.7500
 1688TIP3    H129259   6.051   6.684  10.822 -0.8892  2.3053 -0.2694
 1688TIP3    H229260   6.151   6.602  10.743 -0.2542 -1.0638  3.6956
 1689TIP3   OH229261   9.103   0.888  10.813  0.4336 -0.5116  0.1153
 1689TIP3    H129262   9.148   0.805  10.829 -1.5506 -1.3550  2.0614
 1689TIP3    H229263   9.034   0.866  10.751  1.8479  0.4879 -1.9047
 1690TIP3   OH229264   3.270   8.356  10.251 -0.2819  0.2765  0.3133
 1690TIP3    H129265   3.285   8.412  10.175  2.6822  0.0028  0.5945
 1690TIP3    H229266   3.230   8.414  10.316 -1.4877  0.8719 -0.9157
 1691TIP3   OH229267   2.789   4.509   9.655 -0.3575 -0.1478 -0.5710
 1691TIP3    H129268   2.715   4.537   9.710 -0.1266 -2.0427  0.7994
 1691TIP3    H229269   2.750   4.452   9.589 -0.4276  0.8844 -1.4375
 1692TIP3   OH229270   0.523   6.632  10.102  0.1923  0.2811 -0.5982
 1692TIP3    H129271   0.570   6.615  10.021  0.3907 -1.0258 -0.2201
 1692TIP3    H229272   0.435   6.596  10.087  0.2974 -0.1662 -0.1617
 1693TIP3   OH229273   2.652   8.512  10.437  0.1532  0.5961  0.1994
 1693TIP3    H129274   2.636   8.465  10.519 -1.4807 -0.7270 -0.8095
 1693TIP3    H229275   2.738   8.481  10.408 -0.0593 -0.3123  0.5215
 1694TIP3   OH229276   5.159   4.875  10.703 -0.2292 -0.0824  0.6077
 1694TIP3    H129277   5.112   4.930  10.765 -0.0922 -1.4550  1.9804
 1694TIP3    H229278   5.091   4.838  10.647 -0.2718  1.9000 -0.7300
 1695TIP3   OH229279   2.244   0.364  10.242 -0.2138 -0.5500  0.3763
 1695TIP3    H129280   2.176   0.389  10.304 -0.5665 -0.1358 -0.1618
 1695TIP3    H229281   2.296   0.297  10.287  0.3412  0.6663  1.6051
 1696TIP3   OH229282   6.527   0.963   9.249 -0.5213  0.4146 -0.1925
 1696TIP3    H129283   6.478   0.918   9.180 -1.4958  0.8567  0.1944
 1696TIP3    H229284   6.484   0.937   9.330  0.6207 -0.1040  0.2686
 1697TIP3   OH229285   4.536   1.191  10.348 -0.2249 -0.0776 -0.4689
 1697TIP3    H129286   4.573   1.263  10.399 -0.4905 -1.3771  1.7294
 1697TIP3    H229287   4.561   1.112  10.397 -2.3395 -1.2828 -1.1924
 1698TIP3   OH229288   8.525   3.882  10.982 -0.5501  0.0386  0.3345
 1698TIP3    H129289   8.429   3.883  10.981 -0.5770  0.2711  1.3910
 1698TIP3    H229290   8.547   3.814  11.046  0.0007 -0.2910 -0.1960
 1699TIP3   OH229291   0.350   4.221   9.744  0.6135 -0.4725 -0.1327
 1699TIP3    H129292   0.274   4.187   9.790 -0.7835  2.0660 -0.3832
 1699TIP3    H229293   0.425   4.180   9.787 -0.7798 -0.9149  1.9855
 1700TIP3   OH229294   1.238   1.079  10.225 -0.1232 -0.0224 -0.3927
 1700TIP3    H129295   1.277   1.022  10.160 -0.4017  0.9070 -1.4055
 1700TIP3    H229296   1.311   1.129  10.260 -0.0150 -0.3080 -0.2081
 1701TIP3   OH229297   5.576   0.779   9.038 -0.3122 -0.1308  0.2332
 1701TIP3    H129298   5.501   0.763   8.981 -0.0110  0.0838 -0.2204
 1701TIP3    H229299   5.592   0.873   9.033 -1.1009  0.1249  1.6990
 1702TIP3   OH229300   1.627   2.444  10.895 -0.2285  0.1151 -0.4273
 1702TIP3    H129301   1.700   2.415  10.840  0.9922 -1.0097  1.6604
 1702TIP3    H229302   1.583   2.363  10.921  0.3649  0.4124  1.6956
 1703TIP3   OH229303   6.346   1.867  10.053  0.4842  0.6133 -0.4518
 1703TIP3    H129304   6.345   1.952  10.008 -1.0183  1.1452  0.5071
 1703TIP3    H229305   6.293   1.810   9.998 -0.3012  0.9117 -0.0169
 1704TIP3   OH229306   2.758   1.705  10.825 -0.7930 -0.2065  0.0284
 1704TIP3    H129307   2.747   1.619  10.865 -1.3270 -0.3720 -0.4535
 1704TIP3    H229308   2.709   1.699  10.743 -1.2552  0.7160  0.2236
 1705TIP3   OH229309   8.458   4.868   9.509  0.0389 -0.3312  0.1031
 1705TIP3    H129310   8.554   4.868   9.513  0.1294  1.6532 -0.7458
 1705TIP3    H229311   8.439   4.864   9.415 -0.7503 -1.5887  0.3065
 1706TIP3   OH229312   3.212   4.834   9.854 -0.4731 -0.4148  0.6989
 1706TIP3    H129313   3.155   4.893   9.805  2.0215 -0.0644 -2.0497
 1706TIP3    H229314   3.282   4.890   9.887  0.6487 -1.4525  0.1298
 1707TIP3   OH229315   4.413   7.087  10.580  0.2410  0.5348  0.0623
 1707TIP3    H129316   4.397   7.115  10.490  1.2595  1.0352  0.0228
 1707TIP3    H229317   4.430   6.993  10.574  2.4346  0.9236 -0.5810
 1708TIP3   OH229318   3.869   3.313   9.892 -0.1627 -0.4932 -0.4400
 1708TIP3    H129319   3.821   3.230   9.886  0.7528 -1.1604  0.8286
 1708TIP3    H229320   3.810   3.371   9.938 -0.9036 -0.3471 -1.5375
 1709TIP3   OH229321   0.715   5.616   9.446  0.4192 -0.4646 -0.1589
 1709TIP3    H129322   0.774   5.574   9.509 -0.8488  0.7164  1.9362
 1709TIP3    H229323   0.736   5.709   9.452  0.5845 -0.3538 -1.9004
 1710TIP3   OH229324   4.865   0.976   9.830  0.1885 -0.1498 -0.3417
 1710TIP3    H129325   4.887   0.940   9.744 -0.3510 -0.7816 -0.2200
 1710TIP3    H229326   4.936   0.948   9.887  1.8037  2.2255 -1.0393
 1711TIP3   OH229327   0.927   2.950   9.287  0.1286  0.5707 -0.0108
 1711TIP3    H129328   0.996   2.911   9.234 -0.0759 -0.2758  0.3401
 1711TIP3    H229329   0.907   2.885   9.353 -2.0977  0.1099 -1.0441
 1712TIP3   OH229330   7.610   4.419  10.669  0.3653  0.4215 -0.1285
 1712TIP3    H129331   7.585   4.447  10.757  0.3247 -0.9750  0.3183
 1712TIP3    H229332   7.530   4.432  10.616  0.2409  0.7876  0.1448
 1713TIP3   OH229333   6.129   4.320  10.109 -0.3102 -0.4216  0.1920
 1713TIP3    H129334   6.068   4.394  10.107 -0.9845 -0.9505  0.4092
 1713TIP3    H229335   6.167   4.317  10.021 -2.4516 -1.5599 -0.7738
 1714TIP3   OH229336   7.096   4.992   9.217 -0.2202  0.6937  0.4178
 1714TIP3    H129337   7.172   4.933   9.217 -1.1425 -0.5496 -0.3624
 1714TIP3    H229338   7.134   5.080   9.212  1.1790  0.1419  0.7962
 1715TIP3   OH229339   0.387   1.414  10.167 -0.4301 -0.0249 -0.0296
 1715TIP3    H129340   0.362   1.324  10.185 -1.4000  0.6919  2.8235
 1715TIP3    H229341   0.310   1.453  10.126 -0.6957 -0.0658  0.4239
 1716TIP3   OH229342   5.055   7.741  10.101  0.1159 -0.2100 -0.4475
 1716TIP3    H129343   4.974   7.785  10.126  0.5017 -0.3039  1.0331
 1716TIP3    H229344   5.124   7.802  10.125  0.5540 -0.6850 -0.4817
 1717TIP3   OH229345   6.434   6.939  10.245 -0.1999 -0.5485 -0.4408
 1717TIP3    H129346   6.502   7.007  10.246  0.0844 -0.8321 -0.2400
 1717TIP3    H229347   6.383   6.958  10.167 -0.0160 -0.2055 -0.4821
 1718TIP3   OH229348   1.215   6.462  10.798  0.3341  0.7818 -0.1926
 1718TIP3    H129349   1.135   6.456  10.849 -0.8317  0.2987 -1.9923
 1718TIP3    H229350   1.228   6.556  10.783 -1.6704  0.8061 -2.4339
 1719TIP3   OH229351   5.368   0.020   9.677 -0.1346  0.6503  0.1064
 1719TIP3    H129352   5.283   0.021   9.633  0.4005  1.8812 -0.9583
 1719TIP3    H229353   5.416   0.095   9.640  1.4017  0.0138  0.7021
 1720TIP3   OH229354   3.437   1.139  10.637  0.1624  0.3318 -0.5695
 1720TIP3    H129355   3.437   1.156  10.542 -0.7097 -1.2147 -0.8803
 1720TIP3    H229356   3.374   1.068  10.648 -0.4722  1.1417  1.3188
 1721TIP3   OH229357   8.412   3.059  10.350 -0.2673 -0.0538 -0.3778
 1721TIP3    H129358   8.480   2.997  10.377 -1.6183 -0.7105  1.7762
 1721TIP3    H229359   8.435   3.141  10.394 -0.9146 -0.3173  0.4738
 1722TIP3   OH229360   5.800   5.695   9.930 -0.8185  0.6671 -0.0144
 1722TIP3    H129361   5.728   5.641   9.896 -0.1518  0.1935 -0.7236
 1722TIP3    H229362   5.777   5.712  10.021 -1.6224  0.1711 -0.1154
 1723TIP3   OH229363   5.249   1.880  10.383  0.2131 -0.5963  0.1485
 1723TIP3    H129364   5.213   1.910  10.299  2.2447 -1.4464 -1.1133
 1723TIP3    H229365   5.322   1.938  10.401 -0.9296  0.3541  2.0408
 1724TIP3   OH229366   6.269   8.545   9.736 -0.2209 -0.0370  0.4562
 1724TIP3    H129367   6.298   8.605   9.668 -0.9990 -0.2858 -0.0989
 1724TIP3    H229368   6.312   8.462   9.715  0.0212  0.0449  0.6222
 1725TIP3   OH229369   6.610   0.369   9.178  0.1734 -0.4539  0.4839
 1725TIP3    H129370   6.536   0.426   9.156  0.7495 -0.4388 -1.6388
 1725TIP3    H229371   6.570   0.282   9.192 -0.3672 -0.1927  0.5887
 1726TIP3   OH229372   5.508   5.146  10.163  0.1694 -0.8786 -0.7340
 1726TIP3    H129373   5.454   5.099  10.226 -1.2371  0.2534 -1.0563
 1726TIP3    H229374   5.568   5.197  10.218  1.0382 -2.2245 -0.3775
 1727TIP3   OH229375   7.104   3.394  11.371 -0.0221  0.2837 -0.0816
 1727TIP3    H129376   7.064   3.469  11.327  0.3546 -0.1761 -1.2459
 1727TIP3    H229377   7.040   3.324  11.361 -0.0927  0.2706  0.4399
 1728TIP3   OH229378   8.576   0.293  10.383  0.1039  0.0651 -0.0207
 1728TIP3    H129379   8.567   0.227  10.452 -1.1164 -0.3005 -0.4924
 1728TIP3    H229380   8.670   0.304  10.372  0.3340 -1.4198  0.2514
 1729TIP3   OH229381   1.064   0.553  10.448 -0.1896  0.3252 -0.2274
 1729TIP3    H129382   1.062   0.477  10.390 -1.2227  1.5689 -1.9031
 1729TIP3    H229383   1.054   0.629  10.390  0.7861  1.7671  1.3779
 1730TIP3   OH229384   5.170   4.205  10.175 -0.1765  0.2355 -0.4063
 1730TIP3    H129385   5.108   4.211  10.102  0.4053 -0.9107 -1.0285
 1730TIP3    H229386   5.221   4.126  10.156  3.0544  2.3211 -1.1752
 1731TIP3   OH229387   3.147   0.854  10.185 -0.1745 -0.2978 -0.0535
 1731TIP3    H129388   3.145   0.771  10.137 -1.3034 -0.4873  0.2835
 1731TIP3    H229389   3.210   0.907  10.137 -2.1023 -0.0305 -2.5553
 1732TIP3   OH229390   8.165   6.452  10.655 -0.8036 -0.4273  0.6953
 1732TIP3    H129391   8.258   6.427  10.652 -0.8462 -0.5524  0.3849
 1732TIP3    H229392   8.160   6.518  10.724 -0.3606  0.0933  0.2415
 1733TIP3   OH229393   9.184   0.723  11.066  0.7312  0.5911 -0.6903
 1733TIP3    H129394   9.115   0.662  11.039  0.4274  0.3002  0.6734
 1733TIP3    H229395   9.263   0.690  11.023  1.0275 -2.0867  1.6239
 1734TIP3   OH229396   1.548   5.064  10.389  0.0914  0.2596  0.0927
 1734TIP3    H129397   1.475   5.046  10.330  0.8708 -2.7052 -0.1269
 1734TIP3    H229398   1.506   5.092  10.471 -1.2314 -0.3311 -0.3538
 1735TIP3   OH229399   7.735   6.550   9.184  0.6089  0.3846  0.4907
 1735TIP3    H129400   7.678   6.550   9.261 -1.3070 -1.8691 -0.8030
 1735TIP3    H229401   7.696   6.617   9.126 -1.8945 -2.1487 -1.0266
 1736TIP3   OH229402   0.254   2.217  10.601 -0.1208  0.2085 -0.0666
 1736TIP3    H129403   0.266   2.263  10.684 -0.1254 -0.6513  0.4213
 1736TIP3    H229404   0.235   2.286  10.538  0.0218  0.8858  0.6188
 1737TIP3   OH229405   0.843   3.131  11.144  0.2321  0.1055  0.1169
 1737TIP3    H129406   0.911   3.187  11.106 -0.1446  0.5393  0.0594
 1737TIP3    H229407   0.779   3.121  11.073 -0.8404  1.5257  0.8338
 1738TIP3   OH229408   2.352   0.227   9.443  0.4644 -0.5988 -0.3574
 1738TIP3    H129409   2.351   0.187   9.530  0.9021  0.7630  0.2875
 1738TIP3    H229410   2.413   0.173   9.393  0.5558 -1.1216  0.3031
 1739TIP3   OH229411   4.029   6.262  10.578  0.5701  0.1266 -0.3739
 1739TIP3    H129412   3.953   6.213  10.549  0.5472  0.4221 -0.8127
 1739TIP3    H229413   4.008   6.354  10.560  0.5093  0.3368  0.6619
 1740TIP3   OH229414   4.800   2.343  10.655  0.0178 -0.1092  0.7054
 1740TIP3    H129415   4.783   2.250  10.673  1.6538 -0.2238  1.8257
 1740TIP3    H229416   4.734   2.366  10.589 -1.7585 -1.5225  1.8573
 1741TIP3   OH229417   0.668   3.796  10.514 -0.1516 -0.2168  0.7378
 1741TIP3    H129418   0.578   3.767  10.527 -0.6145  1.8237  2.7134
 1741TIP3    H229419   0.673   3.821  10.422 -2.5402  2.3564  1.1844
 1742TIP3   OH229420   2.207   1.893  10.500 -0.5733  0.0394 -0.5544
 1742TIP3    H129421   2.221   1.801  10.477 -0.1536  0.4924 -2.2929
 1742TIP3    H229422   2.239   1.901  10.589  0.3562 -1.2852 -0.7436
 1743TIP3   OH229423   2.280   1.615   9.617  0.2643  0.4117 -0.2692
 1743TIP3    H129424   2.219   1.682   9.588  1.7869  1.4435 -1.2775
 1743TIP3    H229425   2.274   1.546   9.551 -1.3512 -0.5512  0.8036
 1744TIP3   OH229426   8.891   9.151  10.811  0.2523  0.2703  0.4938
 1744TIP3    H129427   8.987   9.155  10.814  0.4214 -0.4649 -1.9300
 1744TIP3    H229428   8.870   9.062  10.837  0.2098  0.4345  1.0340
 1745TIP3   OH229429   4.508   3.288  10.222  0.5036  0.0433 -0.0716
 1745TIP3    H129430   4.495   3.280  10.316 -0.8490 -0.2549 -0.2739
 1745TIP3    H229431   4.600   3.314  10.213  0.9961 -1.1073  1.2730
 1746TIP3   OH229432   6.257   6.180  11.218 -0.0221 -0.8214 -0.3353
 1746TIP3    H129433   6.171   6.221  11.214  0.4365  0.1655 -0.2779
 1746TIP3    H229434   6.277   6.176  11.312  1.7063  2.7064 -0.3972
 1747TIP3   OH229435   0.790   4.780  10.241 -0.2080  0.0376  0.6654
 1747TIP3    H129436   0.811   4.696  10.283 -0.8930  0.1538  1.2622
 1747TIP3    H229437   0.870   4.832  10.251 -0.1162 -0.1918  1.2031
 1748TIP3   OH229438   8.250   1.581  11.074 -0.1854 -0.3815 -0.0189
 1748TIP3    H129439   8.249   1.545  10.986  0.6959 -2.2976  0.6905
 1748TIP3    H229440   8.341   1.572  11.103 -0.6743 -0.8342  1.4755
 1749TIP3   OH229441   1.354   0.136  10.199  0.5227  0.0889  0.8201
 1749TIP3    H129442   1.370   0.043  10.180 -1.9866 -0.2163 -0.2708
 1749TIP3    H229443   1.389   0.182  10.123 -0.1822 -0.1874  0.3163
 1750TIP3   OH229444   4.199   0.196  10.434  0.2385  0.1586 -0.4098
 1750TIP3    H129445   4.224   0.289  10.430 -2.4048  0.9073 -1.8386
 1750TIP3    H229446   4.104   0.198  10.446  0.4016 -2.4344  2.6616
 1751TIP3   OH229447   1.465   1.180  10.338 -0.0087 -0.1000 -0.3318
 1751TIP3    H129448   1.556   1.150  10.338  0.4196  1.1042 -1.2197
 1751TIP3    H229449   1.450   1.213  10.426  0.3021 -0.6285 -0.0789
 1752TIP3   OH229450   5.785   7.034  10.516 -0.0560  0.4160 -0.5483
 1752TIP3    H129451   5.757   7.090  10.588 -0.7387 -0.9827  0.3301
 1752TIP3    H229452   5.877   7.016  10.534 -0.3128 -0.2138  0.2126
 1753TIP3   OH229453   3.692   2.843  10.245 -0.2238 -0.3098  0.1239
 1753TIP3    H129454   3.692   2.925  10.195  0.0812 -0.1670  0.3607
 1753TIP3    H229455   3.624   2.790  10.203 -2.5060  1.1313  1.7559
 1754TIP3   OH229456   7.683   8.979  10.056 -0.1398 -0.4025  0.0592
 1754TIP3    H129457   7.727   8.983   9.971  0.9080  0.6976  0.6340
 1754TIP3    H229458   7.751   8.948  10.116 -0.4127  0.3711  0.7810
 1755TIP3   OH229459   8.183   1.711  10.089  0.0841  0.1560  0.1096
 1755TIP3    H129460   8.136   1.695  10.171  0.0288 -1.7455 -0.2508
 1755TIP3    H229461   8.185   1.806  10.081 -0.8365  0.3557  1.7793
 1756TIP3   OH229462   7.495   1.737   9.940  0.0711 -0.0297 -0.0722
 1756TIP3    H129463   7.402   1.718   9.953  0.1631 -0.2192  0.3214
 1756TIP3    H229464   7.507   1.824   9.978  0.2675 -0.4398  0.8379
 1757TIP3   OH229465   5.955   8.635  10.912 -0.3149 -0.5300 -0.3174
 1757TIP3    H129466   5.890   8.581  10.866 -0.7813 -0.8211  0.6432
 1757TIP3    H229467   6.038   8.590  10.898 -0.8114 -2.0326  1.1731
 1758TIP3   OH229468   7.494   0.985   9.515 -0.5975 -1.0374 -0.8900
 1758TIP3    H129469   7.494   1.043   9.439 -0.4507  1.2214  0.7150
 1758TIP3    H229470   7.423   0.923   9.498 -1.0222 -0.1576 -2.5376
 1759TIP3   OH229471   0.523   5.660  11.074 -0.4112 -0.1813  0.3581
 1759TIP3    H129472   0.599   5.620  11.032  0.4662  0.4509  1.2808
 1759TIP3    H229473   0.481   5.587  11.121 -1.5375 -0.9383 -1.7105
 1760TIP3   OH229474   1.564   2.109   9.510  0.4872 -0.2873 -0.0173
 1760TIP3    H129475   1.547   2.188   9.459  1.1857 -0.5062 -0.6127
 1760TIP3    H229476   1.658   2.111   9.526  0.0856  0.6382  2.7468
 1761TIP3   OH229477   1.712   4.617   9.624 -0.0515  0.7100  0.0123
 1761TIP3    H129478   1.688   4.637   9.534  0.4235  2.7073  0.2907
 1761TIP3    H229479   1.769   4.540   9.617  1.7721  2.1179 -1.6440
 1762TIP3   OH229480   3.074   5.215   9.923 -0.1663  0.2088  0.5741
 1762TIP3    H129481   3.063   5.136   9.870 -0.5587  0.4466  0.2956
 1762TIP3    H229482   3.060   5.186  10.013 -1.6587  0.2046  0.3649
 1763TIP3   OH229483   3.232   8.756  10.062  0.1657 -0.4567 -0.5836
 1763TIP3    H129484   3.256   8.665  10.080  1.0740 -0.1480 -0.2040
 1763TIP3    H229485   3.272   8.775   9.977 -1.2236 -0.8341 -1.3641
 1764TIP3   OH229486   0.084   3.649   9.385 -0.2708  0.3395  0.3633
 1764TIP3    H129487   0.130   3.722   9.427  0.0021 -0.0530  0.7483
 1764TIP3    H229488   0.137   3.572   9.405 -0.1287  0.1416 -0.7218
 1765TIP3   OH229489   8.843   2.265  11.004  0.1983 -0.2853 -0.3471
 1765TIP3    H129490   8.755   2.248  11.039  0.1769  1.9613  0.8728
 1765TIP3    H229491   8.840   2.230  10.915 -1.5375 -1.3480  0.0750
 1766TIP3   OH229492   2.380   1.373  10.961  0.1667  0.2005 -0.2620
 1766TIP3    H129493   2.450   1.327  11.007 -0.1206 -0.0959 -0.1160
 1766TIP3    H229494   2.300   1.349  11.009  0.3084  3.1763  1.7308
 1767TIP3   OH229495   8.471   8.344  10.544  0.1542  0.1357  0.4578
 1767TIP3    H129496   8.502   8.296  10.621  0.4189  0.4948  0.5794
 1767TIP3    H229497   8.442   8.428  10.579 -0.6942 -0.0900  0.3028
 1768TIP3   OH229498   8.132   0.354   9.052  0.7082 -0.3430  0.4403
 1768TIP3    H129499   8.155   0.263   9.033  3.2433  0.4556 -0.7617
 1768TIP3    H229500   8.193   0.382   9.119 -0.6571  0.2560  1.4931
 1769TIP3   OH229501   7.084   5.093  10.852 -0.3562  0.0369 -0.4763
 1769TIP3    H129502   7.098   5.130  10.765 -2.0256 -0.9208 -1.1950
 1769TIP3    H229503   7.126   5.007  10.849  0.0931  0.2380 -0.1231
 1770TIP3   OH229504   3.696   3.682  10.588 -0.3134 -0.3478  0.6760
 1770TIP3    H129505   3.788   3.659  10.601  0.1672  1.2358  0.2517
 1770TIP3    H229506   3.660   3.690  10.676  0.3302  0.3959  0.8844
 1771TIP3   OH229507   7.578   0.768  10.779 -0.2995 -0.2394 -0.3429
 1771TIP3    H129508   7.647   0.713  10.743  1.9843 -1.1521  4.5458
 1771TIP3    H229509   7.624   0.837  10.826 -2.8257  0.7681  0.8590
 1772TIP3   OH229510   7.048   7.503   9.993  0.0025  0.2638  0.0878
 1772TIP3    H129511   7.103   7.447   9.939 -2.1083 -0.4196 -1.4712
 1772TIP3    H229512   7.090   7.589   9.989  0.1641  0.1503 -2.3803
 1773TIP3   OH229513   8.829   8.165   9.075 -0.0529  0.0312 -0.2190
 1773TIP3    H129514   8.765   8.235   9.093  0.0650 -0.3965  2.0833
 1773TIP3    H229515   8.912   8.211   9.065  0.0104  0.2656  1.1946
 1774TIP3   OH229516   3.867   3.187  11.149  0.3869  0.1290 -0.0401
 1774TIP3    H129517   3.953   3.168  11.110 -0.6290 -1.7610 -1.4733
 1774TIP3    H229518   3.806   3.133  11.100 -1.7417  1.8570  0.5795
 1775TIP3   OH229519   7.719   0.806   9.838  0.7152  0.9199 -0.4352
 1775TIP3    H129520   7.679   0.799   9.924  2.2227  1.5580  0.3534
 1775TIP3    H229521   7.673   0.740   9.785 -0.0620  0.3380  0.9023
 1776TIP3   OH229522   5.437   3.358   9.572 -0.1537  0.0049  0.1104
 1776TIP3    H129523   5.375   3.334   9.642  0.1944  0.0238  0.4248
 1776TIP3    H229524   5.440   3.454   9.575 -0.4922  0.0300 -0.2405
 1777TIP3   OH229525   3.681   5.405   9.941 -0.3712 -0.0439 -0.2350
 1777TIP3    H129526   3.610   5.362   9.989 -0.7004 -0.3269 -0.9563
 1777TIP3    H229527   3.647   5.416   9.852  0.5776 -0.4189 -0.6643
 1778TIP3   OH229528   3.846   4.494  10.259  0.0058 -0.0268 -0.0387
 1778TIP3    H129529   3.940   4.510  10.265 -0.0448 -0.0587  0.8694
 1778TIP3    H229530   3.811   4.574  10.220  0.0817  1.1271  2.1113
 1779TIP3   OH229531   5.827   0.773   9.390  0.1913  0.0740 -0.2697
 1779TIP3    H129532   5.908   0.814   9.422 -0.1692  2.0962 -1.7502
 1779TIP3    H229533   5.757   0.820   9.436 -0.1863 -0.7003 -0.0464
 1780TIP3   OH229534   2.157   6.327  10.370 -0.0479  0.2737 -0.0267
 1780TIP3    H129535   2.207   6.407  10.356  2.1862 -1.2152 -1.2702
 1780TIP3    H229536   2.133   6.330  10.463  3.4254  0.6407  1.0211
 1781TIP3   OH229537   7.137   7.957   9.554  0.0820 -0.2683 -0.1029
 1781TIP3    H129538   7.081   7.902   9.500 -1.2489  0.4770  0.4953
 1781TIP3    H229539   7.079   8.022   9.592  1.3828  0.6619  0.3772
 1782TIP3   OH229540   4.150   0.422   9.819  0.3315  0.2331 -0.3374
 1782TIP3    H129541   4.168   0.515   9.834 -2.2501  0.8694 -0.6934
 1782TIP3    H229542   4.055   0.414   9.829  0.2525 -2.0422 -2.0556
 1783TIP3   OH229543   8.011   2.768  11.159 -0.0533 -0.0573 -0.1993
 1783TIP3    H129544   7.966   2.849  11.186 -2.4610 -1.4666  0.2868
 1783TIP3    H229545   7.955   2.698  11.190  1.6272 -1.9543 -1.2185
 1784TIP3   OH229546   7.526   2.388  10.406 -0.0591 -0.5413 -0.2956
 1784TIP3    H129547   7.472   2.333  10.463 -0.6556 -0.3408 -0.6640
 1784TIP3    H229548   7.611   2.391  10.451 -0.1782 -1.3077  0.0060
 1785TIP3   OH229549   7.923   0.583  10.246 -0.1091 -0.3700 -0.2064
 1785TIP3    H129550   7.921   0.488  10.234  0.4566 -0.2620 -1.2467
 1785TIP3    H229551   7.838   0.604  10.285 -0.1675 -1.3165  0.2022
 1786TIP3   OH229552   8.049   5.764  10.087 -0.0007  0.8536  0.2299
 1786TIP3    H129553   7.958   5.794  10.086 -0.0458  0.7421  0.6095
 1786TIP3    H229554   8.099   5.835  10.048 -0.4641  0.1600 -1.7203
 1787TIP3   OH229555   8.977   4.864  10.389  0.3664  0.3041  0.2933
 1787TIP3    H129556   8.978   4.960  10.390 -0.3407  0.3667 -1.8712
 1787TIP3    H229557   8.927   4.841  10.312 -1.0937 -1.8531  1.7833
 1788TIP3   OH229558   4.704   0.946  10.471 -0.5291  0.4761 -0.1596
 1788TIP3    H129559   4.695   0.923  10.378  1.3900 -0.0131 -0.2715
 1788TIP3    H229560   4.662   0.873  10.518 -1.6606  0.8091 -0.6187
 1789TIP3   OH229561   8.282   3.742  10.952 -0.3172 -0.8260  0.3496
 1789TIP3    H129562   8.333   3.664  10.935  0.4611 -0.3787  0.5720
 1789TIP3    H229563   8.223   3.717  11.023  0.0480 -1.1573  0.5381
 1790TIP3   OH229564   0.310   3.232  10.580  0.0811  0.3078  0.1637
 1790TIP3    H129565   0.345   3.317  10.605  1.7623 -0.2506 -0.1217
 1790TIP3    H229566   0.251   3.251  10.507  1.3116  1.1387 -0.6640
 1791TIP3   OH229567   5.345   5.531  11.225  0.4282  0.4740 -0.2080
 1791TIP3    H129568   5.325   5.465  11.292  1.9432  1.1786  1.0180
 1791TIP3    H229569   5.276   5.596  11.235 -0.3140 -0.2478 -0.5023
 1792TIP3   OH229570   6.677   4.397  10.816 -0.5688  0.0965 -0.1884
 1792TIP3    H129571   6.614   4.455  10.858 -0.3736  0.0342  0.1970
 1792TIP3    H229572   6.631   4.314  10.806  0.5728 -1.1936  3.5863
 1793TIP3   OH229573   8.208   1.252  10.396  0.4701  0.3771 -0.3913
 1793TIP3    H129574   8.206   1.333  10.448 -3.3231  0.5414 -0.5144
 1793TIP3    H229575   8.283   1.263  10.338  2.7596  1.7679  2.5364
 1794TIP3   OH229576   3.220   8.372   9.173  0.0618 -0.1861 -0.5299
 1794TIP3    H129577   3.215   8.433   9.246 -0.7382  0.8932 -1.4428
 1794TIP3    H229578   3.130   8.342   9.160  0.0347  0.3326 -1.6324
 1795TIP3   OH229579   0.876   1.816  11.296  0.3125  0.1251  0.3125
 1795TIP3    H129580   0.895   1.803  11.389 -1.2288 -0.3917  0.5849
 1795TIP3    H229581   0.919   1.742  11.252  0.0354 -0.3066  0.7548
 1796TIP3   OH229582   8.259   2.002  10.510  0.2039  0.2833  0.4046
 1796TIP3    H129583   8.265   1.979  10.603  0.1721 -0.5223  0.2172
 1796TIP3    H229584   8.172   1.971  10.483  0.9380 -1.2422 -0.3353
 1797TIP3   OH229585   9.139   0.558   9.458 -0.3784  0.5959 -0.3000
 1797TIP3    H129586   9.142   0.585   9.366  1.2710  2.5163  0.2466
 1797TIP3    H229587   9.200   0.484   9.462 -0.5921  0.3861 -0.7755
 1798TIP3   OH229588   6.493   3.127   9.525  0.1476  0.1893  0.1652
 1798TIP3    H129589   6.450   3.211   9.508  0.7077  0.4370 -0.0345
 1798TIP3    H229590   6.538   3.140   9.609 -0.0935 -0.0424  0.3315
 1799TIP3   OH229591   7.473   0.843  10.521 -0.3614 -0.1508  0.5893
 1799TIP3    H129592   7.482   0.794  10.602 -1.2354  0.6280  1.1694
 1799TIP3    H229593   7.555   0.892  10.514 -0.0627 -0.6199  0.7145
 1800TIP3   OH229594   7.266   1.945  11.178  0.1706  0.7019 -0.3621
 1800TIP3    H129595   7.172   1.956  11.195 -0.0014 -0.4073 -0.5025
 1800TIP3    H229596   7.278   1.850  11.171  1.2626  0.8432 -0.6064
 1801TIP3   OH229597   7.278   3.649  10.168  0.4999  0.3412  0.0275
 1801TIP3    H129598   7.248   3.562  10.193 -0.7494  0.6043 -0.4519
 1801TIP3    H229599   7.369   3.637  10.140  0.4139 -0.7590  0.1949
 1802TIP3   OH229600   4.085   4.948   9.193  0.5040 -0.2042  0.1879
 1802TIP3    H129601   4.100   5.031   9.238 -2.0691 -0.0723  0.9933
 1802TIP3    H229602   3.991   4.948   9.173  0.4425 -2.8430  0.0780
 1803TIP3   OH229603   7.268   0.690  10.386  0.1202 -0.4123  0.1288
 1803TIP3    H129604   7.318   0.767  10.413  0.8875 -1.1101  0.7568
 1803TIP3    H229605   7.303   0.667  10.300 -0.4170  0.1898 -0.2593
 1804TIP3   OH229606   2.417   4.918  10.428 -0.1874 -0.2972  0.0084
 1804TIP3    H129607   2.477   4.990  10.446 -0.2043  0.2606 -1.9165
 1804TIP3    H229608   2.472   4.841  10.420  0.2895  0.1761 -1.5418
 1805TIP3   OH229609   3.429   7.009  10.106 -0.8470  0.7173  0.4132
 1805TIP3    H129610   3.492   6.938  10.103 -0.0955  1.3985 -0.1935
 1805TIP3    H229611   3.386   7.007  10.021  0.0349  1.7380 -0.0796
 1806TIP3   OH229612   5.634   4.225  10.867  0.8457 -0.5872 -0.2077
 1806TIP3    H129613   5.566   4.238  10.801 -1.1784  1.2185  2.0349
 1806TIP3    H229614   5.712   4.201  10.817  0.1927  3.2610 -3.5845
 1807TIP3   OH229615   8.929   3.287  10.513  0.2904  0.2167 -0.1534
 1807TIP3    H129616   8.943   3.244  10.597  1.7539 -0.7604 -0.8614
 1807TIP3    H229617   8.848   3.337  10.525 -1.9567 -3.2066  0.5418
 1808TIP3   OH229618   1.778   4.052  11.033  0.4574  0.2969 -0.1739
 1808TIP3    H129619   1.719   4.126  11.047  1.7022  1.3711 -0.2781
 1808TIP3    H229620   1.861   4.094  11.006  1.1919 -1.1460 -0.2275
 1809TIP3   OH229621   5.100   8.379  10.331 -0.6632 -0.1779 -0.4057
 1809TIP3    H129622   5.170   8.423  10.284  0.5308 -1.4140  0.1255
 1809TIP3    H229623   5.138   8.358  10.417 -1.9723 -0.1149  0.2187
 1810TIP3   OH229624   0.229   2.588  11.129 -0.2502 -0.4874  0.1786
 1810TIP3    H129625   0.242   2.643  11.207 -0.4434  0.6334 -0.5596
 1810TIP3    H229626   0.202   2.650  11.061 -0.0654 -1.4551 -0.7851
 1811TIP3   OH229627   7.575   5.052  10.233 -0.1212  0.4416 -0.0431
 1811TIP3    H129628   7.610   4.986  10.174 -0.7803  0.0208  0.0177
 1811TIP3    H229629   7.627   5.131  10.216 -0.6442  0.4914 -1.5621
 1812TIP3   OH229630   2.295   8.545  10.516  0.2951  0.1611 -0.0016
 1812TIP3    H129631   2.365   8.490  10.550  1.7681  0.4548 -2.3304
 1812TIP3    H229632   2.334   8.632  10.507 -0.7188  0.6034 -0.3159
 1813TIP3   OH229633   8.168   1.313   9.772 -0.3687 -0.9852 -0.4115
 1813TIP3    H129634   8.233   1.263   9.822 -0.2151 -0.3807  0.0175
 1813TIP3    H229635   8.107   1.248   9.739 -1.5919 -1.2903  2.1739
 1814TIP3   OH229636   8.054   6.597   9.918 -0.4046 -1.0953 -0.3530
 1814TIP3    H129637   8.132   6.644   9.890 -2.1420  1.2582 -1.6273
 1814TIP3    H229638   8.019   6.559   9.838 -1.7721 -0.1236 -0.2519
 1815TIP3   OH229639   8.698   3.028   9.109  0.6693 -0.0742  0.3757
 1815TIP3    H129640   8.750   3.025   9.028  1.4305  1.0893  0.7985
 1815TIP3    H229641   8.662   2.940   9.117  0.9873 -0.3531 -0.9670
 1816TIP3   OH229642   5.783   1.276  11.064  0.1007  0.4857  0.0397
 1816TIP3    H129643   5.695   1.239  11.076 -0.9289  1.7550 -2.5719
 1816TIP3    H229644   5.839   1.200  11.048 -0.9511 -0.2473 -0.2970
 1817TIP3   OH229645   7.180   5.762  10.595 -0.1944 -0.1210  0.9041
 1817TIP3    H129646   7.261   5.810  10.581 -1.5657  2.2881  0.5808
 1817TIP3    H229647   7.148   5.743  10.506 -1.2085  1.3099  0.9096
 1818TIP3   OH229648   8.020   1.434  10.905 -0.0238  0.2700  0.3155
 1818TIP3    H129649   8.036   1.344  10.935 -0.6439  0.3342  0.8504
 1818TIP3    H229650   7.938   1.459  10.947  0.1021  1.0609  0.0971
 1819TIP3   OH229651   4.785   7.257  10.429 -0.1480 -0.4671 -0.4205
 1819TIP3    H129652   4.771   7.182  10.371 -2.9111 -0.1190 -0.3561
 1819TIP3    H229653   4.724   7.243  10.501 -0.3277  1.5429 -0.1122
 1820TIP3   OH229654   4.376   6.633  10.152 -0.3731  0.6429  0.2812
 1820TIP3    H129655   4.388   6.701  10.086 -1.5117 -0.4530 -1.1292
 1820TIP3    H229656   4.285   6.644  10.181 -1.0466 -1.1452 -1.0376
 1821TIP3   OH229657   7.744   1.196  11.011  0.1554  0.7954  0.3404
 1821TIP3    H129658   7.730   1.290  11.006  0.6451  0.8699  0.2917
 1821TIP3    H229659   7.784   1.181  11.096 -1.1192  0.4630  0.9011
 1822TIP3   OH229660   3.340   0.013   9.843  0.2831 -0.3027 -0.3541
 1822TIP3    H129661   3.412  -0.025   9.794  1.6873  0.8096  0.7615
 1822TIP3    H229662   3.379   0.087   9.890 -1.3563 -0.2713  1.0708
 1823TIP3   OH229663   6.843   8.545   9.350  0.0768 -0.6882  0.2046
 1823TIP3    H129664   6.934   8.521   9.368  0.0364 -1.6853 -0.7697
 1823TIP3    H229665   6.849   8.630   9.308  0.4261 -0.0256  1.5324
 1824TIP3   OH229666   0.367   5.934  10.455  0.0627 -0.4591  0.0946
 1824TIP3    H129667   0.369   5.913  10.548  0.4741  0.3924  0.2900
 1824TIP3    H229668   0.457   5.921  10.425  0.3671  1.0629  0.2529
 1825TIP3   OH229669   3.857   2.899  11.311  0.1767  0.1871 -0.8428
 1825TIP3    H129670   3.945   2.866  11.329 -0.5596 -2.0477 -1.0755
 1825TIP3    H229671   3.872   2.977  11.257  2.0307 -1.7671 -3.4921
 1826TIP3   OH229672   4.005   8.912  10.020 -0.2396 -0.0948 -0.1099
 1826TIP3    H129673   4.022   8.968   9.944  1.0775 -1.0681 -0.5624
 1826TIP3    H229674   4.035   8.825   9.994  0.8334 -0.3331  1.7266
 1827TIP3   OH229675   6.860   4.652  10.241 -0.2237  0.4754 -0.2444
 1827TIP3    H129676   6.767   4.628  10.244 -0.3493  0.9350 -0.4493
 1827TIP3    H229677   6.892   4.634  10.330 -0.1860 -0.9570 -0.5296
 1828TIP3   OH229678   0.249   1.984   9.571  0.0759 -0.1510 -0.2984
 1828TIP3    H129679   0.267   1.890   9.573 -0.6588 -0.2868  0.4301
 1828TIP3    H229680   0.335   2.025   9.564  0.7431 -0.7703  2.8489
 1829TIP3   OH229681   7.629   0.874  10.168  0.1131  0.1112  0.2803
 1829TIP3    H129682   7.697   0.933  10.201 -0.5274  0.1090  1.7040
 1829TIP3    H229683   7.579   0.927  10.106 -0.8452  1.3221  2.0083
 1830TIP3   OH229684   1.972   4.296  11.011 -0.1143 -0.2249 -0.0349
 1830TIP3    H129685   2.050   4.333  11.051 -0.4033  0.5440 -0.1597
 1830TIP3    H229686   1.899   4.332  11.062 -0.3364 -2.4054  1.2751
 1831TIP3   OH229687   1.238   3.242   9.794 -0.1337  0.0947 -0.7571
 1831TIP3    H129688   1.281   3.312   9.745  0.6726  0.5319  0.5261
 1831TIP3    H229689   1.306   3.175   9.805 -0.2813  0.0316 -0.1906
 1832TIP3   OH229690   3.787   5.689  11.248  0.7870  0.1556 -0.3238
 1832TIP3    H129691   3.844   5.632  11.300  0.0986 -1.4812 -1.2785
 1832TIP3    H229692   3.817   5.778  11.267  2.9117 -0.5956  0.0590
 1833TIP3   OH229693   3.215   2.632  10.974  0.4512  0.1616  0.1571
 1833TIP3    H129694   3.222   2.581  11.055  2.1958  0.3598  0.1589
 1833TIP3    H229695   3.211   2.566  10.904 -0.4037  0.0018  0.3442
 1834TIP3   OH229696   4.146   8.949  10.524 -0.3634 -0.1413  0.2815
 1834TIP3    H129697   4.180   9.033  10.555  0.8069 -1.2257  2.1471
 1834TIP3    H229698   4.151   8.891  10.600 -0.6003 -2.0655 -1.0783
 1835TIP3   OH229699   6.252   5.184  10.169 -0.0012 -0.1004  0.1747
 1835TIP3    H129700   6.238   5.090  10.179  1.9706 -0.4971 -0.2880
 1835TIP3    H229701   6.306   5.208  10.244  1.0007  0.2796 -0.6495
 1836TIP3   OH229702   6.056   2.702   9.707 -0.1374  0.1642 -0.2357
 1836TIP3    H129703   6.013   2.692   9.622  1.4110 -0.8613 -0.9388
 1836TIP3    H229704   6.149   2.687   9.689  0.4523  1.5651  1.3617
 1837TIP3   OH229705   4.277   2.849   9.872 -0.3562 -0.3616 -0.1232
 1837TIP3    H129706   4.190   2.873   9.906 -0.1068 -0.3433  0.5117
 1837TIP3    H229707   4.300   2.921   9.813  0.2702  0.8801  1.5503
 1838TIP3   OH229708   6.385   0.936  10.969 -0.5129 -0.3343 -0.7588
 1838TIP3    H129709   6.473   0.926  11.005 -1.0138  1.5326  1.2078
 1838TIP3    H229710   6.394   1.006  10.905 -0.7374  0.7146  0.3182
 1839TIP3   OH229711   0.026   2.155   9.527 -0.6392 -0.3194 -0.6019
 1839TIP3    H129712   0.115   2.146   9.561 -0.4649 -0.2559 -1.0331
 1839TIP3    H229713  -0.030   2.153   9.605 -0.3893 -1.9401 -0.4375
 1840TIP3   OH229714   9.077   1.953   8.908  0.5269  0.0386  0.3619
 1840TIP3    H129715   9.049   1.988   8.824 -0.6301  1.3225  1.2430
 1840TIP3    H229716   9.043   2.014   8.973  0.2862 -1.5883  1.8618
 1841TIP3   OH229717   3.521   8.454  10.444  0.1372 -0.3937 -0.6574
 1841TIP3    H129718   3.431   8.451  10.478  0.4565 -1.4856  0.1403
 1841TIP3    H229719   3.565   8.517  10.501  0.1105 -0.5602 -0.4509
 1842TIP3   OH229720   5.772   9.055  10.427 -0.6300  0.0738  0.0387
 1842TIP3    H129721   5.799   9.015  10.345 -1.0161 -0.9129  0.3820
 1842TIP3    H229722   5.851   9.053  10.482 -1.0652 -1.8538  0.6714
 1843TIP3   OH229723   4.396   2.160  10.630  0.1255 -0.2491  0.3231
 1843TIP3    H129724   4.431   2.189  10.546  0.0396  1.1226  0.7448
 1843TIP3    H229725   4.315   2.113  10.607  0.2960 -0.2115 -0.3738
 1844TIP3   OH229726   1.760   4.138  10.543  0.0140 -0.0600  0.2221
 1844TIP3    H129727   1.677   4.169  10.507 -0.2821 -1.9504 -0.8450
 1844TIP3    H229728   1.736   4.091  10.623  0.0295 -0.7476 -0.1746
 1845TIP3   OH229729   3.061   8.630  10.394 -0.4011  0.7241 -0.3926
 1845TIP3    H129730   2.973   8.631  10.431 -1.2667  0.2716 -2.3379
 1845TIP3    H229731   3.056   8.684  10.316  1.1822  1.0635 -0.3030
 1846TIP3   OH229732   5.188   6.627  10.290 -0.4782  0.3702  0.9230
 1846TIP3    H129733   5.216   6.589  10.207 -1.4111 -0.1725  0.8419
 1846TIP3    H229734   5.246   6.589  10.355  0.7591  1.3815  0.4398
 1847TIP3   OH229735   6.843   3.178  11.139 -0.2095 -0.2255 -0.2997
 1847TIP3    H129736   6.880   3.202  11.054 -0.9793  0.3471 -0.4934
 1847TIP3    H229737   6.749   3.197  11.129 -0.6808 -2.2392 -0.0658
 1848TIP3   OH229738   8.153   8.528  10.472 -0.1535  0.5252 -0.9056
 1848TIP3    H129739   8.182   8.579  10.547 -0.9394  1.0512 -0.9458
 1848TIP3    H229740   8.060   8.549  10.463 -0.9212 -2.1167  0.0265
 1849TIP3   OH229741   0.704   2.593  10.209  0.3095 -0.2146  0.3762
 1849TIP3    H129742   0.717   2.498  10.201  1.9193 -0.1424  1.6891
 1849TIP3    H229743   0.790   2.627  10.232 -0.6201  1.3408  1.7656
 1850TIP3   OH229744   3.826   5.076   9.380 -0.0583 -0.2211  0.5178
 1850TIP3    H129745   3.817   5.003   9.318 -1.6703  0.3342  0.0351
 1850TIP3    H229746   3.799   5.153   9.330  0.4780  0.5368  1.3666
 1851TIP3   OH229747   0.740   5.544  10.388  0.1710  0.2211 -0.1347
 1851TIP3    H129748   0.750   5.594  10.469  0.2970 -0.4553  0.2724
 1851TIP3    H229749   0.827   5.509  10.371  0.2926  0.8714 -0.9123
 1852TIP3   OH229750   2.330   7.095  10.061 -0.1369 -0.1361  0.3762
 1852TIP3    H129751   2.298   7.009  10.034 -0.3354  1.0025 -3.7851
 1852TIP3    H229752   2.422   7.097  10.033  0.9907 -0.1157  3.6915
 1853TIP3   OH229753   6.642   3.703  10.049  0.5887 -0.1438 -0.2152
 1853TIP3    H129754   6.653   3.615  10.013  1.9996 -0.0554 -0.0746
 1853TIP3    H229755   6.578   3.693  10.119 -1.9722 -0.3774 -2.4525
 1854TIP3   OH229756   2.049   8.594   9.229  0.2137  0.4022 -0.3813
 1854TIP3    H129757   2.000   8.587   9.311 -0.5303  0.2895 -0.8251
 1854TIP3    H229758   2.007   8.665   9.182  0.2915  0.1162 -0.8931
 1855TIP3   OH229759   6.416   1.319   9.371  0.1309 -0.2237  0.5150
 1855TIP3    H129760   6.497   1.352   9.332  0.0706 -1.1046 -0.3890
 1855TIP3    H229761   6.445   1.256   9.437  0.1933 -0.1659  0.5419
 1856TIP3   OH229762   8.449   8.681   9.628  0.1622  0.2985  0.2857
 1856TIP3    H129763   8.511   8.642   9.690  2.6725  1.8347 -1.0668
 1856TIP3    H229764   8.485   8.662   9.542 -1.8534  0.4000 -0.6445
 1857TIP3   OH229765   2.293   8.909   9.973 -0.0179 -0.4763  0.0685
 1857TIP3    H129766   2.312   9.002   9.967 -0.6635 -0.1817  2.0187
 1857TIP3    H229767   2.249   8.888   9.890 -1.8211  1.4435  0.4700
 1858TIP3   OH229768   4.992   7.820  10.580 -0.0450  0.4178 -0.5295
 1858TIP3    H129769   5.075   7.789  10.616  0.1629  1.6347  0.0781
 1858TIP3    H229770   4.951   7.869  10.652 -1.6649 -0.8129 -0.5551
 1859TIP3   OH229771   8.290   5.042   9.599  0.6655  0.6178 -0.4153
 1859TIP3    H129772   8.337   5.113   9.642  0.2394  1.3422 -1.1130
 1859TIP3    H229773   8.358   4.983   9.566  1.0017  0.2140  0.9454
 1860TIP3   OH229774   6.559   5.763  10.504  0.5782  0.0252  0.4702
 1860TIP3    H129775   6.640   5.712  10.506  1.2172  0.9664 -0.4363
 1860TIP3    H229776   6.499   5.715  10.562  1.9996 -0.3049  1.7390
 1861TIP3   OH229777   8.042   3.439   9.425 -0.4029  0.0478  0.1639
 1861TIP3    H129778   7.967   3.498   9.416 -0.8725 -0.8163 -3.2567
 1861TIP3    H229779   8.012   3.357   9.386  1.8261 -0.8337  0.1459
 1862TIP3   OH229780   4.919   6.695  10.338  0.6932  0.7193 -0.3273
 1862TIP3    H129781   5.009   6.669  10.357  0.0166 -0.1531  1.9544
 1862TIP3    H229782   4.877   6.702  10.424 -1.9130 -0.6913 -1.3667
 1863TIP3   OH229783   1.108   0.223   9.737 -0.0290 -0.2517  0.0864
 1863TIP3    H129784   1.179   0.194   9.795  0.9287  0.2196 -0.8155
 1863TIP3    H229785   1.107   0.158   9.667 -0.2142 -0.0357 -0.1119
 1864TIP3   OH229786   1.310   1.235   9.913  0.1004 -0.6133 -0.1949
 1864TIP3    H129787   1.256   1.286   9.973  1.1515  0.0906  0.1712
 1864TIP3    H229788   1.282   1.145   9.927 -1.3133 -0.2409 -0.3638
 1865TIP3   OH229789   4.305   2.850   9.317  0.1522  0.0965  0.6626
 1865TIP3    H129790   4.356   2.817   9.391 -0.9459  0.1110  1.4493
 1865TIP3    H229791   4.232   2.788   9.309  0.4348 -0.1087 -0.6431
 1866TIP3   OH229792   9.046   2.902  10.686  0.4042  0.3492  0.3119
 1866TIP3    H129793   9.105   2.831  10.660 -2.3961 -2.2126  0.2774
 1866TIP3    H229794   9.024   2.946  10.604  1.1199  0.3734  0.1291
 1867TIP3   OH229795   6.391   0.796  10.032  0.3794  0.4795  0.2779
 1867TIP3    H129796   6.309   0.785   9.984  1.4898 -0.5594 -1.4866
 1867TIP3    H229797   6.366   0.784  10.124 -1.5383  0.8331 -0.1458
 1868TIP3   OH229798   7.696   3.631  10.223 -0.3563 -0.1680 -0.1410
 1868TIP3    H129799   7.644   3.652  10.145  1.2839 -0.5008 -1.3805
 1868TIP3    H229800   7.763   3.700  10.226  1.1168 -1.5174 -0.5171
 1869TIP3   OH229801   0.940   2.039  11.127  0.5322  0.4468 -0.1545
 1869TIP3    H129802   0.930   1.956  11.174 -0.9975 -0.3944 -1.8540
 1869TIP3    H229803   0.885   2.101  11.175  0.4491  0.0987  0.2062
 1870TIP3   OH229804   8.773   1.357  10.899 -0.0153 -0.0748 -0.3808
 1870TIP3    H129805   8.707   1.390  10.838 -0.4483 -2.7043 -1.4682
 1870TIP3    H229806   8.774   1.262  10.884  0.8848 -0.6659  2.7210
 1871TIP3   OH229807   5.805   6.803   9.457 -0.1069  0.1696  0.0196
 1871TIP3    H129808   5.722   6.764   9.483 -0.7048  0.5543 -1.2375
 1871TIP3    H229809   5.783   6.892   9.430  0.8902  0.6445  0.6943
 1872TIP3   OH229810   5.890   7.338  11.115  0.0043 -0.3329 -0.0624
 1872TIP3    H129811   5.938   7.328  11.033 -0.2601  0.2314 -0.2955
 1872TIP3    H229812   5.948   7.301  11.182  0.8325  0.4578 -0.3139
 1873TIP3   OH229813   2.301   2.733  10.146 -0.2270 -0.2738  0.8023
 1873TIP3    H129814   2.219   2.692  10.174 -0.5359  0.7572  1.4719
 1873TIP3    H229815   2.324   2.792  10.218 -0.8945  2.2928 -0.9315
 1874TIP3   OH229816   4.401   0.594  10.067  0.6086 -0.2156  0.2680
 1874TIP3    H129817   4.344   0.628   9.998 -0.3112  0.2854  1.2266
 1874TIP3    H229818   4.377   0.646  10.144  0.9736 -1.3630  1.1738
 1875TIP3   OH229819   7.321   6.001   9.136  0.6783  0.2458  0.4928
 1875TIP3    H129820   7.313   5.986   9.230 -0.0297 -1.5053  0.2018
 1875TIP3    H229821   7.372   6.081   9.129 -0.6819  1.3709  2.3691
 1876TIP3   OH229822   2.378   8.052  10.596  0.0907 -0.1710  0.0032
 1876TIP3    H129823   2.317   8.078  10.665  0.1846  0.5403 -0.1816
 1876TIP3    H229824   2.406   7.964  10.622 -0.8517 -0.4230  0.1981
 1877TIP3   OH229825   3.174   3.335   9.360 -0.6127  0.1383 -0.1301
 1877TIP3    H129826   3.091   3.345   9.407 -0.5345  0.2771 -0.0230
 1877TIP3    H229827   3.154   3.272   9.291 -0.1799 -1.8247  1.4359
 1878TIP3   OH229828   3.830   7.120  10.881  0.1440 -0.0177  0.3993
 1878TIP3    H129829   3.749   7.172  10.877 -0.2010 -0.4298  1.5028
 1878TIP3    H229830   3.823   7.072  10.964  1.9237  0.5877  0.9487
 1879TIP3   OH229831   6.629   4.719  10.911 -0.5331 -0.5233  0.4502
 1879TIP3    H129832   6.601   4.767  10.834  2.4904 -0.7679 -0.9281
 1879TIP3    H229833   6.636   4.785  10.980  1.3383  0.6625 -0.8055
 1880TIP3   OH229834   0.220   2.885  10.367 -0.3684  0.6919 -0.4743
 1880TIP3    H129835   0.277   2.950  10.408  0.1739  0.8186 -1.3930
 1880TIP3    H229836   0.258   2.871  10.281  0.7946 -2.4460  0.4255
 1881TIP3   OH229837   9.105   2.203   9.770  0.3729 -0.3474 -0.2928
 1881TIP3    H129838   9.093   2.297   9.783  1.1082 -0.5847  2.6940
 1881TIP3    H229839   9.033   2.163   9.819  1.0788 -1.3695 -0.0708
 1882TIP3   OH229840   6.776   1.677   9.232  0.5518  0.4034 -0.8120
 1882TIP3    H129841   6.711   1.747   9.245  0.3614  0.5675 -2.4495
 1882TIP3    H229842   6.858   1.724   9.218  1.4071  0.1881  2.6024
 1883TIP3   OH229843   0.207   1.389  10.659  0.4386  0.1087  0.4523
 1883TIP3    H129844   0.235   1.412  10.748  1.9133  1.8413 -0.3981
 1883TIP3    H229845   0.224   1.468  10.608 -2.2839 -0.1518 -1.0053
 1884TIP3   OH229846   4.818   0.740  11.281  0.5655  0.6821 -0.3728
 1884TIP3    H129847   4.777   0.686  11.213  1.1302 -0.0310 -0.1571
 1884TIP3    H229848   4.907   0.705  11.290  0.5806  0.9290  0.5663
 1885TIP3   OH229849   5.115   2.635  10.373 -0.4205 -0.2561  0.3165
 1885TIP3    H129850   5.119   2.580  10.451 -1.5629 -1.4910 -0.4567
 1885TIP3    H229851   5.023   2.662  10.366  0.2253  2.4996  1.1181
 1886TIP3   OH229852   6.547   2.395  11.019  0.1018 -0.2553  0.1420
 1886TIP3    H129853   6.534   2.348  10.936 -0.5626 -0.0184  0.1018
 1886TIP3    H229854   6.628   2.444  11.006 -0.0068 -0.2007 -0.3855
 1887TIP3   OH229855   7.192   1.517  10.888  0.0373 -0.2737  0.1989
 1887TIP3    H129856   7.137   1.443  10.864 -0.6429  0.2882  0.0184
 1887TIP3    H229857   7.216   1.558  10.805 -1.2356  0.8851  0.3606
 1888TIP3   OH229858   8.346   2.321  10.113 -0.1143 -0.1821  0.1090
 1888TIP3    H129859   8.342   2.389  10.045  0.4249 -1.5055 -1.3155
 1888TIP3    H229860   8.256   2.317  10.146 -0.5173  0.1571 -0.8840
 1889TIP3   OH229861   4.960   1.832   9.954 -0.3255 -0.1295 -0.2784
 1889TIP3    H129862   4.996   1.782  10.028  0.1231  1.8558  0.9236
 1889TIP3    H229863   4.866   1.835   9.971 -0.2693  0.0065  0.0197
 1890TIP3   OH229864   8.401   0.418  10.574  0.1836  0.2001 -0.4096
 1890TIP3    H129865   8.468   0.368  10.620 -0.0944 -0.3503 -0.5920
 1890TIP3    H229866   8.447   0.460  10.502  0.5423  0.7314  0.1251
 1891TIP3   OH229867   1.043   8.633   9.745  0.6513  0.3207  0.4200
 1891TIP3    H129868   1.060   8.564   9.808  1.5364 -0.9778 -1.1553
 1891TIP3    H229869   0.958   8.669   9.770  0.9398 -0.1863  2.2651
 1892TIP3   OH229870   1.133   4.150   9.089  0.2137  0.2896 -0.3126
 1892TIP3    H129871   1.052   4.201   9.077  0.3632  1.3345  2.3873
 1892TIP3    H229872   1.203   4.214   9.074  0.6032 -0.4782 -2.0669
 1893TIP3   OH229873   3.903   8.730  10.880  0.4592 -0.3671  0.0590
 1893TIP3    H129874   3.903   8.707  10.973  0.6827 -0.5010  0.0258
 1893TIP3    H229875   3.824   8.784  10.869  0.3458 -0.4830  0.2927
 1894TIP3   OH229876   4.119   7.890  10.099  0.8080 -0.5477 -0.3681
 1894TIP3    H129877   4.127   7.814  10.157  0.4554 -1.1270 -1.0596
 1894TIP3    H229878   4.189   7.948  10.126  0.2829 -0.5333  1.0405
 1895TIP3   OH229879   8.121   8.105  10.661  1.0368  0.4983 -0.1205
 1895TIP3    H129880   8.148   8.149  10.580  2.0698 -1.3629 -0.8369
 1895TIP3    H229881   8.202   8.086  10.707  0.4275  2.5417  1.9953
 1896TIP3   OH229882   3.883   9.156  10.299 -0.2965  0.2916  0.2284
 1896TIP3    H129883   3.800   9.149  10.253  0.9256  2.3762 -2.6360
 1896TIP3    H229884   3.868   9.222  10.366 -1.1395  0.1009  0.2289
 1897TIP3   OH229885   1.683   4.826  10.335  0.1653 -0.0524  0.5661
 1897TIP3    H129886   1.652   4.899  10.389  0.5997  2.1446 -1.9193
 1897TIP3    H229887   1.778   4.827  10.346  0.4841  1.7629 -1.6301
 1898TIP3   OH229888   1.688   0.203  11.222 -0.3161 -0.4944 -0.2581
 1898TIP3    H129889   1.660   0.289  11.251 -1.0865  0.4203 -3.2900
 1898TIP3    H229890   1.614   0.145  11.240 -0.3681 -0.2035  0.4660
 1899TIP3   OH229891   2.445   2.249  10.936 -0.0888  0.7783 -0.7577
 1899TIP3    H129892   2.359   2.216  10.912  0.3223  0.1007 -1.3506
 1899TIP3    H229893   2.498   2.239  10.857  0.1288  2.6659 -0.9016
 1900TIP3   OH229894   2.651   2.418  10.772  0.1092  0.3463 -0.1082
 1900TIP3    H129895   2.679   2.507  10.751 -0.7642  1.2785  2.3181
 1900TIP3    H229896   2.572   2.405  10.719  0.3437  0.9418 -0.6220
 1901TIP3   OH229897   4.697   6.416  10.474  0.3430 -0.3480 -0.4658
 1901TIP3    H129898   4.672   6.350  10.538 -1.9267  0.7133 -0.1784
 1901TIP3    H229899   4.769   6.464  10.516  2.2961 -2.7672 -0.8404
 1902TIP3   OH229900   3.051   8.164  10.453  0.4713 -0.8598 -0.4209
 1902TIP3    H129901   3.045   8.251  10.494  2.5840 -0.9186  0.1607
 1902TIP3    H229902   2.971   8.156  10.401 -0.3419  0.9343  0.4572
 1903TIP3   OH229903   8.830   4.717  10.567 -0.3725 -0.6847 -0.4840
 1903TIP3    H129904   8.894   4.760  10.510  0.4716 -1.5322 -0.2033
 1903TIP3    H229905   8.772   4.788  10.596  1.3430  0.3932  0.4623
 1904TIP3   OH229906   5.771   1.074  10.632 -0.3385  0.4153  0.2520
 1904TIP3    H129907   5.825   1.064  10.711  0.2971  0.5212 -0.1621
 1904TIP3    H229908   5.787   0.994  10.582  0.0492  0.7941 -0.2392
 1905TIP3   OH229909   6.103   2.311  10.836 -0.5076  0.0799 -0.1366
 1905TIP3    H129910   6.104   2.351  10.923 -1.0984  1.8059 -0.8920
 1905TIP3    H229911   6.063   2.225  10.850 -0.8878  0.4618  1.2457
 1906TIP3   OH229912   8.535   3.376  10.199 -0.3966  0.2760 -0.5927
 1906TIP3    H129913   8.492   3.343  10.278  1.0298 -1.2079 -0.3974
 1906TIP3    H229914   8.597   3.442  10.231  1.8819 -1.9608 -0.1116
 1907TIP3   OH229915   6.569   6.854   9.543 -0.1454  0.3956 -0.2187
 1907TIP3    H129916   6.546   6.859   9.636  1.9177  0.3548  0.3381
 1907TIP3    H229917   6.556   6.762   9.521  2.7039 -0.4306  1.0498
 1908TIP3   OH229918   4.988   2.914   9.967 -0.2979  0.4281  0.1982
 1908TIP3    H129919   4.959   2.865   9.890 -1.5214  1.0721  0.2347
 1908TIP3    H229920   4.917   2.905  10.030  1.2286 -1.2132  1.8129
 1909TIP3   OH229921   7.848   1.899   9.894 -0.3212 -0.0614  0.2323
 1909TIP3    H129922   7.891   1.889   9.978 -0.0940  0.1481  0.1405
 1909TIP3    H229923   7.919   1.910   9.831 -0.4441 -1.0899 -0.1125
 1910TIP3   OH229924   7.480   2.490  10.158  0.2553 -0.4839  0.3491
 1910TIP3    H129925   7.444   2.497  10.246  0.3144  1.4519  0.2709
 1910TIP3    H229926   7.573   2.472  10.172  0.1022 -1.0913  0.6388
 1911TIP3   OH229927   8.927   6.302  10.531 -0.1784 -0.0962 -0.3748
 1911TIP3    H129928   8.906   6.209  10.530 -0.3230 -0.0616 -1.2639
 1911TIP3    H229929   8.931   6.325  10.624  0.5361 -1.1363 -0.1327
 1912TIP3   OH229930   6.912   5.036  11.068  0.2701 -0.3222 -0.2445
 1912TIP3    H129931   6.938   4.962  11.122 -1.0416 -1.5126 -1.1803
 1912TIP3    H229932   6.983   5.046  11.005  1.0504  0.0575  0.6644
 1913TIP3   OH229933   0.921   5.310  10.330  0.4034  0.0809 -0.8219
 1913TIP3    H129934   0.847   5.249  10.333  0.2444  0.2186 -1.8096
 1913TIP3    H229935   0.993   5.260  10.293  0.9559 -0.1782  0.5279
 1914TIP3   OH229936   3.697   6.103  10.153  0.2816  0.3397  0.2072
 1914TIP3    H129937   3.641   6.079  10.079  1.2294 -0.3956 -0.3047
 1914TIP3    H229938   3.702   6.199  10.149  0.1002  0.3277 -0.5186
 1915TIP3   OH229939   8.215   7.627   9.061 -0.6255 -0.3798  0.1008
 1915TIP3    H129940   8.120   7.626   9.062 -0.6440 -0.8352  1.7994
 1915TIP3    H229941   8.239   7.703   9.009 -1.9118 -0.2368 -0.2952
 1916TIP3   OH229942   1.542   6.882  10.842 -0.3702 -0.4055 -0.5381
 1916TIP3    H129943   1.630   6.865  10.809  0.5057  0.6287  1.1451
 1916TIP3    H229944   1.521   6.806  10.897 -0.4024 -0.4942 -0.6724
 1917TIP3   OH229945   4.346   1.272  10.143 -0.0859 -0.5790 -1.1759
 1917TIP3    H129946   4.264   1.224  10.128 -0.7481  0.2314 -0.2187
 1917TIP3    H229947   4.380   1.237  10.225 -0.1451 -0.0047 -0.9021
 1918TIP3   OH229948   5.978   7.512   9.504 -0.0944 -0.5153 -0.4801
 1918TIP3    H129949   6.038   7.440   9.525 -2.1040 -1.9415  0.7830
 1918TIP3    H229950   5.966   7.508   9.409 -0.4985 -2.1723 -0.3835
 1919TIP3   OH229951   7.321   8.975  10.404 -0.3464 -0.5967 -0.2955
 1919TIP3    H129952   7.396   8.959  10.462 -1.5881  1.5086  2.1123
 1919TIP3    H229953   7.270   8.893  10.409  0.9252 -1.4332 -0.6331
 1920TIP3   OH229954   8.947   7.633  10.614  0.1224 -0.3441  0.1070
 1920TIP3    H129955   8.936   7.627  10.709  2.1013  0.1919  0.4149
 1920TIP3    H229956   8.942   7.727  10.596 -0.0582 -0.4302 -0.2997
 1921TIP3   OH229957   5.892   3.236   9.806  0.0862  0.2959 -0.1579
 1921TIP3    H129958   5.873   3.174   9.735 -0.1254  0.6732 -0.4354
 1921TIP3    H229959   5.981   3.215   9.833 -0.8563 -1.9307  1.5790
 1922TIP3   OH229960   3.001   3.011  10.296  0.4722  0.5018 -0.6146
 1922TIP3    H129961   2.913   3.018  10.261  0.9727  0.3272 -1.9739
 1922TIP3    H229962   3.055   2.989  10.220  1.8962  2.0041 -0.0882
 1923TIP3   OH229963   8.293   6.088  10.443 -0.1530 -0.0162 -0.5644
 1923TIP3    H129964   8.321   6.133  10.363 -1.0855  1.4003 -0.1293
 1923TIP3    H229965   8.327   6.143  10.514  0.1322 -0.9211  0.0101
 1924TIP3   OH229966   6.732   5.281  10.401 -0.5484 -0.2481  0.0671
 1924TIP3    H129967   6.735   5.308  10.492  0.0350  0.0694 -0.0387
 1924TIP3    H229968   6.809   5.322  10.361 -1.2315  0.2816 -0.7458
 1925TIP3   OH229969   6.257   2.707   9.285  0.0009  0.1278  1.1039
 1925TIP3    H129970   6.325   2.664   9.232  0.1066  0.9793  0.5374
 1925TIP3    H229971   6.175   2.678   9.246  0.0538 -0.1565  1.1997
 1926TIP3   OH229972   5.893   5.158  10.709  0.3813  0.2986  0.1124
 1926TIP3    H129973   5.941   5.139  10.628  0.2956 -0.2432  0.1848
 1926TIP3    H229974   5.870   5.072  10.744 -0.9983  0.5499 -0.1314
 1927TIP3   OH229975   0.171   0.815  10.617  0.3579 -0.1814 -0.6907
 1927TIP3    H129976   0.153   0.843  10.527 -0.8621  1.5967  0.0499
 1927TIP3    H229977   0.173   0.896  10.668 -0.2077 -1.2270  1.0971
 1928TIP3   OH229978   0.708   8.618  10.130  0.2511  0.1811  0.7990
 1928TIP3    H129979   0.796   8.601  10.164  0.4529  0.0033  0.1874
 1928TIP3    H229980   0.723   8.665  10.048 -0.1139 -2.4826 -0.8879
 1929TIP3   OH229981   4.266   1.376  10.677 -0.4449  0.0940  0.0689
 1929TIP3    H129982   4.260   1.350  10.585  1.1938  1.0735 -0.3546
 1929TIP3    H229983   4.351   1.343  10.706  0.2436  2.0921  0.4429
 1930TIP3   OH229984   6.838   7.800  10.445 -0.0918 -0.1672 -0.5511
 1930TIP3    H129985   6.861   7.823  10.535 -3.3862 -1.2003  0.7179
 1930TIP3    H229986   6.901   7.731  10.421  0.7267 -0.0136  1.0421
 1931TIP3   OH229987   3.272   4.626  10.582  0.1843  0.2939 -0.1685
 1931TIP3    H129988   3.183   4.642  10.613 -0.6088 -0.5102 -1.8954
 1931TIP3    H229989   3.263   4.620  10.487  1.7947 -1.5542 -0.2567
 1932TIP3   OH229990   3.625   8.235  10.322  0.3929 -0.4782  0.4554
 1932TIP3    H129991   3.556   8.300  10.338 -1.2454 -1.5424 -1.6996
 1932TIP3    H229992   3.703   8.286  10.304 -0.5286  0.8565  0.1228
 1933TIP3   OH229993   0.606   2.408   9.894  0.3372  0.1837  0.1721
 1933TIP3    H129994   0.551   2.333   9.916  1.4741 -0.6497  0.2520
 1933TIP3    H229995   0.695   2.373   9.895  0.7815  1.1986 -1.1723
 1934TIP3   OH229996   8.970   8.480  10.099  0.3919  0.2948  0.1475
 1934TIP3    H129997   9.014   8.565  10.101  0.3934  0.2890  0.4731
 1934TIP3    H229998   8.960   8.460  10.006  0.2525  0.7246  0.0658
 1935TIP3   OH229999   5.663   8.635   9.615  0.3425 -0.5454 -0.7491
 1935TIP3    H130000   5.695   8.717   9.652 -1.3437  1.0143 -2.5482
 1935TIP3    H230001   5.582   8.617   9.663 -0.0903 -0.3309 -1.3942
 1936TIP3   OH230002   1.781   1.918  10.133 -0.4338 -0.0000  0.0798
 1936TIP3    H130003   1.856   1.959  10.176  0.4653 -0.6938 -0.7719
 1936TIP3    H230004   1.707   1.938  10.190  0.4150  0.5842  1.0214
 1937TIP3   OH230005   1.496   1.475  10.762 -0.0377 -0.1911 -0.4818
 1937TIP3    H130006   1.555   1.480  10.837 -1.2653 -1.2530  0.5997
 1937TIP3    H230007   1.410   1.496  10.798 -0.9661 -2.4859 -1.1664
 1938TIP3   OH230008   7.216   4.575   9.813  0.0961  0.0321  0.2353
 1938TIP3    H130009   7.215   4.537   9.900  1.9493 -0.7092 -0.0216
 1938TIP3    H230010   7.153   4.647   9.817 -1.3609 -1.2536  1.5602
 1939TIP3   OH230011   1.800   4.385   9.741  0.4310 -0.3557 -0.5518
 1939TIP3    H130012   1.718   4.434   9.749  0.2774 -0.1526 -2.7586
 1939TIP3    H230013   1.832   4.377   9.831 -0.1839  2.7079  0.0516
 1940TIP3   OH230014   4.733   3.694  11.095  0.1244 -0.0607 -0.1078
 1940TIP3    H130015   4.728   3.735  11.181  1.1888 -0.6911  0.2790
 1940TIP3    H230016   4.821   3.714  11.063 -0.8602  1.7835 -1.9279
 1941TIP3   OH230017   0.142   8.063   9.887  0.1159 -0.1803 -0.1344
 1941TIP3    H130018   0.116   7.975   9.862 -1.0287 -0.2162  1.0618
 1941TIP3    H230019   0.189   8.052   9.970  2.6631  0.0545 -1.4788
 1942TIP3   OH230020   3.926   2.724  10.177  0.0957 -0.2868 -0.1950
 1942TIP3    H130021   3.845   2.766  10.206  0.7144  1.4693 -0.8830
 1942TIP3    H230022   3.991   2.752  10.240  0.4385 -0.6200 -0.3978
 1943TIP3   OH230023   1.619   1.081   9.622  0.2616  0.3285  0.1051
 1943TIP3    H130024   1.564   1.143   9.670  0.4421  1.2548 -0.8660
 1943TIP3    H230025   1.641   1.126   9.541  0.5020 -0.9673 -0.5681
 1944TIP3   OH230026   5.602   2.465   9.801 -0.4201 -0.2630  0.5909
 1944TIP3    H130027   5.676   2.404   9.797  1.5542  1.9065  1.6859
 1944TIP3    H230028   5.566   2.453   9.889 -0.1862 -0.0018  0.7208
 1945TIP3   OH230029   5.353   0.586   9.251  0.2750  0.0260  0.2505
 1945TIP3    H130030   5.282   0.638   9.214  2.1833  1.6437 -1.4089
 1945TIP3    H230031   5.408   0.564   9.176  2.3782  0.2400  1.6420
 1946TIP3   OH230032   8.031   6.225  10.799 -0.3373 -0.1959 -0.2247
 1946TIP3    H130033   8.084   6.291  10.754 -0.0687  0.9404  1.6228
 1946TIP3    H230034   8.092   6.154  10.818  0.3353  0.6497  0.9611
 1947TIP3   OH230035   2.212   4.263  10.713 -0.0393  0.4154 -0.1141
 1947TIP3    H130036   2.276   4.224  10.653 -1.1050 -0.1612 -0.9049
 1947TIP3    H230037   2.193   4.194  10.776 -0.8742  0.1232 -0.6778
 1948TIP3   OH230038   2.168   8.643  10.076  0.2139 -0.1957  0.1338
 1948TIP3    H130039   2.168   8.696  10.156 -0.4667  0.6836 -0.4404
 1948TIP3    H230040   2.260   8.640  10.050  0.1912  1.2202 -0.1567
 1949TIP3   OH230041   7.085   4.975  10.294 -0.3952 -0.2220 -0.1796
 1949TIP3    H130042   7.092   5.030  10.372 -2.6978  0.8307 -0.6288
 1949TIP3    H230043   7.157   5.005  10.238 -0.8814  1.5780  0.0800
 1950TIP3   OH230044   2.287   2.869  10.395  0.6491 -0.3652  0.3727
 1950TIP3    H130045   2.235   2.828  10.464  0.7785  0.5362  1.0304
 1950TIP3    H230046   2.241   2.950  10.375  0.6371 -0.6008 -0.5897
 1951TIP3   OH230047   7.407   0.320  10.573  0.3867  0.2151 -0.0091
 1951TIP3    H130048   7.436   0.323  10.482 -0.3887 -1.0894 -0.3259
 1951TIP3    H230049   7.435   0.234  10.604  0.2028  0.4550  0.8339
 1952TIP3   OH230050   5.212   7.152   9.924 -0.3626 -0.4250 -0.1375
 1952TIP3    H130051   5.171   7.193   9.848  1.8081 -0.0843 -1.1946
 1952TIP3    H230052   5.232   7.063   9.895 -0.1694 -0.5149  0.2673
 1953TIP3   OH230053   6.283   3.709   9.672 -0.8257  0.0797 -0.4232
 1953TIP3    H130054   6.199   3.665   9.685 -2.4218  3.0874  0.3705
 1953TIP3    H230055   6.305   3.691   9.580 -0.3116 -3.7966  0.2744
 1954TIP3   OH230056   0.253   6.762  10.909  0.1936  0.2334 -0.1482
 1954TIP3    H130057   0.271   6.674  10.943  0.0428  0.3613  0.2743
 1954TIP3    H230058   0.244   6.750  10.815 -1.4914 -0.4866  0.0650
 1955TIP3   OH230059   6.994   0.853   9.016 -0.2044  0.2062 -0.3373
 1955TIP3    H130060   6.927   0.786   9.021  0.2310 -0.1307  2.3082
 1955TIP3    H230061   7.077   0.805   9.025  0.2205  0.9059 -0.4049
 1956TIP3   OH230062   3.444   2.971   9.165 -0.2137 -0.0791 -0.0821
 1956TIP3    H130063   3.536   2.957   9.186  0.4456  1.6787 -1.5806
 1956TIP3    H230064   3.409   3.016   9.242  0.4296  0.1463  0.0851
 1957TIP3   OH230065   8.433   4.745   9.265 -0.1655 -0.1898 -0.0291
 1957TIP3    H130066   8.389   4.807   9.207 -0.2699 -1.1839 -1.0447
 1957TIP3    H230067   8.420   4.660   9.224 -0.1802 -0.9285  1.4250
 1958TIP3   OH230068   5.866   5.848  10.599  0.1225 -0.0198  1.2014
 1958TIP3    H130069   5.905   5.876  10.516 -0.6508 -1.9821  0.0993
 1958TIP3    H230070   5.818   5.925  10.630  0.0777  0.6432 -0.3975
 1959TIP3   OH230071   0.756   1.613   9.317 -0.9426  0.5076  0.3908
 1959TIP3    H130072   0.710   1.663   9.249 -0.7299 -0.2458 -0.3189
 1959TIP3    H230073   0.769   1.676   9.388 -0.6766  1.4790 -0.4848
 1960TIP3   OH230074   5.810   2.618   9.917 -0.2368 -0.1947  0.6193
 1960TIP3    H130075   5.848   2.700   9.885  0.5277 -0.7352  0.1147
 1960TIP3    H230076   5.748   2.592   9.848  1.5959 -1.4919 -0.6342
 1961TIP3   OH230077   0.574   4.726  10.074 -0.5304 -0.5942  0.6126
 1961TIP3    H130078   0.640   4.765  10.132 -1.3533  0.8659  0.6318
 1961TIP3    H230079   0.558   4.794  10.008  0.1459 -2.0926 -1.1569
 1962TIP3   OH230080   7.525   7.806   9.208 -0.0309 -0.3313 -0.6455
 1962TIP3    H130081   7.495   7.876   9.151  1.8389 -0.0019 -1.2886
 1962TIP3    H230082   7.451   7.745   9.212 -0.9570  0.6829 -1.6979
 1963TIP3   OH230083   9.117   3.320  10.321 -0.2057 -0.0489 -0.3792
 1963TIP3    H130084   9.056   3.293  10.390  0.5539 -1.0707 -0.0913
 1963TIP3    H230085   9.112   3.416  10.321 -1.1476 -0.0843  0.2304
 1964TIP3   OH230086   0.944   3.441  10.815  0.0836  0.1640  0.2639
 1964TIP3    H130087   0.876   3.408  10.755 -0.4645  0.4602  0.7098
 1964TIP3    H230088   0.907   3.521  10.851  1.2589  1.1019 -0.5431
 1965TIP3   OH230089   0.040   1.602   9.668 -0.4076 -0.0291  0.6495
 1965TIP3    H130090   0.087   1.653   9.734 -0.1563 -0.3222  0.7002
 1965TIP3    H230091  -0.005   1.667   9.614  0.5464  0.2965  0.2272
 1966TIP3   OH230092   7.325   0.208   9.562 -0.0778 -0.4355 -0.3584
 1966TIP3    H130093   7.235   0.182   9.584 -0.2965  0.1748 -0.5131
 1966TIP3    H230094   7.320   0.302   9.548  0.8772 -0.1352  1.1106
 1967TIP3   OH230095   7.509   8.943   9.388 -0.2319  0.1932 -0.1930
 1967TIP3    H130096   7.450   9.019   9.392  0.6722  0.9208 -0.3167
 1967TIP3    H230097   7.512   8.921   9.295  0.4410  0.7778 -0.3206
 1968TIP3   OH230098   0.690   1.165  10.186  0.0116  0.4140  0.2350
 1968TIP3    H130099   0.642   1.195  10.109 -0.8371 -1.2836  0.0362
 1968TIP3    H230100   0.627   1.111  10.233  0.4874  1.4822  2.1977
 1969TIP3   OH230101   1.099   8.494   9.958 -0.2227  0.4012 -0.8542
 1969TIP3    H130102   1.071   8.406   9.982  0.5186 -0.0100 -1.4355
 1969TIP3    H230103   1.190   8.499   9.988 -0.2775  0.9913 -0.7722
 1970TIP3   OH230104   4.080   6.439  11.315  0.3323 -0.3858  0.7158
 1970TIP3    H130105   4.112   6.500  11.248 -1.0087 -0.4854 -0.0382
 1970TIP3    H230106   4.013   6.489  11.362  0.9714 -0.4591  1.7447
 1971TIP3   OH230107   4.826   7.908  10.156  1.0859  0.3108  0.2521
 1971TIP3    H130108   4.835   7.989  10.106  1.4759  0.2133  0.1590
 1971TIP3    H230109   4.734   7.905  10.181  1.3905  1.6193  1.6683
 1972TIP3   OH230110   0.657   0.812   9.340 -0.0984  0.6124 -0.0557
 1972TIP3    H130111   0.702   0.776   9.417  1.4543  0.5454 -0.9591
 1972TIP3    H230112   0.632   0.901   9.367 -1.5009 -0.1342  1.2374
 1973TIP3   OH230113   7.748   3.250   9.832 -0.3244  0.2666 -0.0518
 1973TIP3    H130114   7.764   3.318   9.767 -0.0336  0.7189  0.4857
 1973TIP3    H230115   7.695   3.185   9.786  0.4056  0.2681 -0.9306
 1974TIP3   OH230116   5.451   4.511  10.949 -0.3213 -0.2538  0.7822
 1974TIP3    H130117   5.360   4.494  10.974 -1.0528  1.3916 -0.5368
 1974TIP3    H230118   5.453   4.494  10.854  0.9277 -0.8698  0.8939
 1975TIP3   OH230119   7.925   6.570  10.209 -0.2654 -0.4351 -0.4568
 1975TIP3    H130120   7.931   6.481  10.244 -2.8928 -1.5199 -2.3582
 1975TIP3    H230121   7.984   6.570  10.133  0.9720  0.0192  0.4784
 1976TIP3   OH230122   0.246   9.193   9.593  0.2776 -0.4588  0.0379
 1976TIP3    H130123   0.157   9.207   9.561 -0.1815  0.9443  1.7440
 1976TIP3    H230124   0.282   9.282   9.602  1.0729 -0.8829  1.3462
 1977TIP3   OH230125   5.778   7.668  10.915  0.0031 -0.8491  0.8499
 1977TIP3    H130126   5.857   7.717  10.939  0.3522 -0.8601 -0.2295
 1977TIP3    H230127   5.719   7.733  10.877  1.3348 -1.4739 -2.7095
 1978TIP3   OH230128   1.702   1.709   9.941 -0.0643 -0.3615  0.1542
 1978TIP3    H130129   1.727   1.776  10.005  1.4913 -0.7981  0.0263
 1978TIP3    H230130   1.779   1.654   9.932 -0.6762 -1.0336 -1.1988
 1979TIP3   OH230131   0.496   4.061  11.190 -0.5117  0.3467  0.2798
 1979TIP3    H130132   0.524   4.049  11.281  2.0835  2.8507 -0.0527
 1979TIP3    H230133   0.514   3.977  11.149  2.4831  0.4418  1.1837
 1980TIP3   OH230134   5.150   3.016  10.959 -0.4956  0.3354 -0.4955
 1980TIP3    H130135   5.111   2.930  10.946 -0.6620  0.3354 -0.0120
 1980TIP3    H230136   5.166   3.021  11.054 -0.5925  0.8790 -0.5047
 1981TIP3   OH230137   2.616   7.385  10.912 -0.2508 -0.0959 -0.0160
 1981TIP3    H130138   2.655   7.440  10.845  2.0634 -0.8960  0.5933
 1981TIP3    H230139   2.579   7.311  10.864 -1.7115  0.9975 -0.6609
 1982TIP3   OH230140   9.035   3.565   9.922  0.2446 -0.1575 -0.1505
 1982TIP3    H130141   8.964   3.562   9.986  1.6632  0.3839  1.5381
 1982TIP3    H230142   9.034   3.654   9.887 -0.4832 -0.4322 -0.8643
 1983TIP3   OH230143   3.842   0.810  11.194  0.1652 -0.9307 -0.2409
 1983TIP3    H130144   3.751   0.788  11.211 -0.3315  0.9443 -0.2340
 1983TIP3    H230145   3.844   0.906  11.190  2.1115 -0.9184 -0.3739
 1984TIP3   OH230146   0.763   0.443   9.326 -0.1663  0.5299 -0.4005
 1984TIP3    H130147   0.724   0.500   9.259 -0.3360  0.3783 -0.4302
 1984TIP3    H230148   0.775   0.500   9.402 -1.2540  0.3624 -0.0996
 1985TIP3   OH230149   0.389   0.753   9.215  0.1046  0.1247 -0.4201
 1985TIP3    H130150   0.441   0.716   9.287 -0.2031  1.1908  0.3920
 1985TIP3    H230151   0.438   0.831   9.189  0.9813 -1.0248 -2.3990
 1986TIP3   OH230152   1.982   4.029   9.845  0.3540  0.5133 -0.0690
 1986TIP3    H130153   1.903   4.075   9.874 -0.6825 -0.7453 -0.7854
 1986TIP3    H230154   1.953   3.976   9.771  1.5729 -0.9597  0.4506
 1987TIP3   OH230155   7.384   1.325   9.864  0.5566  0.3866 -0.1324
 1987TIP3    H130156   7.442   1.371   9.925  1.5915  2.4358 -2.4705
 1987TIP3    H230157   7.439   1.304   9.789 -1.0489 -0.4507 -1.1458
 1988TIP3   OH230158   6.431   4.996  10.611 -0.2488  0.6093 -0.3322
 1988TIP3    H130159   6.478   4.980  10.528  0.2584 -0.9244  0.2077
 1988TIP3    H230160   6.351   5.042  10.585  0.1783  0.6716 -1.6098
 1989TIP3   OH230161   4.998   4.181  10.488  0.3694 -0.5742  0.0977
 1989TIP3    H130162   4.930   4.234  10.447  1.7060 -0.0159 -1.5378
 1989TIP3    H230163   5.079   4.230  10.473  1.4378 -2.2963 -0.0854
 1990TIP3   OH230164   7.221   8.713  10.426 -0.0086 -0.4197  0.4953
 1990TIP3    H130165   7.219   8.723  10.331  0.8984 -0.8105  0.4163
 1990TIP3    H230166   7.159   8.642  10.444  0.3280 -0.8136  0.1187
 1991TIP3   OH230167   0.590   6.542  10.680  0.2511 -0.4958  1.4227
 1991TIP3    H130168   0.657   6.487  10.641 -0.3098  0.1115 -0.4735
 1991TIP3    H230169   0.635   6.623  10.704 -0.2017  1.1291 -2.5493
 1992TIP3   OH230170   6.176   0.371   9.597 -0.0436 -0.6071  0.1857
 1992TIP3    H130171   6.244   0.304   9.600 -1.1430 -1.9642 -2.3268
 1992TIP3    H230172   6.117   0.349   9.669 -0.3518 -2.3470 -0.5623
 1993TIP3   OH230173   9.019   8.219  10.096 -0.1492  0.0396 -0.5161
 1993TIP3    H130174   9.030   8.198  10.003 -0.6704  1.1090 -0.8411
 1993TIP3    H230175   9.013   8.315  10.097  0.9671  0.1251  0.7429
 1994TIP3   OH230176   9.112   8.915   8.903  0.3872  0.2812  0.8662
 1994TIP3    H130177   9.122   9.008   8.885 -0.9387  0.3906  0.5983
 1994TIP3    H230178   9.031   8.909   8.954 -0.8211 -0.9120 -1.0540
 1995TIP3   OH230179   5.644   6.456  11.190 -0.1966  0.4907  0.3164
 1995TIP3    H130180   5.584   6.526  11.215  0.1927  0.3521  1.7201
 1995TIP3    H230181   5.730   6.499  11.186 -0.2167  0.4680 -0.6587
 1996TIP3   OH230182   1.506   6.821  10.497 -0.2537 -0.0119 -0.7343
 1996TIP3    H130183   1.484   6.909  10.526  2.3652  0.8600 -1.1568
 1996TIP3    H230184   1.430   6.793  10.446 -0.4152  2.7880 -2.2159
 1997TIP3   OH230185   1.239   1.519   9.805 -0.1765 -0.4667  0.1140
 1997TIP3    H130186   1.322   1.522   9.853  0.6780  0.0328 -1.3183
 1997TIP3    H230187   1.265   1.520   9.713 -1.8083  1.7680 -0.4098
 1998TIP3   OH230188   7.755   5.162  10.714  0.2852  0.1450  0.2515
 1998TIP3    H130189   7.779   5.149  10.623 -0.8806  0.5340 -0.1223
 1998TIP3    H230190   7.783   5.252  10.733  2.6634 -0.6672  1.0062
 1999TIP3   OH230191   8.644   0.350  10.799 -0.1258 -0.3114  0.2123
 1999TIP3    H130192   8.721   0.398  10.768 -0.7318  1.4276  1.2588
 1999TIP3    H230193   8.680   0.275  10.848  0.8810  0.1328  0.1643
 2000TIP3   OH230194   6.904   1.777   9.744  0.1137 -0.1051  0.0849
 2000TIP3    H130195   6.930   1.689   9.770  1.8525  0.5880  0.9098
 2000TIP3    H230196   6.891   1.771   9.649  0.1837 -1.2473  0.1298
 2001TIP3   OH230197   7.811   8.189   9.848 -0.2296  0.4669 -0.0261
 2001TIP3    H130198   7.751   8.133   9.800 -1.0226 -1.6740  3.1701
 2001TIP3    H230199   7.884   8.131   9.872 -0.2474  1.1910  1.9567
 2002TIP3   OH230200   1.990   3.857  11.089  0.4245 -0.2750  0.5269
 2002TIP3    H130201   1.894   3.860  11.098  0.3215 -0.7564 -0.3129
 2002TIP3    H230202   2.015   3.778  11.136  0.3828 -0.2779  0.5444
 2003TIP3   OH230203   0.921   4.708  10.785 -0.7247 -0.4543 -0.3859
 2003TIP3    H130204   0.887   4.707  10.695 -1.5292  2.2302 -0.2033
 2003TIP3    H230205   1.006   4.751  10.778 -1.0612  0.3356  0.1784
 2004TIP3   OH230206   7.925   7.042  10.485  0.1151  0.3533 -0.2233
 2004TIP3    H130207   7.837   7.059  10.520 -0.2562  1.5368 -1.6288
 2004TIP3    H230208   7.927   6.948  10.472 -0.3572  0.0960  1.2800
 2005TIP3   OH230209   7.398   7.741   9.525 -0.4415  0.8830 -0.2121
 2005TIP3    H130210   7.356   7.825   9.542  1.5780  1.7296  1.0209
 2005TIP3    H230211   7.397   7.731   9.430 -1.7742  1.6993 -0.3021
 2006TIP3   OH230212   5.395   5.958  10.436  0.4907 -0.1285  0.1666
 2006TIP3    H130213   5.340   6.017  10.385  0.8227 -0.3335 -0.4463
 2006TIP3    H230214   5.445   5.909  10.370  1.5848  0.2227  0.7104
 2007TIP3   OH230215   9.130   7.605  10.950  0.0018 -0.4882 -0.1974
 2007TIP3    H130216   9.183   7.562  10.882  0.4795  0.4590 -0.4541
 2007TIP3    H230217   9.191   7.617  11.023 -0.5472 -1.6171  0.4557
 2008TIP3   OH230218   7.897   3.204   9.357  0.3042  0.0297 -0.0437
 2008TIP3    H130219   7.809   3.207   9.319  0.1548  0.3618  0.3279
 2008TIP3    H230220   7.904   3.116   9.395  0.3490 -0.2033 -0.5723
 2009TIP3   OH230221   5.247   9.094  10.415 -1.1260 -0.7151 -0.6058
 2009TIP3    H130222   5.261   9.044  10.496 -0.4662  0.8020  0.2660
 2009TIP3    H230223   5.328   9.082  10.365 -1.3350 -1.2424 -0.8303
 2010TIP3   OH230224   0.912   3.330  10.141 -0.1456 -0.6868 -0.1819
 2010TIP3    H130225   0.956   3.391  10.201 -1.6130 -1.5657  1.8856
 2010TIP3    H230226   0.884   3.385  10.067  0.7011  0.6534  0.4524
 2011TIP3   OH230227   0.025   3.037  10.544  0.5147 -0.9071 -0.0911
 2011TIP3    H130228   0.012   2.956  10.593  2.5275 -0.5003  1.2249
 2011TIP3    H230229   0.105   3.022  10.493  0.6642  0.0897 -0.1751
 2012TIP3   OH230230   1.420   6.010  10.810 -0.3455 -0.3773 -0.1669
 2012TIP3    H130231   1.423   6.088  10.754  0.5291 -0.8749 -0.8426
 2012TIP3    H230232   1.503   5.966  10.794  0.5264  0.1246  2.5554
 2013TIP3   OH230233   5.578   8.296   9.462 -0.2247 -0.2540 -0.4239
 2013TIP3    H130234   5.508   8.295   9.527 -1.2127  0.2890 -1.4600
 2013TIP3    H230235   5.579   8.207   9.426  0.8010 -0.7728  0.7812
 2014TIP3   OH230236   8.180   0.947  11.021 -0.9758 -0.7277 -0.1679
 2014TIP3    H130237   8.131   0.871  11.050 -1.3017 -0.9718 -1.3159
 2014TIP3    H230238   8.261   0.911  10.985  0.4509 -0.2964  2.3324
 2015TIP3   OH230239   5.852   0.311   9.954 -0.1085  0.0771 -0.2251
 2015TIP3    H130240   5.943   0.338   9.944  0.2892 -1.0823 -0.0045
 2015TIP3    H230241   5.809   0.338   9.873 -0.0783  2.4304  0.4795
 2016TIP3   OH230242   0.101   3.038  10.149 -0.5062  0.3838 -0.1768
 2016TIP3    H130243   0.020   3.019  10.101 -0.5363  0.7281 -0.2586
 2016TIP3    H230244   0.083   3.008  10.238 -0.3441 -0.5391 -0.4421
 2017TIP3   OH230245   3.213   2.950  10.450 -0.3157  0.1255  0.7539
 2017TIP3    H130246   3.186   2.917  10.535 -1.5363  1.0797  0.7693
 2017TIP3    H230247   3.132   2.975  10.407  0.4322  2.8155  0.6607
 2018TIP3   OH230248   3.554   2.320  11.275  0.3624 -0.3073  0.2023
 2018TIP3    H130249   3.564   2.297  11.183 -2.2429 -1.2987  0.0906
 2018TIP3    H230250   3.593   2.408  11.282 -0.1646  0.1728 -2.0413
 2019TIP3   OH230251   6.115   1.863   9.422 -0.0122 -0.1593  0.0511
 2019TIP3    H130252   6.174   1.874   9.347  1.0626  1.5561  1.0678
 2019TIP3    H230253   6.122   1.770   9.445 -0.8891 -0.8722 -2.3400
 2020TIP3   OH230254   0.415   7.570  11.180 -0.8127 -0.1413 -0.3661
 2020TIP3    H130255   0.470   7.493  11.161 -1.4831 -0.3708 -1.4130
 2020TIP3    H230256   0.463   7.643  11.142 -0.1844 -0.0122  0.6119
 2021TIP3   OH230257   8.420   0.461   9.421  0.0169  0.0581  0.0369
 2021TIP3    H130258   8.366   0.539   9.435  0.5190  0.2073  1.3251
 2021TIP3    H230259   8.506   0.495   9.399 -0.2883 -0.1780 -1.6753
 2022TIP3   OH230260   8.259   3.852   9.800 -0.4463 -0.2845  0.1784
 2022TIP3    H130261   8.349   3.825   9.778 -0.0900 -0.2551  1.5183
 2022TIP3    H230262   8.244   3.815   9.887 -0.9620  1.5304  0.8878
 2023TIP3   OH230263   8.261   7.820  10.132 -0.7543  0.5518  0.2589
 2023TIP3    H130264   8.332   7.841  10.071 -1.0254  1.0174  0.0937
 2023TIP3    H230265   8.305   7.788  10.211 -0.3371  1.3489  0.3606
 2024TIP3   OH230266   2.959   8.768   9.158 -0.1841  0.1950  0.3761
 2024TIP3    H130267   2.905   8.845   9.141 -0.3910 -0.0190  0.0556
 2024TIP3    H230268   2.905   8.694   9.131  0.3291 -0.0122 -0.1039
 2025TIP3   OH230269   5.882   3.053  10.962  0.5341  0.4108  0.2040
 2025TIP3    H130270   5.856   3.071  11.052  0.1694  0.5870  0.0682
 2025TIP3    H230271   5.805   3.077  10.910  0.1254 -1.2312 -0.0197
 2026TIP3   OH230272   4.777   1.484  10.179 -0.0747  0.0481  0.4335
 2026TIP3    H130273   4.853   1.540  10.194 -0.5137  1.5446 -2.2289
 2026TIP3    H230274   4.702   1.534  10.213 -0.3990  0.9251 -1.4420
 2027TIP3   OH230275   3.201   0.411   9.963  0.6587  0.1160 -0.2585
 2027TIP3    H130276   3.246   0.397   9.879  1.0321 -2.1929  0.2678
 2027TIP3    H230277   3.250   0.358  10.025  1.6097  3.2601  1.9341
 2028TIP3   OH230278   7.992   3.943   9.770 -0.0006  0.4376  0.0437
 2028TIP3    H130279   8.084   3.934   9.797  0.6934  1.6247 -1.7733
 2028TIP3    H230280   7.985   3.888   9.693 -0.9055  0.1562  0.3217
 2029TIP3   OH230281   4.319   7.093  10.293  0.2185 -0.2072 -0.3692
 2029TIP3    H130282   4.354   7.116  10.207  0.0967  1.1699 -0.0766
 2029TIP3    H230283   4.262   7.166  10.316 -0.6843 -1.1176  0.3755
 2030TIP3   OH230284   6.639   7.817  11.334  0.1735 -0.3167 -0.5572
 2030TIP3    H130285   6.569   7.786  11.277  0.0298 -0.2582 -0.4125
 2030TIP3    H230286   6.667   7.740  11.383 -0.4882 -0.1325  0.1250
 2031TIP3   OH230287   4.166   5.148   9.373 -0.2536 -0.6231  0.3139
 2031TIP3    H130288   4.092   5.182   9.422  1.6224 -0.0308  3.0032
 2031TIP3    H230289   4.202   5.223   9.327 -0.4251 -0.5790  0.2524
 2032TIP3   OH230290   8.779   4.204   9.051  0.1168 -0.3420 -0.3612
 2032TIP3    H130291   8.845   4.188   9.117  2.9304  2.1077 -2.3068
 2032TIP3    H230292   8.808   4.154   8.975 -1.2672 -0.5741 -0.7770
 2033TIP3   OH230293   5.824   2.721  10.844 -0.5924  0.4442  0.4940
 2033TIP3    H130294   5.820   2.685  10.755 -0.7359  1.1497  0.2093
 2033TIP3    H230295   5.869   2.805  10.834 -0.0439  0.2427  1.1863
 2034TIP3   OH230296   8.469   8.173   9.169 -0.2850  0.3158 -0.2792
 2034TIP3    H130297   8.539   8.230   9.138  1.8863 -0.5884  2.4946
 2034TIP3    H230298   8.429   8.222   9.241 -0.7775 -0.1996 -0.1965
 2035TIP3   OH230299   7.996   1.432   9.540 -0.0277  0.0060 -0.4478
 2035TIP3    H130300   7.998   1.344   9.578 -0.5412 -1.1984 -2.9750
 2035TIP3    H230301   7.903   1.452   9.529  0.0946  0.6589 -0.3392
 2036TIP3   OH230302   5.446   1.483  10.175  0.1752 -0.5346 -0.0316
 2036TIP3    H130303   5.497   1.416  10.222  0.7342 -0.6614 -0.8109
 2036TIP3    H230304   5.435   1.448  10.087  0.8341  0.5920 -0.5750
 2037TIP3   OH230305   2.268   5.843   9.545  0.6110  0.7848  0.8159
 2037TIP3    H130306   2.251   5.763   9.495 -0.9071  1.4357  0.2421
 2037TIP3    H230307   2.330   5.816   9.612 -0.9796 -1.2518  1.5725
 2038TIP3   OH230308   5.665   8.052  10.996 -0.1456 -0.2151  0.3651
 2038TIP3    H130309   5.631   8.131  11.037  0.6387  1.1447 -1.4990
 2038TIP3    H230310   5.722   8.083  10.926 -0.3489 -2.4300 -0.8769
 2039TIP3   OH230311   8.682   4.325   9.948 -0.6061  0.4857  0.2350
 2039TIP3    H130312   8.720   4.293   9.866 -2.4816 -0.4636 -0.3318
 2039TIP3    H230313   8.595   4.356   9.924 -0.4797  2.0448  1.5686
 2040TIP3   OH230314   7.003   1.058  10.378 -0.0337  0.0016  0.1831
 2040TIP3    H130315   6.987   0.980  10.325 -1.1570  0.1020  0.3361
 2040TIP3    H230316   7.038   1.025  10.461 -1.8588 -0.4981  0.8037
 2041TIP3   OH230317   6.876   2.797  10.733  0.4417  0.1432 -0.3214
 2041TIP3    H130318   6.820   2.723  10.708  0.7766 -0.8521  1.6588
 2041TIP3    H230319   6.820   2.852  10.788  0.8602  0.1199  0.1324
 2042TIP3   OH230320   0.984   0.869  10.001 -0.2518  0.1059 -0.2976
 2042TIP3    H130321   0.963   0.948   9.952 -0.8016 -1.3145 -2.4703
 2042TIP3    H230322   0.947   0.884  10.088  2.6223  3.6077  0.5739
 2043TIP3   OH230323   6.581   5.813   9.342 -0.0870  0.0785 -0.3780
 2043TIP3    H130324   6.589   5.899   9.301 -0.0798  0.0765 -0.3815
 2043TIP3    H230325   6.522   5.764   9.284  1.1357 -0.4413 -1.2364
 2044TIP3   OH230326   3.408   2.048  11.208 -0.0524 -0.1844 -0.5556
 2044TIP3    H130327   3.466   2.120  11.235  0.8323 -0.8332 -0.6723
 2044TIP3    H230328   3.335   2.091  11.163 -0.6273  0.7939  1.2209
 2045TIP3   OH230329   4.026   8.422  10.611  0.0743  0.4172 -0.1208
 2045TIP3    H130330   4.076   8.396  10.534 -1.8824  0.0707 -1.3424
 2045TIP3    H230331   4.082   8.399  10.685  1.9106  0.5503 -1.4216
 2046TIP3   OH230332   1.102   7.885  10.091 -0.0901  0.4347  0.4523
 2046TIP3    H130333   1.188   7.890  10.048 -0.5284  0.6526 -0.4204
 2046TIP3    H230334   1.122   7.865  10.182  0.9815  2.2323  0.6532
 2047TIP3   OH230335   7.783   5.471  11.149  0.5172 -0.2516  0.0719
 2047TIP3    H130336   7.790   5.453  11.243  1.5595 -2.4660 -0.3643
 2047TIP3    H230337   7.873   5.488  11.121 -0.0217  2.6636 -0.2109
 2048TIP3   OH230338   4.194   4.753   9.365  0.2976 -0.5810 -0.1527
 2048TIP3    H130339   4.134   4.816   9.325  0.5198  1.0531  1.9097
 2048TIP3    H230340   4.137   4.685   9.401 -0.3578  0.6504  1.2695
 2049TIP3   OH230341   7.885   8.628  10.420  0.0229  0.1080  0.1673
 2049TIP3    H130342   7.923   8.713  10.397 -1.0681  0.2474 -1.1982
 2049TIP3    H230343   7.794   8.633  10.391 -0.4284 -1.0508  1.2927
 2050TIP3   OH230344   9.112   1.557  10.313 -0.4983 -0.2028  0.3622
 2050TIP3    H130345   9.022   1.586  10.302 -0.5419  0.4833  2.2284
 2050TIP3    H230346   9.163   1.638  10.317  0.0249 -0.5452  0.7474
 2051TIP3   OH230347   8.366   6.237  10.227 -0.1658 -0.3533  0.0557
 2051TIP3    H130348   8.461   6.230  10.231 -0.1946 -0.2655  1.4175
 2051TIP3    H230349   8.349   6.287  10.147  1.0010  0.7914  0.4847
 2052TIP3   OH230350   4.202   7.966   9.529  0.0820 -0.0435  0.2261
 2052TIP3    H130351   4.187   7.874   9.507  1.4816 -0.1263 -0.4649
 2052TIP3    H230352   4.241   7.964   9.616  2.2431 -0.2874 -0.7041
 2053TIP3   OH230353   6.297   7.309  10.121 -0.3175  0.4787  0.5597
 2053TIP3    H130354   6.302   7.223  10.078 -1.0970  1.0810 -0.8222
 2053TIP3    H230355   6.208   7.340  10.101 -0.6521  0.8723  2.5221
 2054TIP3   OH230356   1.073   7.778  10.451 -0.2056 -0.2150 -0.5531
 2054TIP3    H130357   1.026   7.705  10.411 -0.1928 -1.4220  1.4527
 2054TIP3    H230358   1.147   7.737  10.495 -0.0983  1.0246  0.4796
 2055TIP3   OH230359   4.027   6.237  11.115 -0.6661 -0.1215 -0.6025
 2055TIP3    H130360   3.975   6.247  11.035  0.4659  3.3744 -1.0637
 2055TIP3    H230361   4.019   6.321  11.160  2.0818 -0.5139  0.8402
 2056TIP3   OH230362   0.841   8.860  10.255  0.1587 -0.1806  0.5468
 2056TIP3    H130363   0.765   8.870  10.312  0.3003 -0.1856  0.7390
 2056TIP3    H230364   0.882   8.778  10.284  0.9046  0.4214  1.2420
 2057TIP3   OH230365   8.098   7.031   9.540  0.1423  0.3579 -0.0176
 2057TIP3    H130366   8.129   6.942   9.521 -0.6017  0.2008 -0.5945
 2057TIP3    H230367   8.122   7.082   9.462 -1.3295  0.1397 -0.6553
 2058TIP3   OH230368   6.773   7.765   9.087 -0.2027 -0.4347 -0.2718
 2058TIP3    H130369   6.762   7.696   9.152  0.3610 -0.6551 -0.4025
 2058TIP3    H230370   6.718   7.738   9.014 -0.7942 -0.2137  0.0909
 2059TIP3   OH230371   1.299   2.819  10.824  0.3741 -0.0698  0.3979
 2059TIP3    H130372   1.247   2.883  10.872  0.5942  0.4475 -0.0365
 2059TIP3    H230373   1.389   2.852  10.829  0.2655  0.6362 -1.3005
 2060TIP3   OH230374   9.058   2.665  11.174 -0.0717  0.8050  0.5523
 2060TIP3    H130375   9.032   2.658  11.266  1.9071  1.2690  1.1879
 2060TIP3    H230376   8.993   2.613  11.126 -1.0799  0.4893  2.2169
 2061TIP3   OH230377   1.202   7.921  10.832 -0.6102 -0.0031  0.6926
 2061TIP3    H130378   1.294   7.945  10.831 -0.2398 -1.3446 -0.2454
 2061TIP3    H230379   1.199   7.832  10.796 -2.0564 -0.8251  2.6701
 2062TIP3   OH230380   2.351   6.175  10.744  1.0095  0.5486 -0.1750
 2062TIP3    H130381   2.346   6.083  10.718 -0.1497  0.2776  0.8882
 2062TIP3    H230382   2.290   6.220  10.685 -0.8391  0.0970  1.3009
 2063TIP3   OH230383   4.596   2.487  11.155 -0.2912 -0.0723  0.4228
 2063TIP3    H130384   4.659   2.436  11.104  0.8632  1.2089  0.5255
 2063TIP3    H230385   4.517   2.433  11.154  0.2130 -0.8657 -1.2785
 2064TIP3   OH230386   3.712   1.365  10.407 -0.0646  0.2204  0.3415
 2064TIP3    H130387   3.634   1.421  10.403 -0.5719 -0.5028 -0.2595
 2064TIP3    H230388   3.684   1.289  10.458  0.0768 -0.3015 -0.3451
 2065TIP3   OH230389   9.119   5.928  10.674 -0.5772 -0.0658  0.5004
 2065TIP3    H130390   9.149   5.840  10.697 -0.4605  0.4353  2.5098
 2065TIP3    H230391   9.190   5.966  10.622 -0.6898 -1.1886 -0.4905
 2066TIP3   OH230392   2.463   8.328  10.599 -0.2782 -0.1830  0.4647
 2066TIP3    H130393   2.439   8.237  10.616  3.1702 -1.9141 -2.4482
 2066TIP3    H230394   2.540   8.343  10.655  0.3370  0.2076 -0.4586
 2067TIP3   OH230395   2.600   3.250  10.370  0.0678  0.3039  0.1571
 2067TIP3    H130396   2.599   3.258  10.466  0.0167  0.0475  0.1759
 2067TIP3    H230397   2.522   3.200  10.349  1.2675 -1.6537  0.1533
 2068TIP3   OH230398   3.483   5.218  10.001  0.3927  0.2147 -0.5795
 2068TIP3    H130399   3.543   5.148  10.027 -1.6555 -1.4537 -0.0791
 2068TIP3    H230400   3.457   5.194   9.912 -2.5118 -1.3920  0.5731
 2069TIP3   OH230401   5.845   6.645  11.153 -0.6370  0.1240 -0.2783
 2069TIP3    H130402   5.809   6.670  11.068  1.3008  1.3866 -0.7891
 2069TIP3    H230403   5.917   6.707  11.169 -1.3586  0.3872  2.6171
 2070TIP3   OH230404   4.276   0.302   9.601  0.1860 -0.2998 -0.0992
 2070TIP3    H130405   4.370   0.293   9.616  0.7838  2.8776 -1.2302
 2070TIP3    H230406   4.237   0.292   9.688  1.5809 -1.0985  0.4663
 2071TIP3   OH230407   4.918   3.296  10.068 -0.0047  0.7360 -0.2066
 2071TIP3    H130408   4.864   3.267  10.141  1.8016 -0.9720  0.5488
 2071TIP3    H230409   4.973   3.365  10.105  1.3292 -0.5388  0.2791
 2072TIP3   OH230410   1.670   4.664   9.341 -0.0518 -0.0500 -0.2600
 2072TIP3    H130411   1.639   4.753   9.356  0.5510  0.0282  0.6181
 2072TIP3    H230412   1.603   4.623   9.286 -1.7103  0.1019  1.5500
 2073TIP3   OH230413   1.393   2.576   9.745 -0.1619  0.0572 -0.1276
 2073TIP3    H130414   1.466   2.637   9.751 -0.6551  0.5883  0.5228
 2073TIP3    H230415   1.320   2.620   9.788 -0.6796 -0.7573 -0.1418
 2074TIP3   OH230416   1.465   3.753   9.611  0.2386 -0.3872 -0.7148
 2074TIP3    H130417   1.378   3.713   9.602 -0.1510 -0.0802  1.2346
 2074TIP3    H230418   1.454   3.842   9.577 -0.8203  0.3417  1.3343
 2075TIP3   OH230419   5.904   1.666   9.961  0.6578  0.4655 -0.0647
 2075TIP3    H130420   5.820   1.712   9.958  0.6362  0.5694  1.2776
 2075TIP3    H230421   5.890   1.588   9.907 -0.1850  0.6723 -0.1660
 2076TIP3   OH230422   4.335   0.228   9.889  0.2316  0.0249  0.5403
 2076TIP3    H130423   4.291   0.311   9.875  1.2391  0.3432 -0.9648
 2076TIP3    H230424   4.427   0.252   9.900  0.4682 -0.8604  0.5527
 2077TIP3   OH230425   8.895   6.686  10.689 -0.5506 -0.2237  0.3226
 2077TIP3    H130426   8.823   6.701  10.628 -0.6854 -3.0492 -0.3092
 2077TIP3    H230427   8.966   6.649  10.636  1.0884  1.5779  1.1078
 2078TIP3   OH230428   8.471   1.635  10.459 -0.1791  0.3370 -0.0547
 2078TIP3    H130429   8.552   1.672  10.495  0.8957 -0.9529 -1.0634
 2078TIP3    H230430   8.465   1.674  10.371 -1.2872  1.3016  0.4282
 2079TIP3   OH230431   0.688   3.741   9.925 -0.0916  0.3979 -0.8324
 2079TIP3    H130432   0.728   3.772   9.844 -1.4769  2.0346 -0.9402
 2079TIP3    H230433   0.663   3.821   9.972 -1.0284 -0.5315  0.3199
 2080TIP3   OH230434   4.457   1.621  11.069 -0.0452 -0.7598 -0.2431
 2080TIP3    H130435   4.424   1.620  11.159 -0.0295 -1.2462 -0.2415
 2080TIP3    H230436   4.435   1.709  11.037  1.9905  0.2757  0.9862
 2081TIP3   OH230437   1.085   0.865  10.861  0.5734 -0.5273  0.5485
 2081TIP3    H130438   1.152   0.919  10.820 -0.3709 -0.5637 -1.1018
 2081TIP3    H230439   1.098   0.778  10.825 -0.8500 -0.3646 -0.4592
 2082TIP3   OH230440   1.904   1.434  10.618 -0.0165  0.1080 -0.6047
 2082TIP3    H130441   1.966   1.468  10.683  0.5978 -0.4717 -0.8695
 2082TIP3    H230442   1.958   1.377  10.562 -0.3302  1.3081 -2.1829
 2083TIP3   OH230443   2.405   2.217  10.060  0.3871 -0.0779  0.0818
 2083TIP3    H130444   2.399   2.312  10.069 -2.9186 -0.1318 -0.0487
 2083TIP3    H230445   2.361   2.183  10.138 -3.3201 -1.2237 -2.2203
 2084TIP3   OH230446   7.647   7.761   9.649  0.3787  0.2353 -0.2583
 2084TIP3    H130447   7.557   7.731   9.637  0.4914 -0.0227 -0.4795
 2084TIP3    H230448   7.701   7.684   9.628  0.6704  0.5558 -0.6970
 2085TIP3   OH230449   2.307   0.414  10.924  0.1771  0.2222  0.4139
 2085TIP3    H130450   2.226   0.363  10.918 -0.3660  1.1173 -0.0061
 2085TIP3    H230451   2.377   0.349  10.912 -0.5120 -0.3956 -0.3633
 2086TIP3   OH230452   3.134   5.237  10.684  0.0544 -0.4196 -0.4336
 2086TIP3    H130453   3.078   5.282  10.747  0.3509  0.8286 -1.0372
 2086TIP3    H230454   3.223   5.248  10.718  0.1666 -0.1902 -0.7942
 2087TIP3   OH230455   4.713   5.010  10.712 -0.1515 -0.5272  0.0323
 2087TIP3    H130456   4.753   5.020  10.799 -1.2796 -2.1391  0.7796
 2087TIP3    H230457   4.631   5.058  10.718 -0.3398 -0.8347 -0.0660
 2088TIP3   OH230458   8.434   4.426  10.867 -1.0799  0.1897 -0.3051
 2088TIP3    H130459   8.406   4.381  10.947  0.0165  0.4566  0.2504
 2088TIP3    H230460   8.388   4.380  10.797 -0.9248 -1.0206  0.3463
 2089TIP3   OH230461   3.553   4.003   9.886  0.0485  0.1282 -0.5565
 2089TIP3    H130462   3.641   4.006   9.925 -0.5223 -0.3392  0.8292
 2089TIP3    H230463   3.564   4.042   9.799  1.5933  0.2091 -0.3525
 2090TIP3   OH230464   2.555   9.153  10.553  0.2337  0.1301  0.4409
 2090TIP3    H130465   2.589   9.186  10.636  0.0633  1.4974 -0.0110
 2090TIP3    H230466   2.471   9.197  10.543  0.4298  0.2695 -0.6410
 2091TIP3   OH230467   3.891   1.862   9.849  0.2331 -0.0407  0.4096
 2091TIP3    H130468   3.876   1.951   9.883  0.7849  0.3031 -0.2411
 2091TIP3    H230469   3.847   1.805   9.913 -0.8924  0.7464  0.3614
 2092TIP3   OH230470   7.224   7.751   9.985 -0.1072 -0.4603 -0.3677
 2092TIP3    H130471   7.159   7.790   9.927  0.8055  1.9636  0.1323
 2092TIP3    H230472   7.300   7.734   9.929  0.2464  0.5030 -0.1975
 2093TIP3   OH230473   6.176   4.447  10.805  0.2263  0.0719 -0.1610
 2093TIP3    H130474   6.233   4.516  10.839 -0.5605 -0.3112  2.1331
 2093TIP3    H230475   6.087   4.478  10.825 -0.1902 -0.9897 -0.3097
 2094TIP3   OH230476   1.716   4.367  11.095 -0.2901  0.1509  0.3346
 2094TIP3    H130477   1.676   4.452  11.116  0.9655  0.7259  0.4609
 2094TIP3    H230478   1.675   4.341  11.012  0.5328  1.7092 -0.6128
 2095TIP3   OH230479   4.999   0.140  10.457 -0.4661  0.0453 -0.5348
 2095TIP3    H130480   5.083   0.185  10.463 -0.6496  0.2542  1.0881
 2095TIP3    H230481   5.016   0.054  10.497 -0.9163 -0.0671 -0.5807
 2096TIP3   OH230482   4.133   3.357   9.711 -0.4200 -0.1540  0.2839
 2096TIP3    H130483   4.152   3.289   9.647 -0.1253 -0.0859  0.2984
 2096TIP3    H230484   4.092   3.310   9.785  1.3548 -0.5804  1.0360
 2097TIP3   OH230485   7.065   3.074  10.408 -0.1918 -0.0293 -0.1708
 2097TIP3    H130486   7.000   3.129  10.364 -0.2229 -0.5960 -0.8622
 2097TIP3    H230487   7.144   3.084  10.355  0.5025  1.1836  1.0473
 2098TIP3   OH230488   1.174   3.704   9.544  0.5337 -0.1408  0.1403
 2098TIP3    H130489   1.134   3.634   9.596  1.4120 -0.0832  0.9262
 2098TIP3    H230490   1.100   3.752   9.507 -0.0939 -2.2462 -1.5152
 2099TIP3   OH230491   2.830   9.132  10.388 -0.5509  0.0377 -0.7401
 2099TIP3    H130492   2.852   9.096  10.302  0.7250  1.4825 -1.0546
 2099TIP3    H230493   2.782   9.061  10.431  0.0720 -1.2736 -2.0819
 2100TIP3   OH230494   4.020   3.820  11.044  0.5817  0.5395 -0.3621
 2100TIP3    H130495   3.983   3.908  11.030  0.6160  0.6780  0.3807
 2100TIP3    H230496   3.944   3.763  11.054  0.5555  0.4298 -1.1115
 2101TIP3   OH230497   7.359   2.483   9.334  0.0861  0.4658 -0.2771
 2101TIP3    H130498   7.285   2.431   9.366 -0.3004  1.1156 -0.1000
 2101TIP3    H230499   7.326   2.524   9.254 -0.0180  1.3650  0.2094
 2102TIP3   OH230500   2.180   8.087   9.687  0.3885  0.6351 -0.4424
 2102TIP3    H130501   2.129   8.006   9.679  0.5061  0.6083 -0.9387
 2102TIP3    H230502   2.222   8.079   9.773 -1.1875  1.1064  0.4086
 2103TIP3   OH230503   0.095   8.058   9.366  0.2898  0.0675  0.1762
 2103TIP3    H130504   0.173   8.036   9.315  0.5121  0.0768  0.5104
 2103TIP3    H230505   0.126   8.060   9.457 -0.3134 -0.9501  0.4252
 2104TIP3   OH230506   0.536   1.210   9.973  0.2566 -0.2618  0.0120
 2104TIP3    H130507   0.479   1.280  10.004  0.6718  1.2664 -2.3645
 2104TIP3    H230508   0.492   1.176   9.895  0.6387 -1.8863  0.4661
 2105TIP3   OH230509   2.362   1.853   9.998  0.4579 -0.1490  0.4577
 2105TIP3    H130510   2.427   1.917  10.026  0.9890  0.9234 -2.7780
 2105TIP3    H230511   2.412   1.789   9.946 -0.9218  0.5805 -1.9368
 2106TIP3   OH230512   7.186   4.372  10.059 -0.3813  0.0870 -0.4004
 2106TIP3    H130513   7.191   4.331   9.972  1.2335  2.0476 -1.3102
 2106TIP3    H230514   7.199   4.300  10.120 -0.5050 -1.1916 -1.8181
 2107TIP3   OH230515   7.593   1.705  11.214 -0.1521  0.1853 -0.5620
 2107TIP3    H130516   7.532   1.691  11.286  0.4569  2.1308  0.3942
 2107TIP3    H230517   7.556   1.777  11.164  1.8490  2.2109  0.7070
 2108TIP3   OH230518   1.813   3.938  10.160  0.1343 -0.1219 -0.5823
 2108TIP3    H130519   1.779   3.993  10.089 -2.2252 -0.8190 -0.0774
 2108TIP3    H230520   1.834   3.855  10.117  0.4505  0.0569 -0.7741
 2109TIP3   OH230521   5.340   7.987  11.094 -0.3329  0.2155  0.1015
 2109TIP3    H130522   5.430   8.001  11.065  0.8811 -2.2053  2.3056
 2109TIP3    H230523   5.327   8.049  11.165  0.3286 -0.7558  1.0891
 2110TIP3   OH230524   3.325   3.940  10.620  0.1842 -0.0880  0.2808
 2110TIP3    H130525   3.239   3.949  10.579  0.6105 -0.5333 -0.7343
 2110TIP3    H230526   3.315   3.980  10.707 -1.3055 -1.0056  0.5559
 2111TIP3   OH230527   7.878   5.708  10.890 -0.1683  0.1830  0.1096
 2111TIP3    H130528   7.964   5.744  10.868  0.0968 -0.7967 -0.4970
 2111TIP3    H230529   7.820   5.739  10.819 -0.4480  1.2606  0.7807
 2112TIP3   OH230530   8.306   5.606  10.762  0.4175  0.0737  0.8810
 2112TIP3    H130531   8.234   5.666  10.781 -1.0602 -1.4945  0.4344
 2112TIP3    H230532   8.330   5.570  10.847  0.0224 -0.1073  0.9189
 2113TIP3   OH230533   7.769   6.366  11.038  0.3860  0.2209  0.4440
 2113TIP3    H130534   7.725   6.292  11.079  0.5880 -0.4050 -0.4447
 2113TIP3    H230535   7.832   6.326  10.978 -0.1042  1.1160 -0.6898
 2114TIP3   OH230536   6.686   3.950  11.076  0.2781  0.0854  0.2116
 2114TIP3    H130537   6.601   3.907  11.091  1.3751 -3.0521 -1.4892
 2114TIP3    H230538   6.732   3.942  11.160 -0.0852 -0.9023  0.3375
 2115TIP3   OH230539   6.567   2.142  10.888  0.8591 -0.0468 -0.0223
 2115TIP3    H130540   6.618   2.084  10.944  0.0453 -0.2389  0.5331
 2115TIP3    H230541   6.486   2.095  10.871  0.2751  0.8273  0.2610
 2116TIP3   OH230542   5.419   7.953  10.392  0.0444 -0.0935 -0.4734
 2116TIP3    H130543   5.416   7.869  10.438 -0.7570 -0.5451 -1.3020
 2116TIP3    H230544   5.439   8.017  10.459  2.5180 -1.1289 -0.0847
 2117TIP3   OH230545   8.234   9.207  10.863  0.3366 -0.2698 -0.1701
 2117TIP3    H130546   8.174   9.257  10.808 -0.7604 -0.3561  0.9166
 2117TIP3    H230547   8.243   9.258  10.943 -0.0964 -1.3260  0.5920
 2118TIP3   OH230548   8.394   1.991  10.260  0.1486  0.4998  0.4000
 2118TIP3    H130549   8.467   2.051  10.245 -1.5045  2.5729  0.1385
 2118TIP3    H230550   8.369   2.006  10.351 -0.4791  0.4634  0.2369
 2119TIP3   OH230551   8.499   1.126  10.742  0.2400  0.1882 -0.0058
 2119TIP3    H130552   8.455   1.104  10.659  0.0982 -2.7509  0.7649
 2119TIP3    H230553   8.469   1.215  10.761 -2.9946 -0.5326 -1.0709
 2120TIP3   OH230554   0.434   1.003  10.674 -0.6265  0.0148  0.5769
 2120TIP3    H130555   0.435   0.919  10.721  0.0599  0.3509  1.1802
 2120TIP3    H230556   0.344   1.033  10.681 -1.1711 -1.2289 -0.6653
 2121TIP3   OH230557   0.167   0.654  10.227 -0.4141  0.7607  0.4259
 2121TIP3    H130558   0.236   0.623  10.285  0.2999 -1.2690 -1.3719
 2121TIP3    H230559   0.169   0.594  10.153 -0.9529  3.5022 -1.9852
 2122TIP3   OH230560   8.374   6.281   9.747 -0.2652 -0.2004 -0.0732
 2122TIP3    H130561   8.464   6.302   9.771 -0.6599  1.0407  0.3805
 2122TIP3    H230562   8.342   6.359   9.702 -0.2580 -1.6427 -2.7656
 2123TIP3   OH230563   0.574   6.401  10.308  0.3604 -0.1573  0.1238
 2123TIP3    H130564   0.641   6.454  10.265  1.7413 -1.7134  0.2641
 2123TIP3    H230565   0.610   6.383  10.395 -0.7052 -0.1937  0.5724
 2124TIP3   OH230566   6.579   5.043  10.113 -0.0248 -0.8538 -0.4181
 2124TIP3    H130567   6.537   5.078  10.191  0.0277 -0.5614 -0.5218
 2124TIP3    H230568   6.672   5.043  10.134  0.2176  1.2207 -1.2511
 2125TIP3   OH230569   5.002   2.094  10.990  0.0359  0.5580 -0.9689
 2125TIP3    H130570   4.924   2.043  11.013  0.5989 -0.1422 -0.6132
 2125TIP3    H230571   5.070   2.030  10.974  1.8771  1.1031  3.2459
 2126TIP3   OH230572   5.335   1.041  11.250  0.3477 -0.0884  0.6017
 2126TIP3    H130573   5.360   1.043  11.342  1.0877 -0.5612  0.4126
 2126TIP3    H230574   5.269   0.972  11.244 -0.7373  0.8704  1.0186
 2127TIP3   OH230575   2.335   4.101  10.290 -0.3871  0.4974  0.9539
 2127TIP3    H130576   2.331   4.026  10.231  2.2733 -0.2497  1.5607
 2127TIP3    H230577   2.333   4.062  10.378 -2.3397  1.4404  1.3711
 2128TIP3   OH230578   5.006   4.236   9.573 -0.2895 -0.4493 -0.4917
 2128TIP3    H130579   4.987   4.251   9.480  2.2722 -0.3168 -1.0643
 2128TIP3    H230580   4.996   4.142   9.585 -1.3461 -0.3761 -0.6923
 2129TIP3   OH230581   2.465   2.789  10.780 -0.2269  0.2732  0.0274
 2129TIP3    H130582   2.449   2.766  10.689 -1.6255  0.5778  0.1770
 2129TIP3    H230583   2.444   2.709  10.829 -0.8957  0.5459  0.1934
 2130TIP3   OH230584   7.708   3.025   9.668 -0.6975  0.4679  0.1895
 2130TIP3    H130585   7.759   3.006   9.590  0.8949 -1.1877  1.5348
 2130TIP3    H230586   7.759   2.988   9.740 -2.4435  1.2704  1.9531
 2131TIP3   OH230587   6.455   8.930  11.228 -0.7125  0.8051 -0.2651
 2131TIP3    H130588   6.471   9.024  11.237 -0.7255  0.6927  0.9883
 2131TIP3    H230589   6.380   8.925  11.168 -2.1603  1.7089  1.3518
 2132TIP3   OH230590   4.778   7.002  10.821  0.5237  0.2289  0.1968
 2132TIP3    H130591   4.817   6.998  10.734  0.4068  0.5732  0.1312
 2132TIP3    H230592   4.727   6.921  10.828 -1.0742  1.1050 -0.8091
 2133TIP3   OH230593   7.082   8.448  10.495  0.1892  0.0785 -0.3958
 2133TIP3    H130594   7.064   8.385  10.564  1.7934 -0.2446 -0.2248
 2133TIP3    H230595   7.134   8.400  10.431  0.3005  0.8659 -0.9189
 2134TIP3   OH230596   3.305   8.073  10.317  0.3076 -0.0147  0.2730
 2134TIP3    H130597   3.299   8.166  10.294  1.3832  0.2140  0.8331
 2134TIP3    H230598   3.220   8.052  10.355  0.1849  0.8564  0.5015
 2135TIP3   OH230599   3.647   8.034   9.322  0.0779  0.7102  0.1324
 2135TIP3    H130600   3.588   8.086   9.376 -0.5701 -0.2414  0.3637
 2135TIP3    H230601   3.618   8.050   9.232 -0.1010  0.7585  0.2003
 2136TIP3   OH230602   2.225   8.776  10.298 -0.0073 -0.3889  0.1140
 2136TIP3    H130603   2.152   8.770  10.360  0.0696  1.1504  0.3950
 2136TIP3    H230604   2.304   8.768  10.352  0.0439 -1.1197 -0.0659
 2137TIP3   OH230605   7.622   5.998  10.286  0.0670 -0.0126 -0.1970
 2137TIP3    H130606   7.663   6.036  10.363  0.0813  1.6215 -0.9593
 2137TIP3    H230607   7.596   6.074  10.233 -0.6590 -1.0697 -1.4214
 2138TIP3   OH230608   5.469   5.782  11.291  0.3229  0.5139 -0.4597
 2138TIP3    H130609   5.475   5.842  11.365 -0.2278  0.8123 -0.6484
 2138TIP3    H230610   5.436   5.836  11.219 -1.0926 -0.1965 -0.3889
 2139TIP3   OH230611   5.397   6.786  11.329 -0.3727 -0.5714 -0.0618
 2139TIP3    H130612   5.474   6.792  11.386  0.5370 -2.9520 -0.8967
 2139TIP3    H230613   5.432   6.795  11.240 -1.4831  1.0284 -0.3700
 2140TIP3   OH230614   2.225   6.584  10.049  0.1117  0.3303 -0.6674
 2140TIP3    H130615   2.275   6.502  10.050 -0.5158 -0.0838 -1.6260
 2140TIP3    H230616   2.147   6.566  10.102 -0.2303  0.1668 -1.2213
 2141TIP3   OH230617   3.141   0.167   9.756  0.3439  0.4872  0.0326
 2141TIP3    H130618   3.100   0.101   9.699  1.0651 -1.2275  1.4312
 2141TIP3    H230619   3.224   0.128   9.783  0.8728  2.0529  0.7838
 2142TIP3   OH230620   0.396   7.229  10.407 -0.5592 -0.0549 -0.3175
 2142TIP3    H130621   0.384   7.138  10.379  1.3485 -0.9748  1.5127
 2142TIP3    H230622   0.350   7.234  10.491  1.0585  0.0064  0.6051
 2143TIP3   OH230623   0.211   5.053   9.477  0.6901  0.1320  0.5705
 2143TIP3    H130624   0.183   5.125   9.534  0.4640 -0.3034  1.0116
 2143TIP3    H230625   0.243   5.097   9.398 -1.3854  0.6462 -0.0459
 2144TIP3   OH230626   3.172   7.951  10.597  0.1143  0.1831  0.4486
 2144TIP3    H130627   3.127   8.013  10.540  0.5815 -0.6309 -0.8638
 2144TIP3    H230628   3.262   7.950  10.565  0.6961  0.6344  2.0329
 2145TIP3   OH230629   4.081   2.259  10.837  0.3404 -0.2421  0.2728
 2145TIP3    H130630   4.107   2.296  10.753  0.6158 -0.5673  0.2105
 2145TIP3    H230631   3.991   2.227  10.824  0.1343  0.3247  0.3040
 2146TIP3   OH230632   2.682   1.706   9.816  0.4604 -0.1231  0.3577
 2146TIP3    H130633   2.739   1.691   9.891  0.1954 -0.5543  0.4714
 2146TIP3    H230634   2.619   1.634   9.818 -0.0706  0.3339  0.2117
 2147TIP3   OH230635   6.288   1.348  10.516  0.4928  0.4857  0.0286
 2147TIP3    H130636   6.375   1.377  10.490  1.1736 -0.6986  0.8328
 2147TIP3    H230637   6.254   1.300  10.441  0.4845  1.0379 -0.3224
 2148TIP3   OH230638   6.689   4.742   9.994 -0.5294 -0.1361 -0.7480
 2148TIP3    H130639   6.595   4.758   9.984 -0.2593  0.7442 -2.3587
 2148TIP3    H230640   6.720   4.815  10.047 -1.2434 -2.3787  3.1787
 2149TIP3   OH230641   5.143   1.103   9.796  0.2113  0.1165 -0.1644
 2149TIP3    H130642   5.114   1.012   9.787 -0.0111  0.2323 -0.6982
 2149TIP3    H230643   5.112   1.130   9.882  0.0657 -0.2404 -0.1023
 2150TIP3   OH230644   8.170   5.733  10.435 -0.2515 -0.3341  0.4805
 2150TIP3    H130645   8.202   5.643  10.432 -2.2351 -1.0319 -1.2518
 2150TIP3    H230646   8.238   5.783  10.389 -0.2529 -1.3227 -0.6425
 2151TIP3   OH230647   5.086   6.597  10.618  0.1535  0.1551  0.5771
 2151TIP3    H130648   4.993   6.619  10.617 -0.0842 -0.7056 -1.6931
 2151TIP3    H230649   5.125   6.660  10.679 -1.5833  1.9299 -0.0335
 2152TIP3   OH230650   6.817   5.670  10.434  0.3961 -0.1311 -0.6259
 2152TIP3    H130651   6.788   5.612  10.363 -1.1676  0.4406 -0.5012
 2152TIP3    H230652   6.882   5.619  10.482 -1.1410 -1.9232 -0.3337
 2153TIP3   OH230653   8.497   7.144  10.464  0.1975 -0.0238  0.1365
 2153TIP3    H130654   8.461   7.065  10.505 -2.3230  0.7012 -0.5149
 2153TIP3    H230655   8.458   7.216  10.514  2.2437  0.8618  0.5455
 2154TIP3   OH230656   3.648   3.936   9.350  0.7870 -0.5441  0.2960
 2154TIP3    H130657   3.631   3.848   9.316  1.0750  0.0785 -1.5826
 2154TIP3    H230658   3.596   3.993   9.293  1.9921  0.6408  0.3529
 2155TIP3   OH230659   2.552   2.108  10.434  0.6599 -0.1743  0.1845
 2155TIP3    H130660   2.487   2.065  10.378  0.3002 -0.8574  1.0946
 2155TIP3    H230661   2.633   2.058  10.420  1.2787  1.2085 -1.6136
 2156TIP3   OH230662   6.810   0.682   9.760  0.2788  0.1772  0.0254
 2156TIP3    H130663   6.775   0.606   9.712  1.0600 -0.6934  0.7926
 2156TIP3    H230664   6.743   0.701   9.826  0.6402 -0.6898  0.6716
 2157TIP3   OH230665   8.521   1.673   9.580  0.2250  0.5495  0.0071
 2157TIP3    H130666   8.615   1.662   9.574 -0.0828 -1.9569 -1.9557
 2157TIP3    H230667   8.500   1.741   9.517  0.6129  0.3669 -0.3192
 2158TIP3   OH230668   0.508   5.346  10.513  0.1121 -0.4245  0.0172
 2158TIP3    H130669   0.517   5.376  10.423  0.6074 -1.4200 -0.2771
 2158TIP3    H230670   0.577   5.281  10.524  1.5049  1.2125  1.8004
 2159TIP3   OH230671   8.907   0.241  10.105  0.0210  0.2829 -0.4222
 2159TIP3    H130672   8.916   0.154  10.065  0.1881 -0.2005  0.6259
 2159TIP3    H230673   8.986   0.288  10.078  1.9885 -1.2545  2.1950
 2160TIP3   OH230674   4.559   2.673  10.358  0.4156 -0.0994  0.3382
 2160TIP3    H130675   4.532   2.628  10.278  0.2298  0.0952  0.2913
 2160TIP3    H230676   4.545   2.765  10.340  1.4861  0.0424  0.1708
 2161TIP3   OH230677   4.643   1.617   8.947  0.0093 -0.0438 -0.6765
 2161TIP3    H130678   4.686   1.581   8.869  3.5643  1.3830  0.4103
 2161TIP3    H230679   4.669   1.557   9.018 -0.2078  0.6028 -0.0475
 2162TIP3   OH230680   1.005   6.195  10.508 -0.1908  0.0244  0.1661
 2162TIP3    H130681   1.037   6.134  10.441 -1.1588 -0.9882  0.5910
 2162TIP3    H230682   1.077   6.203  10.570 -0.0245 -0.6406  0.0657
 2163TIP3   OH230683   6.965   4.788  10.723 -0.3494  0.0537  0.1433
 2163TIP3    H130684   6.907   4.855  10.688 -0.3975  0.5901  1.2128
 2163TIP3    H230685   7.034   4.836  10.767  1.4578 -0.5390 -1.8400
 2164TIP3   OH230686   1.705   0.149  10.588 -0.0217 -0.6422 -0.2627
 2164TIP3    H130687   1.776   0.207  10.562  0.0308 -0.8325 -0.5508
 2164TIP3    H230688   1.636   0.208  10.620  0.7513 -0.5262  1.2366
 2165TIP3   OH230689   6.511   3.239  10.126  0.7432 -0.5334  1.2298
 2165TIP3    H130690   6.534   3.157  10.082  0.6823  1.3556 -2.7737
 2165TIP3    H230691   6.576   3.302  10.094 -0.1965  1.3428  2.8251
 2166TIP3   OH230692   2.439   0.687  10.354 -0.5062  0.2186  0.5136
 2166TIP3    H130693   2.494   0.611  10.372 -0.9785 -0.0262  0.9563
 2166TIP3    H230694   2.350   0.654  10.364 -0.7063  1.2120  2.3504
 2167TIP3   OH230695   3.224   5.957   9.783 -0.7874 -0.0438 -0.7910
 2167TIP3    H130696   3.245   5.920   9.698 -0.4263 -0.3534 -0.5708
 2167TIP3    H230697   3.304   6.001   9.811 -0.6766 -0.5546 -0.2969
 2168TIP3   OH230698   8.093   2.354  10.189 -0.4862 -0.5011 -0.0191
 2168TIP3    H130699   8.058   2.441  10.175  1.2189  0.4606  1.2588
 2168TIP3    H230700   8.064   2.303  10.114 -1.7345  1.0918 -0.6548
 2169TIP3   OH230701   9.014   0.843   9.751 -0.0335 -0.2231 -0.0890
 2169TIP3    H130702   9.031   0.902   9.678  0.1916 -0.2076 -0.0251
 2169TIP3    H230703   8.973   0.767   9.711  0.7601 -0.5322 -0.3455
 2170TIP3   OH230704   6.977   1.989   9.435 -0.3801 -0.1188  0.1024
 2170TIP3    H130705   6.963   2.081   9.413 -0.4995 -0.3235 -0.6946
 2170TIP3    H230706   7.050   1.990   9.497  1.4336  0.3143 -1.9205
 2171TIP3   OH230707   1.090   4.660  10.446 -0.2290 -0.0954 -0.0961
 2171TIP3    H130708   1.114   4.702  10.363  2.5717 -0.1530  0.6011
 2171TIP3    H230709   1.023   4.596  10.421 -1.6378  1.9033 -1.7932
 2172TIP3   OH230710   0.788   1.605  10.552  0.2259 -0.0495 -0.4830
 2172TIP3    H130711   0.825   1.541  10.614  2.5950  1.1284 -0.5445
 2172TIP3    H230712   0.745   1.669  10.608 -1.6577 -1.3237 -0.3892
 2173TIP3   OH230713   0.203   1.582  10.459  0.3337  0.2099  0.7581
 2173TIP3    H130714   0.130   1.611  10.514 -0.0720 -1.5102  1.1889
 2173TIP3    H230715   0.171   1.502  10.417  1.4573  0.2331 -0.1859
 2174TIP3   OH230716   7.954   4.865   9.489 -0.0764  0.6104  0.2206
 2174TIP3    H130717   8.032   4.809   9.491 -0.3338  0.2073 -0.5589
 2174TIP3    H230718   7.927   4.864   9.397 -0.8555  0.9549  0.4437
 2175TIP3   OH230719   6.167   1.711   9.887 -0.5848  0.2985  0.4999
 2175TIP3    H130720   6.208   1.626   9.902  0.2645  0.8103  1.2518
 2175TIP3    H230721   6.080   1.703   9.925 -0.0156  0.1774  1.8410
 2176TIP3   OH230722   7.629   2.617   9.787 -0.3175 -0.3030  1.1255
 2176TIP3    H130723   7.649   2.684   9.722  0.6556 -1.7088 -0.0974
 2176TIP3    H230724   7.575   2.554   9.740 -2.7097  0.4095  2.7296
 2177TIP3   OH230725   5.060   6.878  10.142  0.2346  0.0841  0.2551
 2177TIP3    H130726   5.061   6.784  10.163  0.0199  0.2659  1.1008
 2177TIP3    H230727   5.027   6.882  10.052  0.5652 -0.6672  0.0898
 2178TIP3   OH230728   2.110   3.068  10.722  0.0173  0.1132 -0.3992
 2178TIP3    H130729   2.025   3.041  10.689 -0.5512 -0.1290  1.1836
 2178TIP3    H230730   2.155   2.987  10.743  0.9347  0.2078 -1.8401
 2179TIP3   OH230731   3.220   4.462  10.821 -0.0831 -0.4467 -0.0405
 2179TIP3    H130732   3.142   4.406  10.823  1.3687 -2.6041 -0.2749
 2179TIP3    H230733   3.225   4.493  10.731 -1.1377  0.4372  0.1905
 2180TIP3   OH230734   7.512   2.140  10.837 -0.6335 -0.1697  1.0499
 2180TIP3    H130735   7.510   2.235  10.826 -0.7555 -0.4999 -3.2988
 2180TIP3    H230736   7.423   2.112  10.819 -0.2000 -1.2091  0.4520
 2181TIP3   OH230737   8.494   0.145   9.088  0.4719  0.0553 -0.5141
 2181TIP3    H130738   8.549   0.210   9.045  0.6655 -0.4202 -0.9963
 2181TIP3    H230739   8.546   0.064   9.086 -0.3582 -0.4812 -1.2564
 2182TIP3   OH230740   6.031   0.103  10.282  0.0363  0.0247 -0.1674
 2182TIP3    H130741   6.120   0.130  10.305 -0.2093  0.9153 -0.2348
 2182TIP3    H230742   5.975   0.144  10.348 -0.4648  0.7663 -1.0285
 2183TIP3   OH230743   0.363   6.546  11.025  0.0194 -0.2767  0.4963
 2183TIP3    H130744   0.365   6.456  11.057  1.7389 -0.3225  0.3442
 2183TIP3    H230745   0.452   6.579  11.039  0.5246  0.1656 -2.8971
 2184TIP3   OH230746   5.896   4.864  10.476 -0.7822 -0.2402  0.0013
 2184TIP3    H130747   5.864   4.950  10.449  2.3553  0.7691 -0.8424
 2184TIP3    H230748   5.916   4.819  10.394 -0.3915 -0.9740  0.4932
 2185TIP3   OH230749   9.051   1.863  10.098 -0.5036 -0.1043 -0.1730
 2185TIP3    H130750   9.032   1.937  10.157 -1.8897 -1.7468  1.5973
 2185TIP3    H230751   9.128   1.821  10.136  0.4072  0.5119 -1.2955
 2186TIP3   OH230752   5.658   5.578   9.731 -0.0300  0.3510  0.2029
 2186TIP3    H130753   5.738   5.599   9.683 -0.2986  0.1117 -0.3696
 2186TIP3    H230754   5.671   5.488   9.761 -0.1450  0.2567 -0.0262
 2187TIP3   OH230755   5.088   0.278  10.788  0.5268  0.2040 -0.2188
 2187TIP3    H130756   5.103   0.321  10.703  1.7162 -0.9529 -0.6237
 2187TIP3    H230757   5.110   0.344  10.853 -1.2362  1.4099 -0.7522
 2188TIP3   OH230758   4.010   4.094  10.412 -0.1641  0.2885 -0.0049
 2188TIP3    H130759   3.965   4.177  10.425  0.5714  0.7205 -0.1838
 2188TIP3    H230760   4.081   4.114  10.352 -0.0716 -0.5071 -0.1712
 2189TIP3   OH230761   4.108   1.945  11.086 -0.6912  0.5714  0.2683
 2189TIP3    H130762   4.072   2.028  11.120 -0.4246 -0.0642  2.2326
 2189TIP3    H230763   4.031   1.890  11.071 -0.7268 -0.3262  3.2173
 2190TIP3   OH230764   6.799   4.951  10.579  0.4722 -0.3793 -0.1810
 2190TIP3    H130765   6.826   5.041  10.560  1.0799 -0.1991  1.4780
 2190TIP3    H230766   6.721   4.939  10.524  1.0205  0.7646 -1.2707
 2191TIP3   OH230767   3.532   3.390  10.240 -0.1108  0.8474  0.2069
 2191TIP3    H130768   3.532   3.330  10.315  0.0646  0.1027 -0.3817
 2191TIP3    H230769   3.572   3.470  10.274 -1.8938  1.2594  1.4703
 2192TIP3   OH230770   2.755   4.139  10.225 -0.2393 -0.3265  0.5141
 2192TIP3    H130771   2.839   4.141  10.180 -0.0934  1.8691  0.7475
 2192TIP3    H230772   2.741   4.230  10.252 -2.0367 -0.9044  1.6937
 2193TIP3   OH230773   5.645   2.107  10.243  0.8071  0.2163 -0.0869
 2193TIP3    H130774   5.589   2.136  10.171  0.3924 -0.4793 -0.0543
 2193TIP3    H230775   5.697   2.037  10.205  0.5901 -0.1513  0.2874
 2194TIP3   OH230776   3.949   0.640  10.075 -0.2070  0.2477  0.0040
 2194TIP3    H130777   3.944   0.557  10.124 -3.8119  0.3879  0.1731
 2194TIP3    H230778   3.936   0.615   9.984 -0.8949  0.5701  0.0080
 2195TIP3   OH230779   2.855   2.443   9.845  0.1914  0.1643 -0.1211
 2195TIP3    H130780   2.826   2.534   9.854  0.7635  0.4433 -0.9587
 2195TIP3    H230781   2.938   2.449   9.798  0.0984 -0.8151 -0.4283
 2196TIP3   OH230782   6.708   6.855  10.938  0.4240 -0.2549  0.5605
 2196TIP3    H130783   6.651   6.932  10.936  1.1848  0.3239  0.5432
 2196TIP3    H230784   6.648   6.781  10.941 -0.4200  0.2171 -1.9466
 2197TIP3   OH230785   5.823   3.070   9.571  0.0475 -0.1261  0.3003
 2197TIP3    H130786   5.815   3.006   9.501  1.9133 -1.5730  1.3019
 2197TIP3    H230787   5.770   3.145   9.542 -0.3234 -1.1905 -1.9824
 2198TIP3   OH230788   2.595   2.008  10.710  0.0422 -0.3429 -0.1099
 2198TIP3    H130789   2.634   1.928  10.676  1.4936  0.1801  0.2608
 2198TIP3    H230790   2.583   2.064  10.633 -2.8039 -1.5895 -0.6813
 2199TIP3   OH230791   2.373   8.619   9.272  0.0672 -0.4912 -0.5988
 2199TIP3    H130792   2.316   8.543   9.269  0.0346 -0.5597  1.0309
 2199TIP3    H230793   2.456   8.586   9.307  0.0567  0.2038  0.1087
 2200TIP3   OH230794   2.910   3.852  10.321  0.0513  0.1229  0.5300
 2200TIP3    H130795   2.821   3.846  10.285 -0.0444 -0.5321  0.8538
 2200TIP3    H230796   2.967   3.839  10.245 -0.1522 -1.8209  0.6404
 2201TIP3   OH230797   7.329   0.076  10.950  0.2442  0.3096  0.3920
 2201TIP3    H130798   7.349  -0.001  11.003  1.6906  0.4493  0.0904
 2201TIP3    H230799   7.296   0.041  10.868  0.0239  0.0407  0.5944
 2202TIP3   OH230800   1.019   3.700   9.869  0.0073  0.8850 -0.6660
 2202TIP3    H130801   0.987   3.645   9.940  3.7441 -1.4388 -0.5073
 2202TIP3    H230802   0.987   3.658   9.789  0.9394 -0.2385 -0.4700
 2203TIP3   OH230803   0.186   7.288  10.594 -0.2981 -0.1018 -0.0625
 2203TIP3    H130804   0.098   7.323  10.602 -1.2855 -1.5610 -3.0408
 2203TIP3    H230805   0.186   7.209  10.648 -0.9477 -0.2962 -0.3422
 2204TIP3   OH230806   8.119   1.202  11.011 -0.1359 -0.1212  0.7165
 2204TIP3    H130807   8.205   1.242  11.023  0.2252 -0.4355 -0.7001
 2204TIP3    H230808   8.134   1.108  11.020  0.0100 -0.3160 -1.1513
 2205TIP3   OH230809   5.939   4.162   9.466  0.2256 -0.3144  0.2703
 2205TIP3    H130810   5.852   4.131   9.494  0.0217 -0.1624 -0.1893
 2205TIP3    H230811   5.952   4.244   9.513  0.1850 -0.4134  0.4550
 2206TIP3   OH230812   7.912   7.212  10.955  0.0356  0.5973 -0.2585
 2206TIP3    H130813   7.976   7.142  10.943 -0.7163 -0.1165 -0.2874
 2206TIP3    H230814   7.953   7.290  10.918  0.6957  0.0499 -0.7010
 2207TIP3   OH230815   0.030   2.757  10.596  0.2344  0.4966 -0.3784
 2207TIP3    H130816   0.084   2.760  10.517  1.5516  0.9170  0.5088
 2207TIP3    H230817   0.056   2.676  10.641 -0.0538  0.5738 -0.0638
 2208TIP3   OH230818   0.540   7.567  10.826  0.1275 -0.3353  0.3267
 2208TIP3    H130819   0.457   7.568  10.778 -0.0271  0.0754  0.5938
 2208TIP3    H230820   0.537   7.646  10.881  0.0376 -1.1110  1.4585
 2209TIP3   OH230821   5.816   8.488   9.793 -0.3343 -0.1801 -0.3190
 2209TIP3    H130822   5.760   8.536   9.731 -1.0808 -1.5140 -0.7150
 2209TIP3    H230823   5.838   8.407   9.747 -0.8092 -1.1459  1.1122
 2210TIP3   OH230824   8.815   5.116  10.351 -0.3504  0.2649 -0.4384
 2210TIP3    H130825   8.797   5.185  10.415  0.5178 -0.1067  0.2193
 2210TIP3    H230826   8.729   5.095  10.313 -0.7172  1.2112 -0.1455
 2211TIP3   OH230827   0.953   8.868  10.755 -0.0926 -0.1348 -0.1752
 2211TIP3    H130828   0.860   8.845  10.755 -0.0725 -0.2183 -0.3581
 2211TIP3    H230829   0.971   8.895  10.665  0.6045 -2.3664 -0.7816
 2212TIP3   OH230830   8.315   1.017   9.245  0.0154  0.4779  0.1228
 2212TIP3    H130831   8.368   0.997   9.322 -0.6780  0.0740  0.5124
 2212TIP3    H230832   8.342   0.954   9.180 -0.6844 -0.4039  0.6580
 2213TIP3   OH230833   3.908   7.423  10.212  0.3440  0.1188  0.0812
 2213TIP3    H130834   3.977   7.453  10.153  0.1033 -0.4939 -0.5293
 2213TIP3    H230835   3.922   7.471  10.293 -0.5299  2.4946 -1.1013
 2214TIP3   OH230836   7.439   3.240  11.057 -0.0769 -0.3515 -0.4334
 2214TIP3    H130837   7.386   3.163  11.075  0.3001 -0.1242  2.0675
 2214TIP3    H230838   7.463   3.233  10.965  0.7822 -3.7468 -0.0663
 2215TIP3   OH230839   5.198   0.187  10.082  0.0622  0.3485 -0.1034
 2215TIP3    H130840   5.282   0.197  10.127 -0.1682 -0.3991  0.5205
 2215TIP3    H230841   5.211   0.227   9.996  0.7201  1.2184  0.3839
 2216TIP3   OH230842   7.738   6.268   9.287  0.2285  0.6004  0.2019
 2216TIP3    H130843   7.748   6.345   9.231 -1.6344  0.2368 -0.6882
 2216TIP3    H230844   7.786   6.199   9.241  0.4238  0.8038  0.0987
 2217TIP3   OH230845   6.720   3.874  10.238 -0.0245  0.0500 -0.2391
 2217TIP3    H130846   6.654   3.937  10.208 -0.3091 -0.7828 -1.4637
 2217TIP3    H230847   6.717   3.804  10.173  1.0243 -0.7282  0.5147
 2218TIP3   OH230848   2.207   2.761   9.579  0.1348 -0.0487  0.5198
 2218TIP3    H130849   2.241   2.822   9.514  0.6461  0.7457  1.5077
 2218TIP3    H230850   2.219   2.674   9.540  2.6079  0.2476  0.4979
 2219TIP3   OH230851   2.794   2.710   9.799 -0.1214 -0.2012  0.1703
 2219TIP3    H130852   2.797   2.701   9.894 -0.1182  1.4920  0.3569
 2219TIP3    H230853   2.724   2.774   9.783  0.8335  0.6268 -0.8686
 2220TIP3   OH230854   9.201   1.107   9.596  0.4035 -0.4465  0.0625
 2220TIP3    H130855   9.153   1.184   9.566  0.8600  0.0670  0.6051
 2220TIP3    H230856   9.228   1.063   9.516  1.8676  1.0642 -0.3442
 2221TIP3   OH230857   4.883   7.158  11.018 -0.0001  0.3657  0.0867
 2221TIP3    H130858   4.834   7.240  11.019  1.2224  1.1159  0.5792
 2221TIP3    H230859   4.853   7.113  10.939 -2.2211  0.3163  0.8892
 2222TIP3   OH230860   1.071   1.418  10.568 -0.1729 -0.5605  0.6052
 2222TIP3    H130861   1.130   1.348  10.594  1.4733 -0.3159 -2.0970
 2222TIP3    H230862   1.129   1.492  10.548 -1.7817  1.2827  2.3423
 2223TIP3   OH230863   5.462   5.269   9.496  0.5400 -0.1165 -0.8337
 2223TIP3    H130864   5.419   5.248   9.413 -1.3353 -1.0334  0.2921
 2223TIP3    H230865   5.467   5.364   9.498 -0.2492 -0.0485 -1.5932
 2224TIP3   OH230866   3.981   2.605   9.588  0.1585  0.0517 -0.0303
 2224TIP3    H130867   4.061   2.648   9.619  0.3841  0.6549 -1.3831
 2224TIP3    H230868   3.938   2.574   9.668  1.3558  0.4009  0.7728
 2225TIP3   OH230869   0.440   1.918   9.888  0.3242  0.2088 -0.5597
 2225TIP3    H130870   0.373   1.946   9.950 -0.0155 -0.6857 -0.5174
 2225TIP3    H230871   0.510   1.881   9.941  0.4689  0.3343 -0.6588
 2226TIP3   OH230872   4.960   6.280  10.837  0.1927 -0.0769 -0.4182
 2226TIP3    H130873   4.871   6.251  10.816 -0.3349  0.8984  0.3966
 2226TIP3    H230874   5.008   6.271  10.754 -0.5540 -0.9481 -0.7847
 2227TIP3   OH230875   3.626   8.140  10.039  0.7518  0.6789 -0.4358
 2227TIP3    H130876   3.707   8.186  10.019 -0.2280  2.4585 -0.5121
 2227TIP3    H230877   3.593   8.182  10.118 -0.6153  0.7263 -0.9972
 2228TIP3   OH230878   4.464   7.788  10.606  0.1631 -0.6725 -0.2805
 2228TIP3    H130879   4.547   7.745  10.584  0.4801  0.4923 -1.5322
 2228TIP3    H230880   4.429   7.737  10.679  1.9223 -1.2648  0.2069
 2229TIP3   OH230881   3.410   3.540   9.343 -0.3697  0.0446  0.1894
 2229TIP3    H130882   3.455   3.520   9.425  0.3663  1.2350  0.1155
 2229TIP3    H230883   3.317   3.523   9.361 -0.1022 -0.6799  0.9355
 2230TIP3   OH230884   6.553   7.734  10.772  0.0569  0.0253  0.7359
 2230TIP3    H130885   6.630   7.682  10.749 -0.5494  0.0867 -1.7669
 2230TIP3    H230886   6.478   7.676  10.756 -0.4926  0.5348  1.3707
 2231TIP3   OH230887   8.155   4.088  10.009 -0.0551  0.0483  0.6822
 2231TIP3    H130888   8.151   4.170  10.058 -1.0075 -0.2656  1.1491
 2231TIP3    H230889   8.075   4.088   9.956  0.5485 -0.0117 -0.2686
 2232TIP3   OH230890   1.005   1.358   9.817 -0.5166 -0.3066 -0.5613
 2232TIP3    H130891   0.954   1.378   9.896  0.5266  0.6155 -0.0975
 2232TIP3    H230892   1.080   1.417   9.821  1.6721 -2.9094 -0.1751
 2233TIP3   OH230893   9.165   5.778  10.179 -0.1952 -0.0489 -0.3284
 2233TIP3    H130894   9.179   5.684  10.172  1.1911  0.2061 -1.6062
 2233TIP3    H230895   9.253   5.815  10.184 -0.7199  1.1759  0.2510
 2234TIP3   OH230896   0.389   6.591  10.453 -0.3618  0.2041  0.3596
 2234TIP3    H130897   0.425   6.538  10.382 -2.2779 -1.0906  0.2719
 2234TIP3    H230898   0.465   6.623  10.501  0.9256 -0.1644 -1.3587
 2235TIP3   OH230899   3.256   3.873   9.751  0.0747 -0.2750  0.0397
 2235TIP3    H130900   3.285   3.928   9.678 -0.9221  1.1532  0.6655
 2235TIP3    H230901   3.309   3.793   9.744  2.8175  1.4023  0.0527
 2236TIP3   OH230902   6.547   8.856  10.026  0.1288  0.2025 -0.2739
 2236TIP3    H130903   6.522   8.920  10.092  0.7895 -0.7125  0.9137
 2236TIP3    H230904   6.643   8.859  10.026  0.1829 -1.0957  0.1367
 2237TIP3   OH230905   3.879   4.565  10.635 -0.2381  0.0712  0.3760
 2237TIP3    H130906   3.896   4.640  10.577 -1.5398  0.1246  0.0307
 2237TIP3    H230907   3.790   4.538  10.613 -0.2345 -0.8033  1.3818
 2238TIP3   OH230908   9.073   3.110  11.147 -0.1461 -0.0359 -0.7643
 2238TIP3    H130909   9.120   3.193  11.140  2.2088 -1.1256  0.8206
 2238TIP3    H230910   9.058   3.083  11.056 -1.3059  2.2170 -1.3162
 2239TIP3   OH230911   4.914   8.003  11.268 -0.1551 -0.5190  0.4824
 2239TIP3    H130912   4.972   7.952  11.325  0.6322 -0.4614 -0.2516
 2239TIP3    H230913   4.859   7.937  11.226 -0.7304 -0.5641  1.2842
 2240TIP3   OH230914   3.139   0.182   9.415 -0.1118  0.2485 -0.3274
 2240TIP3    H130915   3.189   0.229   9.347  0.2601  0.4198  0.0596
 2240TIP3    H230916   3.171   0.092   9.410  1.1251  0.5977  0.7137
 2241TIP3   OH230917   3.440   1.690  10.881 -0.1882  0.2669 -0.3835
 2241TIP3    H130918   3.499   1.618  10.905 -1.3744 -0.7774 -0.5108
 2241TIP3    H230919   3.473   1.765  10.930  1.0947 -0.3453 -0.2534
 2242TIP3   OH230920   0.010   7.709  10.531 -0.3275 -0.0749 -0.0598
 2242TIP3    H130921  -0.064   7.697  10.591  0.5254  0.4997  1.1448
 2242TIP3    H230922   0.007   7.802  10.508 -0.7374 -0.3209 -1.0601
 2243TIP3   OH230923   7.466   1.320   9.592 -1.2246  0.3942 -0.5801
 2243TIP3    H130924   7.436   1.407   9.566 -1.1827  0.5036 -0.2743
 2243TIP3    H230925   7.471   1.270   9.511  0.5477  1.2256 -1.0232
 2244TIP3   OH230926   0.956   1.834  11.576  0.0385 -0.0921 -0.0524
 2244TIP3    H130927   0.872   1.876  11.594 -0.0980  0.3793 -1.6695
 2244TIP3    H230928   1.003   1.840  11.660 -0.1990  2.7749 -0.0068
 2245TIP3   OH230929   6.787   0.095  10.149  0.4595  0.0748  0.2840
 2245TIP3    H130930   6.698   0.070  10.175  0.0456  0.7446 -0.4342
 2245TIP3    H230931   6.796   0.184  10.181  0.8613  0.0169  0.3262
 2246TIP3   OH230932   7.168   2.305   8.933  0.4426 -0.7303  0.0168
 2246TIP3    H130933   7.213   2.374   8.982 -1.4234  2.0037 -1.8056
 2246TIP3    H230934   7.238   2.258   8.888  1.7985 -0.1641  1.4300
 2247TIP3   OH230935   6.960   8.995  11.388  0.8011  0.2100  0.0689
 2247TIP3    H130936   6.887   8.937  11.364  1.3735 -0.8656  0.8652
 2247TIP3    H230937   6.920   9.064  11.440  0.1273  0.4732 -0.7775
 2248TIP3   OH230938   1.422   3.980   9.399 -0.0271  0.2358  0.4198
 2248TIP3    H130939   1.338   3.942   9.372 -0.1586  0.8962 -0.1289
 2248TIP3    H230940   1.469   3.996   9.317 -0.9971  3.5791  0.3795
 2249TIP3   OH230941   2.093   0.104  10.388  0.1726 -0.5419  0.2053
 2249TIP3    H130942   2.052   0.030  10.345 -0.2390 -0.4861  0.4921
 2249TIP3    H230943   2.163   0.066  10.442 -0.6415 -0.8274  1.0851
 2250TIP3   OH230944   5.373   0.412   9.471  0.1277  0.2979  0.1146
 2250TIP3    H130945   5.283   0.442   9.487  0.0315 -0.0934  0.3135
 2250TIP3    H230946   5.394   0.448   9.384 -0.4013 -0.0205 -0.1559
 2251TIP3   OH230947   7.148   9.176  10.437 -0.9800 -0.5034 -0.3275
 2251TIP3    H130948   7.219   9.112  10.429  1.0147  1.1688  2.3609
 2251TIP3    H230949   7.179   9.253  10.391 -0.5129  0.5867  1.7004
 2252TIP3   OH230950   1.817   1.419  11.059 -0.4386  0.7011  0.7079
 2252TIP3    H130951   1.862   1.389  11.138  0.1064  1.1571  0.5773
 2252TIP3    H230952   1.822   1.345  10.998 -2.1748 -0.2269  1.5991
 2253TIP3   OH230953   5.613   3.621  10.792 -0.0062  0.4031  0.0922
 2253TIP3    H130954   5.664   3.700  10.772  1.9974 -0.6374  0.8235
 2253TIP3    H230955   5.560   3.606  10.714  0.7357  1.5949 -0.6669
 2254TIP3   OH230956   4.987   3.780  10.442  0.6704  0.1057  0.8641
 2254TIP3    H130957   4.994   3.857  10.385  2.9347  0.5545  1.6652
 2254TIP3    H230958   4.970   3.708  10.381 -2.6832  1.2609  0.1863
 2255TIP3   OH230959   4.635   2.320   9.247 -0.3300 -0.2766  0.0495
 2255TIP3    H130960   4.645   2.224   9.252 -1.3531 -0.4120 -0.3477
 2255TIP3    H230961   4.725   2.352   9.238  0.0181 -1.2072  0.0407
 2256TIP3   OH230962   1.467   4.895   9.971 -0.1632 -0.0806  0.1275
 2256TIP3    H130963   1.421   4.979   9.968 -2.6733 -1.3665 -0.6123
 2256TIP3    H230964   1.467   4.864   9.880  1.1005 -0.6963  0.3180
 2257TIP3   OH230965   6.704   8.849  11.312 -0.2975  0.0649  0.9120
 2257TIP3    H130966   6.619   8.876  11.278 -0.8517 -0.4088  1.8899
 2257TIP3    H230967   6.693   8.756  11.335  1.9970 -1.7755 -3.9150
 2258TIP3   OH230968   9.144   4.593   9.616  0.0360  0.0707  0.5637
 2258TIP3    H130969   9.098   4.672   9.643 -1.8689 -0.7273 -0.1150
 2258TIP3    H230970   9.101   4.522   9.665 -0.8891 -0.9425 -1.5675
 2259TIP3   OH230971   1.828   2.120   9.530 -0.0858 -0.7997 -1.2041
 2259TIP3    H130972   1.873   2.086   9.607 -0.5545 -0.0409 -0.5760
 2259TIP3    H230973   1.861   2.067   9.457  0.5280 -1.3819 -0.5176
 2260TIP3   OH230974   7.219   3.044   9.897 -0.5172 -0.2475  0.6350
 2260TIP3    H130975   7.207   3.139   9.890 -1.3125 -0.3493  0.5387
 2260TIP3    H230976   7.299   3.027   9.847 -0.2275  0.3988  0.8635
 2261TIP3   OH230977   0.941   6.724   9.765  0.0616 -0.3554 -0.3688
 2261TIP3    H130978   0.933   6.757   9.855  0.8995 -0.2234 -0.3356
 2261TIP3    H230979   0.930   6.630   9.774 -1.9271 -0.1699 -0.4081
 2262TIP3   OH230980   5.922   4.211  11.228  0.1791 -0.2877  0.2183
 2262TIP3    H130981   5.904   4.304  11.241 -0.3210 -0.5552  1.6855
 2262TIP3    H230982   6.011   4.199  11.261  0.5311 -0.2008 -0.6825
 2263TIP3   OH230983   0.270   1.903  11.014 -0.9007  0.0632 -0.0843
 2263TIP3    H130984   0.235   1.869  11.096 -0.9831  0.5368  0.0795
 2263TIP3    H230985   0.204   1.965  10.984 -0.3098  0.7939  0.1100
 2264TIP3   OH230986   2.939   6.169  10.979 -0.3240 -0.1961 -0.4735
 2264TIP3    H130987   3.009   6.104  10.979 -0.9888 -0.9331 -0.0414
 2264TIP3    H230988   2.866   6.127  10.934 -0.9117  0.0781  0.2018
 2265TIP3   OH230989   7.762   4.087  10.143 -0.0404 -0.6079  0.3015
 2265TIP3    H130990   7.675   4.125  10.144  0.4477  0.5468  0.0837
 2265TIP3    H230991   7.821   4.162  10.145  1.0827 -1.3104  5.2181
 2266TIP3   OH230992   1.804   0.497  10.460  0.2878  0.0748  0.3013
 2266TIP3    H130993   1.734   0.461  10.514  1.0608 -1.2588  0.4557
 2266TIP3    H230994   1.869   0.427  10.455  0.4310  0.2953 -2.0033
 2267TIP3   OH230995   3.026   7.675  10.236  0.0171  0.6654  0.2920
 2267TIP3    H130996   3.028   7.771  10.240 -0.9857  0.7682 -1.0577
 2267TIP3    H230997   2.988   7.648  10.320  0.2806  1.4452  0.6697
 2268TIP3   OH230998   6.305   0.510  10.776  0.3553 -0.4791 -0.4102
 2268TIP3    H130999   6.382   0.455  10.794 -0.4149 -1.3310  0.4098
 2268TIP3    H231000   6.246   0.453  10.727 -0.6005 -0.5192  0.7430
 2269TIP3   OH231001   6.396   0.437   9.493 -0.7194 -0.0251 -0.3569
 2269TIP3    H131002   6.302   0.442   9.510 -0.5229  1.4127  0.3911
 2269TIP3    H231003   6.407   0.479   9.408 -1.1417 -3.3555 -2.2419
 2270TIP3   OH231004   0.447   3.612   9.947 -0.4528  0.3683 -0.0564
 2270TIP3    H131005   0.528   3.661   9.933  0.6512 -0.6662  2.1511
 2270TIP3    H231006   0.446   3.546   9.877  1.9723 -1.1733  1.2047
 2271TIP3   OH231007   2.453   5.122  10.774  0.4050 -0.1555 -0.0392
 2271TIP3    H131008   2.536   5.168  10.782  0.3489  0.2529 -1.4846
 2271TIP3    H231009   2.476   5.029  10.778  1.1936 -0.1034 -2.1235
 2272TIP3   OH231010   6.742   5.269   9.562  0.4315  0.0193  0.0995
 2272TIP3    H131011   6.720   5.293   9.472  2.2667  1.2242 -0.0767
 2272TIP3    H231012   6.742   5.352   9.609 -1.8782 -0.7406  1.5891
 2273TIP3   OH231013   5.497   0.866  10.891  0.2808 -0.5758 -0.2445
 2273TIP3    H131014   5.586   0.831  10.894  1.0049  1.2226  0.2718
 2273TIP3    H231015   5.501   0.936  10.825 -0.3740  0.4557  0.7702
 2274TIP3   OH231016   0.381   5.534  10.231  0.3941 -0.6003  0.8234
 2274TIP3    H131017   0.421   5.612  10.192 -1.9657 -0.5732 -1.8097
 2274TIP3    H231018   0.396   5.464  10.166 -0.1745 -1.5870  1.7220
 2275TIP3   OH231019   0.575   3.135   9.687  0.1785 -0.1488 -0.1250
 2275TIP3    H131020   0.627   3.213   9.667  1.2383 -0.4514  1.2726
 2275TIP3    H231021   0.500   3.169   9.736  0.6977  0.0106  0.5844
 2276TIP3   OH231022   3.491   6.563  10.344  0.0572 -0.3713  0.4947
 2276TIP3    H131023   3.555   6.633  10.332 -0.1685 -0.2224  0.1529
 2276TIP3    H231024   3.407   6.604  10.323 -0.4376  0.0544  2.9427
 2277TIP3   OH231025   9.080   4.420  10.108 -0.2632  0.1693 -0.3544
 2277TIP3    H131026   9.157   4.473  10.127 -0.5379  0.2795  0.5028
 2277TIP3    H231027   9.039   4.462  10.032 -0.8012  1.5529  0.6592
 2278TIP3   OH231028   6.264   2.070  10.711  0.3038 -0.0553  0.1416
 2278TIP3    H131029   6.281   2.113  10.795  0.6911 -0.4808  0.2863
 2278TIP3    H231030   6.170   2.052  10.712  0.5429 -1.3280  1.0996
 2279TIP3   OH231031   5.765   3.600  11.023 -0.4424  0.2109 -0.1553
 2279TIP3    H131032   5.732   3.678  11.070  2.0582  2.1489 -1.3898
 2279TIP3    H231033   5.735   3.612  10.933 -0.2426 -0.4153 -0.3088
 2280TIP3   OH231034   0.537   1.005  10.360 -0.0686  1.3579 -0.3214
 2280TIP3    H131035   0.552   0.997  10.455 -0.4820 -0.7567 -0.3966
 2280TIP3    H231036   0.443   0.993  10.350 -0.0557  1.7895 -1.0062
 2281TIP3   OH231037   7.078   0.581   9.002 -0.2775 -0.3324 -0.2504
 2281TIP3    H131038   7.067   0.535   9.085 -1.5372  0.8196  0.2434
 2281TIP3    H231039   7.104   0.512   8.941 -1.0008 -1.5088  0.7141
 2282TIP3   OH231040   7.046   4.608  10.490 -0.3389  0.6683 -0.2022
 2282TIP3    H131041   7.141   4.605  10.504  0.1105  1.4919 -2.6418
 2282TIP3    H231042   7.014   4.665  10.560  0.9992  0.5971  0.4988
 2283TIP3   OH231043   3.179   6.096  10.676 -0.4193  0.2541  0.0691
 2283TIP3    H131044   3.088   6.097  10.646 -0.0823 -2.9822 -1.4306
 2283TIP3    H231045   3.175   6.058  10.763 -0.4914  0.2884  0.0807
 2284TIP3   OH231046   2.505   5.439  10.507  0.2124 -0.1040  0.5377
 2284TIP3    H131047   2.483   5.346  10.506  0.6287 -0.2118  1.1279
 2284TIP3    H231048   2.588   5.444  10.554  0.4363  0.5133  0.0976
 2285TIP3   OH231049   8.615   6.397  10.149  0.3111 -0.2185  0.1265
 2285TIP3    H131050   8.617   6.402  10.245  2.1306  0.7312  0.0866
 2285TIP3    H231051   8.571   6.478  10.123 -0.1539 -0.4605  0.1651
 2286TIP3   OH231052   3.507   5.680  10.217 -0.1887  0.0611  0.0560
 2286TIP3    H131053   3.544   5.636  10.293 -1.8490 -1.0094  0.2846
 2286TIP3    H231054   3.529   5.773  10.230  1.5276 -0.3933  0.6446
 2287TIP3   OH231055   3.995   6.937  10.486  0.4133 -0.3039 -0.5023
 2287TIP3    H131056   3.943   7.011  10.517  2.5240  0.7832  0.6993
 2287TIP3    H231057   3.988   6.940  10.391 -2.8636 -1.1631 -0.4216
 2288TIP3   OH231058   3.718   1.485  10.864 -0.1779 -0.7985  0.0058
 2288TIP3    H131059   3.792   1.463  10.806  0.7886 -1.3289  1.3855
 2288TIP3    H231060   3.753   1.552  10.923 -1.8814  1.5666 -1.4973
 2289TIP3   OH231061   1.485   3.912  10.439 -0.3848 -0.4391 -0.4754
 2289TIP3    H131062   1.570   3.877  10.466  0.1094  0.5843 -0.6469
 2289TIP3    H231063   1.506   3.975  10.370 -1.2737 -0.0792 -0.4287
 2290TIP3   OH231064   1.278   4.310  10.215  0.8266  0.2767 -0.0079
 2290TIP3    H131065   1.255   4.233  10.162  0.8160 -0.5696  1.1813
 2290TIP3    H231066   1.232   4.383  10.174 -1.6937 -0.8594  0.6119
 2291TIP3   OH231067   5.502   7.561   9.644 -0.3301  0.2625 -0.4819
 2291TIP3    H131068   5.559   7.546   9.568 -0.8398  0.4157 -0.9041
 2291TIP3    H231069   5.444   7.631   9.616 -0.4959  0.3458  0.0708
 2292TIP3   OH231070   2.511   7.899   9.881 -0.2666 -0.8351 -1.0466
 2292TIP3    H131071   2.541   7.895   9.971  0.0847 -0.5293 -1.1483
 2292TIP3    H231072   2.418   7.920   9.887 -0.0384  0.1490 -0.7744
 2293TIP3   OH231073   4.527   4.395   9.892 -0.5716  0.0764 -0.7648
 2293TIP3    H131074   4.510   4.484   9.925 -0.1400 -1.0361  2.9356
 2293TIP3    H231075   4.587   4.357   9.956 -0.4879 -2.8268 -2.4070
 2294TIP3   OH231076   1.178   2.886   9.541  0.6513  0.0873  0.2331
 2294TIP3    H131077   1.177   2.820   9.610  2.4973 -0.6266 -0.3733
 2294TIP3    H231078   1.270   2.904   9.525  0.2297  1.4402 -0.9246
 2295TIP3   OH231079   4.689   0.008   9.563  0.6058 -0.0732  0.2987
 2295TIP3    H131080   4.773   0.053   9.552  1.0536 -0.7828  0.6798
 2295TIP3    H231081   4.713  -0.076   9.603 -0.0528 -1.1513 -1.4408
 2296TIP3   OH231082   3.399   1.152  10.370  0.0942 -0.2078  0.0711
 2296TIP3    H131083   3.306   1.166  10.354  0.3192  1.0199 -0.2950
 2296TIP3    H231084   3.430   1.106  10.292 -0.3471 -1.3884  0.5638
 2297TIP3   OH231085   0.095   1.372  10.338 -0.2279 -0.8744 -0.1932
 2297TIP3    H131086   0.139   1.304  10.288 -0.0088 -1.4240  0.7119
 2297TIP3    H231087   0.012   1.386  10.293 -0.6167 -2.2956  0.0356
 2298TIP3   OH231088   0.770   4.051   9.944 -0.1600 -0.3938  0.4049
 2298TIP3    H131089   0.854   4.040   9.900 -0.9100  0.4168 -1.3170
 2298TIP3    H231090   0.793   4.070  10.035  1.5430  0.4648 -0.1664
 2299TIP3   OH231091   6.871   1.833  10.065 -0.1424 -0.1032 -0.1473
 2299TIP3    H131092   6.844   1.873  10.148 -0.1080  0.8759 -0.5894
 2299TIP3    H231093   6.880   1.740  10.085 -0.5426  0.0542  0.8431
 2300TIP3   OH231094   8.712   2.937  10.008 -0.2494  0.6681  0.3065
 2300TIP3    H131095   8.692   2.857  10.057 -1.4324  1.9475  2.0319
 2300TIP3    H231096   8.664   2.927   9.926  2.6773 -2.0363 -1.3206
 2301TIP3   OH231097   3.050   5.726  10.810  0.1384  0.7757 -0.0072
 2301TIP3    H131098   3.054   5.646  10.863  2.1339  0.5730 -0.3671
 2301TIP3    H231099   3.128   5.722  10.755  0.7307  3.3646  0.5214
 2302TIP3   OH231100   4.006   8.568   9.569  0.7121  0.1003 -0.0976
 2302TIP3    H131101   4.064   8.564   9.493 -1.3277 -0.4330 -1.7336
 2302TIP3    H231102   4.027   8.652   9.611  1.7041  0.5366 -1.3981
 2303TIP3   OH231103   0.717   8.383  10.359  0.0863 -0.9690 -0.0900
 2303TIP3    H131104   0.700   8.304  10.308 -0.0340 -1.4030  0.6030
 2303TIP3    H231105   0.807   8.372  10.391  0.6994 -0.0094 -1.4080
 2304TIP3   OH231106   5.411   3.250  10.682 -0.9590  0.0165 -0.1902
 2304TIP3    H131107   5.347   3.315  10.712 -0.8016  0.5834 -1.0421
 2304TIP3    H231108   5.381   3.226  10.594 -0.4889 -0.3661 -0.2473
 2305TIP3   OH231109   4.794   2.941  10.494  0.3483 -0.0465 -0.4285
 2305TIP3    H131110   4.717   2.997  10.484  0.1167 -0.5301 -1.5717
 2305TIP3    H231111   4.813   2.941  10.587 -0.2087  1.1846 -0.3036
 2306TIP3   OH231112   7.470   5.802  10.415 -0.0392 -0.0302 -0.5574
 2306TIP3    H131113   7.496   5.881  10.368 -1.2409  0.4024 -0.5392
 2306TIP3    H231114   7.541   5.740  10.400  0.0350  0.4074 -2.2038
 2307TIP3   OH231115   6.926   7.431  11.202  0.1137  0.0365 -0.7208
 2307TIP3    H131116   6.994   7.382  11.155 -0.3770 -0.4894 -0.8953
 2307TIP3    H231117   6.864   7.364  11.231  0.0921  0.4245  0.1533
 2308TIP3   OH231118   6.073   2.807  10.078  0.3343  0.4482  0.1081
 2308TIP3    H131119   6.132   2.769  10.144 -1.3605 -0.7225  1.0159
 2308TIP3    H231120   5.990   2.762  10.092 -0.5487  1.4308 -1.7200
 2309TIP3   OH231121   8.837   0.776  11.168 -0.2743 -0.2449  0.6014
 2309TIP3    H131122   8.885   0.856  11.147 -0.4750 -0.2905 -0.0477
 2309TIP3    H231123   8.827   0.779  11.263 -0.0245  0.3554  0.6143
 2310TIP3   OH231124   2.560   2.872  10.085  0.2977  0.0423  0.2589
 2310TIP3    H131125   2.477   2.825  10.083  0.7314 -0.7141 -0.2833
 2310TIP3    H231126   2.576   2.896   9.994  1.2273 -0.8054  0.1867
 2311TIP3   OH231127   0.136   0.493   9.979  0.3725  0.5997  0.3394
 2311TIP3    H131128   0.136   0.509   9.885 -0.3683 -0.0613  0.2155
 2311TIP3    H231129   0.219   0.448   9.996  0.0164 -0.2795 -0.1833
 2312TIP3   OH231130   4.417   7.407  10.523 -0.0926  0.5355  0.0966
 2312TIP3    H131131   4.323   7.387  10.521  0.2019 -0.8244 -1.2166
 2312TIP3    H231132   4.437   7.436  10.434  0.9159 -0.0598  0.1254
 2313TIP3   OH231133   3.130   1.260  10.365 -0.0327 -0.6596 -0.1560
 2313TIP3    H131134   3.100   1.337  10.415 -3.8246 -0.4224 -2.3606
 2313TIP3    H231135   3.106   1.185  10.420  1.1323 -0.3479  0.8061
 2314TIP3   OH231136   7.325   6.512   9.442  0.3374  0.1423 -0.3160
 2314TIP3    H131137   7.354   6.420   9.446  2.9707  0.9336  0.7301
 2314TIP3    H231138   7.230   6.506   9.431  0.3183 -2.7257  0.4986
 2315TIP3   OH231139   5.536   1.501  10.571 -0.9334  0.6192  0.3955
 2315TIP3    H131140   5.494   1.551  10.501 -0.2031 -0.3229 -0.7539
 2315TIP3    H231141   5.499   1.413  10.563  1.0755 -0.2052 -0.5628
 2316TIP3   OH231142   4.089   2.827  10.746 -0.4312  0.3233 -0.7764
 2316TIP3    H131143   4.130   2.914  10.749  1.6202 -0.6005  0.2822
 2316TIP3    H231144   4.153   2.773  10.699 -1.6931 -0.6164 -1.4554
 2317TIP3   OH231145   8.261   8.194  10.409  0.4401  0.4266  0.3326
 2317TIP3    H131146   8.300   8.265  10.460  2.0161 -1.8348  2.5210
 2317TIP3    H231147   8.331   8.166  10.349 -0.3973  1.0769 -1.0044
 2318TIP3   OH231148   4.843   8.889   9.213 -0.1230 -0.2628  0.1172
 2318TIP3    H131149   4.786   8.853   9.281  0.8910 -0.8277  0.6858
 2318TIP3    H231150   4.808   8.977   9.196 -1.8366 -0.9911 -0.3571
 2319TIP3   OH231151   2.693   1.295  10.261 -0.1158  0.0230 -0.2355
 2319TIP3    H131152   2.634   1.247  10.318  0.2032 -1.3660 -1.0312
 2319TIP3    H231153   2.644   1.305  10.179 -0.4971  1.8288  0.1687
 2320TIP3   OH231154   6.093   1.011  11.051 -0.4223  0.2150  0.4114
 2320TIP3    H131155   6.147   0.944  11.011 -1.8509 -0.5861 -0.2323
 2320TIP3    H231156   6.153   1.083  11.068  0.8113 -0.5950 -0.3893
 2321TIP3   OH231157   7.849   1.890   9.521 -0.0713 -0.0116 -0.3024
 2321TIP3    H131158   7.808   1.835   9.455 -1.1082 -0.0287  0.3255
 2321TIP3    H231159   7.859   1.975   9.479 -2.2675  0.4640 -0.0150
 2322TIP3   OH231160   1.702   3.357  10.706 -0.2399  0.7223  0.2180
 2322TIP3    H131161   1.624   3.302  10.710 -2.2533  3.4110  1.4205
 2322TIP3    H231162   1.690   3.410  10.628  0.6923  0.7451  0.0871
 2323TIP3   OH231163   0.884   6.044  10.211 -0.8364 -0.0801 -0.1698
 2323TIP3    H131164   0.879   5.992  10.131 -2.0575  0.9634 -0.8022
 2323TIP3    H231165   0.973   6.031  10.242 -0.2910 -0.4031 -1.7696
 2324TIP3   OH231166   6.943   5.631  10.722 -0.0486  0.4075 -0.2208
 2324TIP3    H131167   6.883   5.666  10.788 -1.7931 -0.0050 -1.5314
 2324TIP3    H231168   7.011   5.698  10.714  0.4716  0.2916  2.2511
 2325TIP3   OH231169   1.282   4.055  10.548 -0.3896 -0.2850 -0.4184
 2325TIP3    H131170   1.355   4.007  10.509  0.4300  0.5561  0.0359
 2325TIP3    H231171   1.279   4.025  10.639 -1.1984 -0.9796 -0.6651
 2326TIP3   OH231172   8.633   6.872  10.301  0.4574  0.6444  0.4297
 2326TIP3    H131173   8.607   6.947  10.354  2.1694  0.6245  1.3873
 2326TIP3    H231174   8.688   6.910  10.232  0.7724  0.3612  0.5209
 2327TIP3   OH231175   7.383   3.641   9.898  0.1210 -0.1224  0.5473
 2327TIP3    H131176   7.296   3.649   9.857 -0.8267 -1.5483  2.1420
 2327TIP3    H231177   7.433   3.586   9.838  0.1248  1.0950 -0.6217
 2328TIP3   OH231178   7.015   3.698  11.260  0.3883  0.4655 -0.3466
 2328TIP3    H131179   6.983   3.659  11.179  1.1892 -0.0556 -0.4218
 2328TIP3    H231180   7.106   3.720  11.242  0.4062  0.8794  0.2258
 2329TIP3   OH231181   8.502   3.875   9.426 -0.0360  0.7562  1.0045
 2329TIP3    H131182   8.411   3.878   9.455 -0.2321 -0.0291  0.5043
 2329TIP3    H231183   8.522   3.782   9.420  0.4291  0.9060 -0.0259
 2330TIP3   OH231184   4.322   5.004  10.591 -0.1899  0.1471 -0.3110
 2330TIP3    H131185   4.382   5.078  10.603  0.7767 -0.8716  1.7780
 2330TIP3    H231186   4.250   5.022  10.651 -0.3458 -0.2082 -0.3925
 2331TIP3   OH231187   4.400   2.429  10.710  0.4973  0.6416  0.5959
 2331TIP3    H131188   4.473   2.440  10.648  0.9012 -0.0249  0.9494
 2331TIP3    H231189   4.389   2.334  10.717 -0.2332  0.7355  0.7530
 2332TIP3   OH231190   5.296   8.773  11.234  0.1796  0.2414  0.2953
 2332TIP3    H131191   5.210   8.790  11.270 -1.3047 -1.9288 -1.9009
 2332TIP3    H231192   5.303   8.833  11.159 -0.5580 -1.2446 -1.0231
 2333TIP3   OH231193   4.787   4.896   9.770 -0.0669  0.1070  0.1758
 2333TIP3    H131194   4.720   4.965   9.766  0.0073  0.1140 -2.3145
 2333TIP3    H231195   4.863   4.939   9.810  1.2310  2.7643 -4.3972
 2334TIP3   OH231196   7.355   1.697  11.362 -0.0285  0.1926 -0.5934
 2334TIP3    H131197   7.302   1.661  11.433 -0.3312  0.0905 -0.8719
 2334TIP3    H231198   7.313   1.666  11.282  1.3733 -1.2420 -0.8195
 2335TIP3   OH231199   7.634   1.812  10.190 -1.1247  0.5189  0.5401
 2335TIP3    H131200   7.555   1.860  10.165  0.5934  3.9756  1.1493
 2335TIP3    H231201   7.662   1.852  10.272  1.8478  0.2716 -0.2357
 2336TIP3   OH231202   7.385   8.141  10.416  0.7077  0.9148 -0.5131
 2336TIP3    H131203   7.440   8.070  10.382 -2.3822 -1.4521 -0.9704
 2336TIP3    H231204   7.371   8.198  10.340  1.1199  0.6101 -0.8296
 2337TIP3   OH231205   7.405   1.591  10.174 -0.7465 -0.6024 -0.1184
 2337TIP3    H131206   7.461   1.636  10.110 -0.4578 -1.5197 -0.5266
 2337TIP3    H231207   7.461   1.581  10.252 -1.9974  3.2210  1.5116
 2338TIP3   OH231208   8.694   5.535  10.720  0.3411  0.5156  0.0614
 2338TIP3    H131209   8.772   5.553  10.668  0.1932  0.7936 -0.0698
 2338TIP3    H231210   8.621   5.555  10.661  0.1636 -0.3703 -0.0387
 2339TIP3   OH231211   0.226   1.728   9.836  0.0229 -0.3034  0.5034
 2339TIP3    H131212   0.316   1.760   9.843  0.5114 -1.8505  2.1352
 2339TIP3    H231213   0.173   1.807   9.830  1.5109  0.6300 -1.1952
 2340TIP3   OH231214   0.462   1.091  10.986  0.5499 -0.1452  0.0145
 2340TIP3    H131215   0.405   1.159  11.022  1.3603 -0.6646  2.4325
 2340TIP3    H231216   0.525   1.139  10.932 -1.2540  0.5636 -1.6309
 2341TIP3   OH231217   2.019   8.879  10.784  0.5323  0.1463 -0.4952
 2341TIP3    H131218   1.932   8.876  10.824 -0.7247  1.0398 -2.9433
 2341TIP3    H231219   2.020   8.961  10.735  2.8432  0.2287 -0.4266
 2342TIP3   OH231220   8.709   6.682   9.957  0.3262  0.1937  0.3830
 2342TIP3    H131221   8.717   6.772   9.925 -2.0953  0.6432  0.8197
 2342TIP3    H231222   8.620   6.677   9.992  0.0779 -2.6245 -0.4081
 2343TIP3   OH231223   8.000   1.847  10.493 -0.1719 -0.0769 -0.2692
 2343TIP3    H131224   8.041   1.763  10.474  2.3160  0.8747  0.4991
 2343TIP3    H231225   7.980   1.842  10.587  0.3731  0.3041 -0.1244
 2344TIP3   OH231226   6.546   6.618   9.937  0.4380  0.4639  0.8737
 2344TIP3    H131227   6.586   6.535   9.912  0.1870  0.0136  1.9478
 2344TIP3    H231228   6.560   6.625  10.031 -1.4008  0.6172  1.1729
 2345TIP3   OH231229   7.134   2.927  10.670 -0.0988 -0.3433 -0.5317
 2345TIP3    H131230   7.044   2.896  10.683 -0.6253  1.3694  0.1685
 2345TIP3    H231231   7.126   2.998  10.607  0.7892 -0.2076 -0.4994
 2346TIP3   OH231232   4.495   5.206  10.747  0.2210  0.5159 -0.2249
 2346TIP3    H131233   4.490   5.269  10.675 -1.1493  1.6417  0.8179
 2346TIP3    H231234   4.467   5.254  10.824  1.3403 -0.7581  1.0485
 2347TIP3   OH231235   1.713   7.108  10.591 -0.2771 -0.2663  0.6561
 2347TIP3    H131236   1.622   7.083  10.604 -0.3417  0.6399  2.2239
 2347TIP3    H231237   1.735   7.162  10.668  0.7727  1.7816 -0.9484
 2348TIP3   OH231238   5.754   8.567  10.747 -0.5249  0.3537 -0.0451
 2348TIP3    H131239   5.672   8.531  10.713 -1.8663  2.3917  0.8486
 2348TIP3    H231240   5.727   8.628  10.816  1.7071  1.6040 -0.1855
 2349TIP3   OH231241   0.199   1.981  10.489  0.6079  0.0524  0.0576
 2349TIP3    H131242   0.201   2.068  10.530 -0.8595 -0.4099  1.1951
 2349TIP3    H231243   0.256   1.990  10.412  0.2618  2.0973 -0.0244
 2350TIP3   OH231244   0.812   4.080  10.228  0.6997 -0.4824 -0.4701
 2350TIP3    H131245   0.724   4.070  10.264  0.1655  0.2748 -1.4982
 2350TIP3    H231246   0.863   4.010  10.269 -0.4492 -1.1259 -0.0837
 2351TIP3   OH231247   0.419   0.524  10.933 -0.3852  0.3813 -0.1273
 2351TIP3    H131248   0.383   0.436  10.926 -0.0409  0.2967 -1.0240
 2351TIP3    H231249   0.508   0.511  10.968 -0.5930  0.4432  0.4373
 2352TIP3   OH231250   6.482   8.299  10.234  0.1641  0.1862 -0.1396
 2352TIP3    H131251   6.419   8.310  10.163 -0.8672 -1.2704  0.5008
 2352TIP3    H231252   6.481   8.205  10.253 -0.9629  0.7064  2.9972
 2353TIP3   OH231253   8.866   2.531  11.039  0.3238  0.5862  0.5461
 2353TIP3    H131254   8.846   2.437  11.038  0.2158  0.5647 -1.7502
 2353TIP3    H231255   8.781   2.574  11.045  0.3574  0.5437  1.3684
 2354TIP3   OH231256   4.083   2.300  11.107 -0.0507  0.1109 -0.3439
 2354TIP3    H131257   4.018   2.238  11.140 -1.2310  0.6907 -1.4671
 2354TIP3    H231258   4.081   2.289  11.012  2.9879 -1.2670 -0.3667
 2355TIP3   OH231259   3.496   1.504  10.289  0.1474 -0.0478 -0.4890
 2355TIP3    H131260   3.451   1.441  10.233 -1.5900  1.0101 -0.3587
 2355TIP3    H231261   3.438   1.515  10.365  1.7403 -0.3292  0.8197
 2356TIP3   OH231262   1.349   5.823   9.687  0.4353 -0.5556 -0.0340
 2356TIP3    H131263   1.403   5.881   9.633  0.2988 -0.5684 -0.1841
 2356TIP3    H231264   1.268   5.871   9.700  1.1116  0.2220  1.6514
 2357TIP3   OH231265   7.172   2.269  10.227 -0.0261  0.3239 -0.6653
 2357TIP3    H131266   7.177   2.361  10.255  0.7532 -0.1938  0.9740
 2357TIP3    H231267   7.263   2.242  10.219 -0.1363 -1.2768  2.2970
 2358TIP3   OH231268   1.814   7.217   9.697 -0.0246 -0.8201  0.4666
 2358TIP3    H131269   1.897   7.177   9.723  0.1212 -0.5252  0.4622
 2358TIP3    H231270   1.838   7.280   9.629 -0.5577 -2.5792 -1.4532
 2359TIP3   OH231271   4.814   3.826   9.913 -0.2799 -0.3465 -0.1276
 2359TIP3    H131272   4.790   3.735   9.897  0.0515 -0.7396  1.4269
 2359TIP3    H231273   4.898   3.821   9.959 -0.7161  0.6803  0.8448
 2360TIP3   OH231274   0.653   5.924  10.476 -0.1020 -0.2030  0.5743
 2360TIP3    H131275   0.744   5.927  10.504 -0.7295 -1.4685  3.0135
 2360TIP3    H231276   0.610   5.993  10.528 -0.9396 -1.2617  1.3419
 2361TIP3   OH231277   7.930   1.876  10.224  0.2942  0.0639  0.3164
 2361TIP3    H131278   7.943   1.884  10.318  0.3607  0.3277  0.2848
 2361TIP3    H231279   8.002   1.925  10.185  0.5124 -0.3965  0.1224
 2362TIP3   OH231280   5.895   2.174   9.365  0.3401  0.0133 -0.0407
 2362TIP3    H131281   5.976   2.224   9.365  1.1041 -1.1855  0.6199
 2362TIP3    H231282   5.896   2.126   9.282  0.3962 -0.1630  0.0633
 2363TIP3   OH231283   5.765   0.379   9.714 -0.0223  0.0824 -0.2182
 2363TIP3    H131284   5.698   0.321   9.678 -1.1278  1.1816  0.0097
 2363TIP3    H231285   5.782   0.442   9.645  1.6546 -0.8541 -0.7125
 2364TIP3   OH231286   0.817   6.405  10.496 -1.1917 -0.1494  0.6120
 2364TIP3    H131287   0.846   6.323  10.457 -0.8879 -0.3190  1.1831
 2364TIP3    H231288   0.899   6.451  10.518 -1.3078  1.2194 -1.5502
 2365TIP3   OH231289   9.122   3.636  11.198 -0.1876  0.0990  0.0945
 2365TIP3    H131290   9.182   3.710  11.187 -1.1547  0.8642 -0.1444
 2365TIP3    H231291   9.070   3.659  11.276  1.5797 -1.7935  1.9699
 2366TIP3   OH231292   7.597   0.326  10.377  0.0379  0.2417  0.0921
 2366TIP3    H131293   7.622   0.269  10.304  1.1955 -0.0805  0.7177
 2366TIP3    H231294   7.617   0.414  10.346 -0.8039  0.2357 -0.4987
 2367TIP3   OH231295   6.075   3.006  10.504 -0.3401 -0.1863  0.2396
 2367TIP3    H131296   6.104   3.052  10.425 -2.1386  0.0117 -0.3317
 2367TIP3    H231297   6.119   2.921  10.500 -1.2155 -0.6061 -1.5593
 2368TIP3   OH231298   5.209   2.174   9.583  0.2228 -0.0150 -0.3680
 2368TIP3    H131299   5.125   2.133   9.604  0.6082 -0.3833  0.5010
 2368TIP3    H231300   5.186   2.264   9.558 -0.3274  0.2904  1.1450
 2369TIP3   OH231301   1.620   6.616  10.674 -0.3442 -0.3811  0.0679
 2369TIP3    H131302   1.579   6.677  10.613 -1.4179 -1.2581 -0.1077
 2369TIP3    H231303   1.701   6.589  10.630  0.2975  1.0955  0.2693
 2370TIP3   OH231304   4.484   2.971  11.206 -0.4269  0.0495  0.1266
 2370TIP3    H131305   4.555   2.918  11.242  0.1049  0.1490 -0.7657
 2370TIP3    H231306   4.483   3.050  11.260 -0.0054 -0.0514  0.2816
 2371TIP3   OH231307   5.868   4.562  10.810 -0.1675 -0.2436 -0.8777
 2371TIP3    H131308   5.835   4.519  10.888  0.8238 -0.2432 -0.4386
 2371TIP3    H231309   5.846   4.503  10.738  0.5320 -1.1455 -0.3714
 2372TIP3   OH231310   2.823   2.799  11.044 -0.4784 -0.0315  0.6519
 2372TIP3    H131311   2.875   2.794  11.124 -1.0663 -0.6455  0.9999
 2372TIP3    H231312   2.757   2.730  11.053 -0.1722 -0.5129 -0.6365
 2373TIP3   OH231313   6.220   4.498  11.180 -0.3197 -0.2917  0.6568
 2373TIP3    H131314   6.292   4.435  11.191 -1.0617 -1.4218 -0.6995
 2373TIP3    H231315   6.264   4.583  11.173  0.9250 -0.9794 -0.3525
 2374TIP3   OH231316   0.116   6.026  10.527 -0.1498 -0.2227 -0.1419
 2374TIP3    H131317   0.164   6.095  10.572 -1.5768 -0.7699  2.4586
 2374TIP3    H231318   0.182   5.959  10.509  0.8687  0.9404 -0.9093
 2375TIP3   OH231319   4.497   7.291  11.124 -0.0454  0.3854  0.7480
 2375TIP3    H131320   4.427   7.334  11.075 -0.1406 -0.1588  0.3902
 2375TIP3    H231321   4.573   7.346  11.109  0.4693 -0.8327 -1.8140
 2376TIP3   OH231322   3.882   0.468   9.837  1.0231  0.0541 -0.2417
 2376TIP3    H131323   3.839   0.517   9.767  2.3074  0.3314 -0.8693
 2376TIP3    H231324   3.830   0.389   9.847  0.2461  0.4773 -0.8112
 2377TIP3   OH231325   4.682   5.952  11.406  0.1902 -0.0781  0.1052
 2377TIP3    H131326   4.660   6.044  11.421  1.9161  0.2474  0.9530
 2377TIP3    H231327   4.668   5.910  11.491  2.0484  0.0209  0.5055
 2378TIP3   OH231328   6.067   2.319   9.679  0.7030  0.4226 -0.0733
 2378TIP3    H131329   6.148   2.269   9.674  0.0348 -0.5976 -2.8741
 2378TIP3    H231330   6.079   2.390   9.616 -0.3396  0.6188 -0.0758
 2379TIP3   OH231331   3.650   5.481   9.441  0.7869  0.0274 -0.0031
 2379TIP3    H131332   3.637   5.513   9.530  0.4146  0.1962 -0.1159
 2379TIP3    H231333   3.583   5.414   9.429  1.0049 -0.1793 -0.0671
 2380TIP3   OH231334   8.192   0.959   8.859  0.2816 -0.3342 -0.3806
 2380TIP3    H131335   8.253   0.901   8.904 -0.4289 -0.2230  0.7448
 2380TIP3    H231336   8.221   0.958   8.767  2.4561  0.3179  0.2435
 2381TIP3   OH231337   0.196   4.873  11.258  0.0901 -0.5029  0.6060
 2381TIP3    H131338   0.237   4.857  11.173 -0.1925 -0.6423  0.4984
 2381TIP3    H231339   0.213   4.794  11.308  0.0849 -0.4983  0.6151
 2382TIP3   OH231340   8.036   3.876  10.769  0.0006  0.3206  0.2706
 2382TIP3    H131341   8.089   3.797  10.779 -0.5693  0.0760  1.5792
 2382TIP3    H231342   8.094   3.948  10.796 -0.2880  0.0575  1.6675
 2383TIP3   OH231343   3.165   3.728   9.461  0.5188 -0.6743 -0.0825
 2383TIP3    H131344   3.196   3.662   9.523  1.3717 -0.0864  0.1493
 2383TIP3    H231345   3.076   3.748   9.490  0.6010 -1.0209  0.4346
 2384TIP3   OH231346   6.794   7.234  10.745  0.6564  0.0679 -0.0742
 2384TIP3    H131347   6.846   7.311  10.769 -0.0752  0.5785 -0.0752
 2384TIP3    H231348   6.790   7.238  10.649  0.0239  0.4379 -0.0366
 2385TIP3   OH231349   7.776   2.587  11.268 -0.3100  0.2944 -0.0903
 2385TIP3    H131350   7.704   2.591  11.330 -1.8906  0.6577 -1.8380
 2385TIP3    H231351   7.739   2.622  11.187  1.7030  0.0185 -1.1873
 2386TIP3   OH231352   4.469   7.509  10.274 -0.1624 -0.0028 -0.6835
 2386TIP3    H131353   4.434   7.596  10.258 -0.2548  0.0040 -0.4538
 2386TIP3    H231354   4.414   7.451  10.221 -0.9714 -0.0681  0.1999
 2387TIP3   OH231355   7.597   0.010   9.947 -0.3242 -0.3193 -0.3293
 2387TIP3    H131356   7.615  -0.083   9.958  1.6643 -0.1079 -1.2996
 2387TIP3    H231357   7.505   0.014   9.921 -0.1840 -2.0937 -1.2362
 2388TIP3   OH231358   4.494   5.648   9.383  0.0209 -0.0004 -0.1568
 2388TIP3    H131359   4.469   5.590   9.311  2.0564 -0.9254 -0.1933
 2388TIP3    H231360   4.413   5.696   9.404 -1.3411 -1.7159 -1.1599
 2389TIP3   OH231361   8.687   0.616  10.244  0.5588 -0.3589 -0.4242
 2389TIP3    H131362   8.595   0.589  10.250  0.3303  0.2768 -0.8634
 2389TIP3    H231363   8.737   0.542  10.279 -0.1144 -0.7515 -0.2755
 2390TIP3   OH231364   8.914   7.262  10.277  0.0980 -0.6085 -0.5701
 2390TIP3    H131365   8.911   7.347  10.320  1.8688 -0.7066 -0.1759
 2390TIP3    H231366   8.890   7.199  10.345  0.5606 -0.5670 -0.3662
 2391TIP3   OH231367   9.028   5.193  10.571  0.5937 -0.3109  0.1429
 2391TIP3    H131368   9.109   5.168  10.616  0.3281  0.4319  1.0720
 2391TIP3    H231369   9.049   5.276  10.529  0.3936 -0.2355  0.1895
 2392TIP3   OH231370   6.505   2.591   9.433  0.0926  0.2068  0.0632
 2392TIP3    H131371   6.509   2.686   9.435 -1.1375  0.2676  0.9558
 2392TIP3    H231372   6.479   2.566   9.522 -0.3322 -0.9089 -0.3550
 2393TIP3   OH231373   7.407   3.301   9.925  0.0432  0.2288  0.2665
 2393TIP3    H131374   7.432   3.313   9.833 -0.0166 -1.9219 -0.0994
 2393TIP3    H231375   7.321   3.343   9.933 -0.3114 -0.2477 -0.8862
 2394TIP3   OH231376   5.255   6.243  10.992  0.1909 -0.3589  0.4920
 2394TIP3    H131377   5.273   6.315  11.052  0.4248  0.6504 -0.7506
 2394TIP3    H231378   5.179   6.272  10.941  1.2470 -0.2514 -1.1185
 2395TIP3   OH231379   0.265   0.165  10.562  0.0142 -0.1499 -0.1815
 2395TIP3    H131380   0.356   0.172  10.535 -0.2555  0.3057 -1.0131
 2395TIP3    H231381   0.220   0.233  10.511 -0.4233  1.2274  1.8854
 2396TIP3   OH231382   1.927   9.095  10.320  0.0925  0.6028 -0.0602
 2396TIP3    H131383   1.932   9.010  10.276  0.9464  0.2514  0.6869
 2396TIP3    H231384   1.840   9.129  10.298 -0.9069 -1.1813  0.9281
 2397TIP3   OH231385   6.969   8.008   9.120 -0.5520  0.5979  0.0189
 2397TIP3    H131386   6.949   7.995   9.213  0.3930  1.0623  0.3021
 2397TIP3    H231387   6.885   8.027   9.079 -1.1416 -0.6785  0.5871
 2398TIP3   OH231388   3.514   2.338   9.975 -0.3072  0.6999 -0.5455
 2398TIP3    H131389   3.540   2.287   9.898 -2.3569 -0.8983 -0.2637
 2398TIP3    H231390   3.578   2.315  10.042  0.4946  0.7923 -1.2539
 2399TIP3   OH231391   1.575   1.497  11.027  0.1249 -0.2203 -0.1593
 2399TIP3    H131392   1.524   1.471  11.104  1.8526  1.7369  1.8157
 2399TIP3    H231393   1.664   1.470  11.047  0.8483  1.5163 -0.8002
 2400TIP3   OH231394   7.865   4.895   9.230 -0.4758 -0.3948 -0.3134
 2400TIP3    H131395   7.856   4.984   9.264 -1.9764 -0.5655 -0.1973
 2400TIP3    H231396   7.805   4.891   9.156 -2.3179 -1.9936  1.1756
 2401TIP3   OH231397   5.906   0.385  10.720  0.7500 -0.2473  0.6819
 2401TIP3    H131398   5.944   0.399  10.807 -2.2596  1.3344  1.8693
 2401TIP3    H231399   5.812   0.391  10.733  0.1743  2.4782 -3.0502
 2402TIP3   OH231400   3.411   3.200   9.395  0.5177 -0.7413 -1.1284
 2402TIP3    H131401   3.330   3.250   9.385  0.6053  0.1187  1.5723
 2402TIP3    H231402   3.476   3.264   9.422  1.0921 -1.9786  0.6296
 2403TIP3   OH231403   2.941   8.637  10.669  0.1865 -0.5090  0.0693
 2403TIP3    H131404   2.989   8.720  10.666 -0.5430  0.0825  2.2611
 2403TIP3    H231405   3.009   8.570  10.670  0.8859  0.1832  0.4072
 2404TIP3   OH231406   7.379   5.445  10.641 -0.0290 -0.0306  0.2368
 2404TIP3    H131407   7.436   5.422  10.568  0.8414 -2.7196  1.6043
 2404TIP3    H231408   7.423   5.518  10.684  0.2343  0.5759 -1.0381
 2405TIP3   OH231409   4.950   3.995  10.280 -0.0138  0.7103  0.3618
 2405TIP3    H131410   4.944   4.033  10.193  0.2562  0.7704  0.3683
 2405TIP3    H231411   4.920   4.064  10.339 -1.1403  0.3402  0.2441
 2406TIP3   OH231412   2.885   7.210  10.500 -0.4785  0.0143 -0.4252
 2406TIP3    H131413   2.934   7.217  10.582 -1.8745  1.6360  0.3262
 2406TIP3    H231414   2.931   7.268  10.439 -2.0788  2.6256  0.6714
 2407TIP3   OH231415   5.679   0.526  10.897  0.0421  0.3768 -0.4133
 2407TIP3    H131416   5.765   0.565  10.913  0.8340 -0.3609 -2.5195
 2407TIP3    H231417   5.680   0.443  10.944  0.7955  0.0099 -1.0698
 2408TIP3   OH231418   3.182   7.285  11.026 -0.5890  0.5515 -0.1437
 2408TIP3    H131419   3.186   7.247  11.114  0.3640 -0.1294 -0.4646
 2408TIP3    H231420   3.092   7.271  10.998 -0.7816  0.3715  0.5485
 2409TIP3   OH231421   1.913   7.785  10.638 -0.1355 -0.7164 -0.5493
 2409TIP3    H131422   1.922   7.799  10.543  0.6918 -1.7902 -0.6450
 2409TIP3    H231423   2.003   7.773  10.668 -0.4687 -1.2381  0.2474
 2410TIP3   OH231424   0.727   5.081  10.313 -0.2421  0.0307 -0.1369
 2410TIP3    H131425   0.694   5.079  10.223 -0.3086  3.0539 -0.2866
 2410TIP3    H231426   0.770   4.996  10.324 -3.3353 -1.9706 -1.7204
 2411TIP3   OH231427   3.863   1.741  10.090 -0.0713  0.1265  0.1748
 2411TIP3    H131428   3.883   1.798  10.164 -0.0131 -0.9945  1.0450
 2411TIP3    H231429   3.770   1.720  10.100  0.0714 -0.4829  0.2632
 2412TIP3   OH231430   0.838   7.447   9.468 -0.2089  0.5425  0.0958
 2412TIP3    H131431   0.787   7.522   9.498 -1.1702  0.2705 -0.7638
 2412TIP3    H231432   0.811   7.435   9.377 -2.0067 -2.3699  0.8836
 2413TIP3   OH231433   8.335   7.957  10.825  0.5273  0.4552 -0.1278
 2413TIP3    H131434   8.308   7.879  10.776 -0.4389 -0.0471  1.1357
 2413TIP3    H231435   8.345   7.925  10.915  0.9819  1.6162  0.2433
 2414TIP3   OH231436   8.889   4.002   9.926 -0.1666 -0.3553  0.3201
 2414TIP3    H131437   8.811   4.020   9.873  1.1655  1.7084 -1.0954
 2414TIP3    H231438   8.885   4.067   9.997 -0.5420 -1.3350  1.2244
 2415TIP3   OH231439   3.802   7.116  10.543 -0.3597  0.5047  0.3874
 2415TIP3    H131440   3.758   7.181  10.598 -0.1659  2.2300 -1.3820
 2415TIP3    H231441   3.780   7.142  10.453  1.6963 -0.4293 -0.4539
 2416TIP3   OH231442   6.537   0.555   9.685 -0.2319  0.4961  0.4280
 2416TIP3    H131443   6.450   0.549   9.645  0.5167  1.7846 -1.5327
 2416TIP3    H231444   6.588   0.487   9.641  0.5934  1.9152 -0.9121
 2417TIP3   OH231445   3.817   2.837  10.791 -0.3046  0.1663  0.1447
 2417TIP3    H131446   3.902   2.807  10.762 -0.4812 -0.2221  0.0236
 2417TIP3    H231447   3.766   2.847  10.711  0.0262  1.6999  0.0795
 2418TIP3   OH231448   5.557   6.746  11.123  0.6496  0.5079 -0.5844
 2418TIP3    H131449   5.618   6.813  11.092 -0.3967  1.0888 -1.4891
 2418TIP3    H231450   5.515   6.714  11.043  0.3904 -0.4939 -0.0574
 2419TIP3   OH231451   0.012   1.768  10.512  0.3445  0.3248 -0.2187
 2419TIP3    H131452   0.081   1.830  10.485  0.3590  0.6945  0.6295
 2419TIP3    H231453  -0.068   1.820  10.512  0.5558  0.6949  1.7263
 2420TIP3   OH231454   4.790   7.370   9.543  0.1212  0.6430 -0.1658
 2420TIP3    H131455   4.715   7.430   9.538 -1.0249 -0.5609  1.5749
 2420TIP3    H231456   4.751   7.283   9.548  1.6910 -0.0975 -0.3010
 2421TIP3   OH231457   6.956   8.217   9.866 -0.2632 -0.0208 -0.0449
 2421TIP3    H131458   7.049   8.220   9.845 -0.2941 -0.1217 -0.1941
 2421TIP3    H231459   6.924   8.306   9.848 -0.0356  0.2306  0.7438
 2422TIP3   OH231460   8.997   8.214   9.617  0.2534 -0.1953  0.9774
 2422TIP3    H131461   8.908   8.188   9.593  0.2601  0.1478  0.5595
 2422TIP3    H231462   9.047   8.209   9.535  0.6801 -0.6361  1.2638
 2423TIP3   OH231463   1.486   3.081  10.101 -0.7417  0.2179 -0.4084
 2423TIP3    H131464   1.551   3.017  10.070 -1.1424 -0.0757 -0.6479
 2423TIP3    H231465   1.538   3.157  10.125 -0.1863 -0.4338  0.5145
 2424TIP3   OH231466   5.725   3.367  10.508  0.0805 -0.0555 -0.0531
 2424TIP3    H131467   5.653   3.373  10.571 -0.6695  1.5416 -0.9804
 2424TIP3    H231468   5.769   3.284  10.529 -1.0763 -0.3179  1.5367
 2425TIP3   OH231469   3.418   7.694  10.087  0.7040 -0.0110  0.3547
 2425TIP3    H131470   3.412   7.669   9.994 -1.0267  1.6108 -0.0478
 2425TIP3    H231471   3.426   7.790  10.085 -0.4869  0.1540  1.8757
 2426TIP3   OH231472   0.736   4.819  10.996 -0.1001 -0.2322 -0.1662
 2426TIP3    H131473   0.698   4.750  11.051 -0.1291  0.5759  0.8419
 2426TIP3    H231474   0.799   4.772  10.940 -1.2093 -1.2945 -0.5553
 2427TIP3   OH231475   6.616   4.826   9.622 -0.2306  0.3014 -0.6433
 2427TIP3    H131476   6.687   4.774   9.660 -0.8159  0.0968  0.1889
 2427TIP3    H231477   6.649   4.851   9.536  0.2972 -0.9789 -0.8487
 2428TIP3   OH231478   5.436   7.544  10.847 -0.5694 -0.3027 -0.2676
 2428TIP3    H131479   5.346   7.552  10.815 -0.8062 -0.6041  0.3024
 2428TIP3    H231480   5.430   7.557  10.941  0.5802  4.0513 -0.5861
 2429TIP3   OH231481   8.584   1.208   9.629  0.1671  0.2101  0.1482
 2429TIP3    H131482   8.540   1.257   9.559 -0.0324 -1.5728 -1.0532
 2429TIP3    H231483   8.538   1.233   9.709 -0.5458  1.2235 -0.5573
 2430TIP3   OH231484   5.689   8.319  10.389  0.0093  0.4045 -0.6644
 2430TIP3    H131485   5.764   8.259  10.394 -0.9886 -0.9193 -1.1069
 2430TIP3    H231486   5.729   8.406  10.389  1.4669 -0.2042  0.8365
 2431TIP3   OH231487   5.425   1.458  10.890 -0.5574  0.6403 -0.1562
 2431TIP3    H131488   5.395   1.452  10.799  0.4780 -3.5975 -0.3953
 2431TIP3    H231489   5.358   1.413  10.940  0.3862  0.2093  0.7492
 2432TIP3   OH231490   5.124   3.117  10.156 -0.2105  0.5849 -0.2299
 2432TIP3    H131491   5.050   3.169  10.123 -1.3152  0.3713  1.7306
 2432TIP3    H231492   5.082   3.050  10.211  1.2653 -1.4861 -1.4838
 2433TIP3   OH231493   3.238   5.183  10.419  0.4041 -0.2387  0.0280
 2433TIP3    H131494   3.230   5.230  10.502 -0.0593  0.7313 -0.5509
 2433TIP3    H231495   3.226   5.091  10.443 -0.9751  0.1255  0.8720
 2434TIP3   OH231496   8.139   6.701  10.793 -0.0680 -0.1018 -0.0893
 2434TIP3    H131497   8.089   6.748  10.726 -1.7139 -1.2201  0.2911
 2434TIP3    H231498   8.112   6.742  10.876  0.0388 -0.3708  0.0774
 2435TIP3   OH231499   6.647   0.184   9.517  0.3264 -0.2343 -0.3657
 2435TIP3    H131500   6.733   0.227   9.515 -0.5399  1.6407  0.3766
 2435TIP3    H231501   6.632   0.157   9.426  2.0878 -1.4452 -0.3332
 2436TIP3   OH231502   2.404   0.663   9.841  0.1300 -0.3386 -0.6299
 2436TIP3    H131503   2.417   0.729   9.909 -0.8512  1.8304 -2.4111
 2436TIP3    H231504   2.414   0.580   9.886  0.6522  0.9991  1.9091
 2437TIP3   OH231505   4.731   2.452   9.763 -0.4240 -0.2007  0.1426
 2437TIP3    H131506   4.817   2.481   9.730 -0.6341  0.9512  0.5567
 2437TIP3    H231507   4.668   2.497   9.708 -0.7768 -1.2291 -0.3092
 2438TIP3   OH231508   5.966   3.709  10.112  0.0100  0.1304  0.1178
 2438TIP3    H131509   5.990   3.801  10.099 -1.3919  0.7502  1.6185
 2438TIP3    H231510   6.048   3.661  10.096  0.7617  1.6067 -0.7575
 2439TIP3   OH231511   8.492   6.658  10.179  0.0391 -0.2282  0.2583
 2439TIP3    H131512   8.413   6.635  10.228 -1.6307  1.5920 -1.3666
 2439TIP3    H231513   8.523   6.738  10.222  1.4649 -1.3037  1.3130
 2440TIP3   OH231514   0.813   2.551  11.368  0.1226  0.2047 -0.2147
 2440TIP3    H131515   0.854   2.633  11.342 -1.2344  0.8298 -0.4992
 2440TIP3    H231516   0.721   2.574  11.382 -0.1798 -1.1647  0.2022
 2441TIP3   OH231517   6.963   3.700   8.986  0.0530  0.2342 -0.4417
 2441TIP3    H131518   7.005   3.668   9.066 -1.7491 -0.3460  0.3324
 2441TIP3    H231519   6.949   3.793   9.002 -0.9675 -0.0173  0.2849
 2442TIP3   OH231520   1.140   3.764  10.872  0.0967 -0.4817  0.5742
 2442TIP3    H131521   1.182   3.720  10.799  1.7102 -0.9449  1.7316
 2442TIP3    H231522   1.049   3.775  10.845  0.9461  0.6684 -2.0742
 2443TIP3   OH231523   2.151   8.344   9.590  0.1666  0.0713  0.2797
 2443TIP3    H131524   2.152   8.275   9.657 -0.3409 -0.9936 -0.7777
 2443TIP3    H231525   2.124   8.423   9.638 -0.0224 -0.6262  1.3593
 2444TIP3   OH231526   2.877   3.819  10.802 -0.6090 -0.4759 -0.6181
 2444TIP3    H131527   2.908   3.821  10.711  0.2127 -0.5165 -0.3465
 2444TIP3    H231528   2.783   3.806  10.795 -0.4624 -1.1777 -1.4638
 2445TIP3   OH231529   5.315   7.991   9.952  0.3135  0.4486 -0.7158
 2445TIP3    H131530   5.281   8.080   9.942 -1.8358 -0.1608  0.4191
 2445TIP3    H231531   5.303   7.971  10.045 -1.9233 -1.9583 -1.3928
 2446TIP3   OH231532   1.490   5.540  10.563 -0.0828  0.1022 -0.3055
 2446TIP3    H131533   1.586   5.543  10.564 -0.0982  0.7279 -0.3681
 2446TIP3    H231534   1.464   5.596  10.636 -0.3756 -2.0677  1.3614
 2447TIP3   OH231535   8.008   8.350  10.306 -0.2303 -0.4232 -0.1617
 2447TIP3    H131536   7.971   8.436  10.325  2.4836  0.8816 -0.3450
 2447TIP3    H231537   8.080   8.340  10.367  1.7581 -0.9614 -2.4435
 2448TIP3   OH231538   4.439   6.842  10.000 -0.0481 -0.6107  0.1458
 2448TIP3    H131539   4.429   6.937  10.014 -0.0069 -0.7527  1.2248
 2448TIP3    H231540   4.527   6.833   9.963 -0.0482 -0.2297  0.0393
 2449TIP3   OH231541   3.506   0.152  10.438 -0.1945 -0.4531  0.2253
 2449TIP3    H131542   3.464   0.206  10.506 -1.2849 -0.9118 -0.0811
 2449TIP3    H231543   3.600   0.163  10.455 -0.4077  1.0092  0.5851
 2450TIP3   OH231544   3.943   8.376   9.196  0.2215  0.3715  0.1122
 2450TIP3    H131545   3.902   8.310   9.139 -0.0919  0.8569 -0.2337
 2450TIP3    H231546   4.036   8.357   9.191  0.0828 -0.5530  0.6558
 2451TIP3   OH231547   6.477   2.765  10.158 -0.3171  0.1892  0.3991
 2451TIP3    H131548   6.484   2.704  10.230  0.0335 -0.6322 -0.3146
 2451TIP3    H231549   6.437   2.714  10.087  3.8159 -0.5617 -1.6480
 2452TIP3   OH231550   1.222   4.445   9.780 -0.2043 -0.3421 -0.4084
 2452TIP3    H131551   1.240   4.520   9.837  0.2008 -0.1389 -0.7998
 2452TIP3    H231552   1.269   4.464   9.700  1.4780 -1.9049  0.1419
 2453TIP3   OH231553   0.571   1.249  10.765  0.2925 -0.2830  0.2545
 2453TIP3    H131554   0.538   1.184  10.704  1.6104  0.3281 -1.1751
 2453TIP3    H231555   0.665   1.253  10.747  0.2986  1.7343  0.5661
 2454TIP3   OH231556   5.129   7.624   9.484 -0.2149 -0.6286  0.2020
 2454TIP3    H131557   5.069   7.555   9.454 -0.0892 -0.4567 -0.4647
 2454TIP3    H231558   5.213   7.602   9.443 -0.2930  0.1877 -0.4239
 2455TIP3   OH231559   6.007   2.672  10.420 -0.5224  0.1418  0.7280
 2455TIP3    H131560   6.019   2.646  10.329 -1.4392  1.2078  0.2712
 2455TIP3    H231561   6.095   2.688  10.452 -0.1695 -0.5213  0.1177
 2456TIP3   OH231562   3.180   5.480  10.855 -0.1200 -1.1710 -0.3539
 2456TIP3    H131563   3.227   5.474  10.772 -1.1959 -2.6649 -0.9050
 2456TIP3    H231564   3.249   5.491  10.921  0.7029  1.0369 -1.4751
 2457TIP3   OH231565   6.110   7.515  10.115 -0.0685 -0.1893  0.1992
 2457TIP3    H131566   6.154   7.569  10.181 -0.5926 -2.3792  2.5042
 2457TIP3    H231567   6.020   7.548  10.113 -0.5233 -1.1804  1.9762
 2458TIP3   OH231568   8.886   5.694  10.397  0.9808  0.0822 -0.2389
 2458TIP3    H131569   8.847   5.613  10.364 -0.3442  0.6591 -0.1632
 2458TIP3    H231570   8.900   5.678  10.490 -0.9024  0.4991  0.1573
 2459TIP3   OH231571   8.069   2.965  10.867 -0.1185  0.0981 -0.5907
 2459TIP3    H131572   8.133   2.911  10.820  1.2300  1.2432 -0.1505
 2459TIP3    H231573   7.984   2.935  10.835  0.4618 -3.1013  0.4756
 2460TIP3   OH231574   5.166   5.424  10.494 -0.5235 -0.2683  0.3574
 2460TIP3    H131575   5.138   5.497  10.550  1.2162  0.1107  0.7792
 2460TIP3    H231576   5.191   5.355  10.555  0.1295 -0.3373  0.0156
 2461TIP3   OH231577   3.153   2.807  10.669  0.1700 -0.4387  0.3476
 2461TIP3    H131578   3.098   2.732  10.646 -0.1926 -0.5128  1.4321
 2461TIP3    H231579   3.129   2.829  10.759  0.4175  0.8544  0.1242
 2462TIP3   OH231580   9.089   4.930  10.956  0.2613  0.3823 -0.1592
 2462TIP3    H131581   9.007   4.934  11.005  0.7204 -0.5026  0.7198
 2462TIP3    H231582   9.142   5.001  10.992  1.4561 -1.6108  2.3299
 2463TIP3   OH231583   1.575   2.279   9.774 -0.2300  0.7201  0.3098
 2463TIP3    H131584   1.537   2.316   9.695 -1.0222 -0.9648 -0.1499
 2463TIP3    H231585   1.566   2.184   9.763  0.1072  0.4235  2.1928
 2464TIP3   OH231586   0.150   7.557  10.370  0.6343  0.0865  0.1026
 2464TIP3    H131587   0.112   7.616  10.435  1.2195  0.3405  0.2250
 2464TIP3    H231588   0.104   7.579  10.289  0.6817  0.5564  0.1967
 2465TIP3   OH231589   5.145   6.206  10.021  0.0049  0.0317  0.6895
 2465TIP3    H131590   5.099   6.199  10.105  2.9851 -1.5641  2.3890
 2465TIP3    H231591   5.103   6.141   9.965 -1.1350  0.1196  1.4091
 2466TIP3   OH231592   4.642   5.894  11.143  0.2495 -0.4367 -0.4192
 2466TIP3    H131593   4.680   5.917  11.227  2.1448  1.0557 -1.5798
 2466TIP3    H231594   4.675   5.961  11.083  0.3241 -2.3525 -2.6725
 2467TIP3   OH231595   3.891   3.450  11.073 -0.0470  0.2245  0.2874
 2467TIP3    H131596   3.876   3.370  11.122 -1.2618 -0.0539 -0.5081
 2467TIP3    H231597   3.984   3.468  11.084 -0.0730 -0.4483  1.7353
 2468TIP3   OH231598   9.173   6.289  10.839  0.7888 -0.6206 -0.1841
 2468TIP3    H131599   9.236   6.237  10.789  1.5943 -0.2014  0.3758
 2468TIP3    H231600   9.130   6.225  10.897 -0.2488 -1.1308 -1.4780
 2469TIP3   OH231601   5.243   4.273   9.707  0.0093  0.4503  0.3921
 2469TIP3    H131602   5.186   4.227   9.646  1.0708  0.0794 -0.3608
 2469TIP3    H231603   5.245   4.364   9.676 -0.3005  0.5018  0.5228
 2470TIP3   OH231604   1.365   6.528  10.466  0.0782 -0.3294 -0.6471
 2470TIP3    H131605   1.403   6.469  10.531 -1.9917 -3.4243 -2.0317
 2470TIP3    H231606   1.438   6.550  10.408  1.2586 -0.0694  0.8736
 2471TIP3   OH231607   1.296   0.925   9.133  0.4159 -0.6317  0.3285
 2471TIP3    H131608   1.362   0.988   9.105  0.2681 -0.3735  0.5496
 2471TIP3    H231609   1.251   0.968   9.206 -0.7721 -0.3076 -0.5526
 2472TIP3   OH231610   7.804   5.202  10.164  0.1527  0.0512 -0.6807
 2472TIP3    H131611   7.891   5.236  10.187 -0.3771  0.9695  0.0667
 2472TIP3    H231612   7.777   5.254  10.089 -0.3768  0.8652  0.0467
 2473TIP3   OH231613   8.062   5.296  10.182  0.6717 -0.4653  0.3119
 2473TIP3    H131614   8.088   5.344  10.103 -1.2064  1.8282  0.9742
 2473TIP3    H231615   8.052   5.363  10.249 -2.2045 -1.7169  1.2967
 2474TIP3   OH231616   4.973   5.751  10.208 -0.3975  0.6828 -0.0848
 2474TIP3    H131617   5.050   5.785  10.164  1.1183 -1.9019  0.3439
 2474TIP3    H231618   4.929   5.698  10.141  0.5696 -1.2349  0.6917
 2475TIP3   OH231619   2.458   3.918  10.747  0.0414  0.0067  0.2514
 2475TIP3    H131620   2.551   3.895  10.745  0.1362  0.1871  1.4993
 2475TIP3    H231621   2.414   3.843  10.707  0.5374 -1.2783  1.9837
 2476TIP3   OH231622   3.986   6.830   9.500  0.1114 -0.1111 -0.3474
 2476TIP3    H131623   4.004   6.823   9.407  0.9508  1.1351 -0.2933
 2476TIP3    H231624   3.981   6.924   9.518 -1.1836 -0.3277  0.6607
 2477TIP3   OH231625   7.072   0.424   9.248  0.2166 -0.5998 -0.1141
 2477TIP3    H131626   7.104   0.491   9.309 -1.0567 -1.6644  1.8119
 2477TIP3    H231627   7.147   0.405   9.191  1.5115  0.2935  1.2318
 2478TIP3   OH231628   7.508   7.431  10.656 -0.1476  0.4055  0.5443
 2478TIP3    H131629   7.454   7.377  10.714  0.8502 -0.7197  0.4589
 2478TIP3    H231630   7.447   7.460  10.588 -0.4472 -1.8688 -0.2512
 2479TIP3   OH231631   9.057   8.328   9.084  0.6032  0.2229  0.3676
 2479TIP3    H131632   9.127   8.326   9.019  0.3156  2.3554 -0.1045
 2479TIP3    H231633   9.089   8.385   9.153 -0.7384  1.5269 -0.0234
 2480TIP3   OH231634   7.934   1.115  11.183  0.1027  0.0959  0.2908
 2480TIP3    H131635   7.974   1.134  11.098  0.6850 -0.1966  0.4930
 2480TIP3    H231636   8.008   1.100  11.242 -0.3027 -1.1538  0.5106
 2481TIP3   OH231637   4.166   4.576   9.887  0.4878  0.7012 -0.1869
 2481TIP3    H131638   4.186   4.494   9.933 -1.6663 -0.2705 -0.8345
 2481TIP3    H231639   4.158   4.641   9.957  0.1046 -0.1245  0.5665
 2482TIP3   OH231640   6.408   6.191  10.496  0.2546  0.0222  0.5950
 2482TIP3    H131641   6.453   6.241  10.563 -0.3503 -1.0232  1.8250
 2482TIP3    H231642   6.466   6.117  10.477  0.7806  0.7209 -0.6301
 2483TIP3   OH231643   8.751   5.062  10.005  0.1237 -0.5639 -0.3354
 2483TIP3    H131644   8.772   5.022   9.920  2.3966 -0.5737  0.1652
 2483TIP3    H231645   8.681   5.124   9.985  0.3250 -0.8410 -2.1499
 2484TIP3   OH231646   4.653   0.959   9.551 -0.9214  0.3055  0.3796
 2484TIP3    H131647   4.745   0.975   9.574 -1.2976  1.8265  0.9178
 2484TIP3    H231648   4.648   0.864   9.537  1.0482  0.3554 -1.0799
 2485TIP3   OH231649   4.621   3.288   9.430  0.0111 -0.2320 -0.4273
 2485TIP3    H131650   4.645   3.360   9.371 -3.2069  0.4987 -1.0114
 2485TIP3    H231651   4.569   3.229   9.375 -2.1824 -0.0686  1.3541
 2486TIP3   OH231652   4.110   7.058  10.929 -0.0220 -0.4500 -0.0556
 2486TIP3    H131653   4.146   7.002  10.860 -0.7456 -1.3800  0.2994
 2486TIP3    H231654   4.033   7.099  10.888  0.8517  0.7844 -0.5079
 2487TIP3   OH231655   8.406   7.362   9.566 -0.1368 -0.2839  0.5413
 2487TIP3    H131656   8.433   7.316   9.645 -0.9240  0.7056  1.4184
 2487TIP3    H231657   8.337   7.421   9.595 -0.9433 -0.4117 -1.0286
 2488TIP3   OH231658   0.155   4.000  10.865 -0.0014  0.9831  0.3703
 2488TIP3    H131659   0.221   4.068  10.862  0.2185  0.7838  0.6233
 2488TIP3    H231660   0.072   4.046  10.863  0.1196  1.1880 -1.4715
 2489TIP3   OH231661   3.872   8.906  10.452 -0.0808  0.4108 -0.3720
 2489TIP3    H131662   3.852   8.985  10.402  0.3664  1.3130  0.8255
 2489TIP3    H231663   3.959   8.922  10.488  0.3024 -0.9277 -0.6573
 2490TIP3   OH231664   5.863   6.737  10.882  0.2113 -0.3383 -0.0108
 2490TIP3    H131665   5.797   6.698  10.824  0.0098 -0.1276  0.0772
 2490TIP3    H231666   5.832   6.826  10.898  0.4825 -0.2614  0.0875
 2491TIP3   OH231667   1.840   3.482  10.053 -0.1477  0.0049  0.1113
 2491TIP3    H131668   1.863   3.561  10.004 -0.9994  0.2085  0.0315
 2491TIP3    H231669   1.900   3.481  10.127  1.1000 -0.2569 -0.8605
 2492TIP3   OH231670   2.234   9.213  10.642  0.0320  0.0523 -0.5478
 2492TIP3    H131671   2.163   9.154  10.617  0.5105  0.0870 -2.0819
 2492TIP3    H231672   2.262   9.181  10.728 -2.2091  0.4066  0.3850
 2493TIP3   OH231673   6.210   7.299  10.568  0.4985  0.0201 -0.4101
 2493TIP3    H131674   6.286   7.258  10.611  0.2989  0.0788  0.0026
 2493TIP3    H231675   6.188   7.239  10.497  1.0578  0.1064 -0.6612
 2494TIP3   OH231676   3.189   3.326  10.429 -0.0239  0.6559 -0.3552
 2494TIP3    H131677   3.282   3.346  10.421  0.0449  0.3209 -0.4188
 2494TIP3    H231678   3.173   3.326  10.523  0.1250  0.3525 -0.3266
 2495TIP3   OH231679   3.211   2.441  10.785  0.1054  0.0250 -0.2559
 2495TIP3    H131680   3.281   2.390  10.744  0.1500 -0.4436  0.3814
 2495TIP3    H231681   3.137   2.434  10.725  0.3216 -0.2441 -0.4937
 2496TIP3   OH231682   0.165   8.322  10.471 -0.2901  0.2387  0.0259
 2496TIP3    H131683   0.231   8.260  10.441 -1.3108 -2.2522  2.4125
 2496TIP3    H231684   0.092   8.311  10.410 -0.4199 -0.9180  0.3666
 2497TIP3   OH231685   7.663   4.867  10.067  0.1030 -0.3411  0.6807
 2497TIP3    H131686   7.706   4.783  10.083 -1.3449 -1.2178  0.1846
 2497TIP3    H231687   7.598   4.848   9.999 -0.1004  1.2413  0.3912
 2498TIP3   OH231688   2.604   8.279   9.366 -0.3731  0.3402 -0.4606
 2498TIP3    H131689   2.565   8.257   9.450 -0.5790  1.3336 -0.2778
 2498TIP3    H231690   2.632   8.196   9.329  1.1743  0.0219  1.2965
 2499TIP3   OH231691   3.700   0.220  10.143 -0.1474 -0.0360 -0.1488
 2499TIP3    H131692   3.709   0.134  10.183  1.0120  0.6518  1.1959
 2499TIP3    H231693   3.711   0.205  10.049  1.6924 -1.1753  0.2052
 2500TIP3   OH231694   9.212   6.639   9.825  0.2255 -0.5590  0.0743
 2500TIP3    H131695   9.126   6.664   9.858  0.7385  0.5155  0.6502
 2500TIP3    H231696   9.217   6.545   9.838 -0.4506 -0.4757  1.0182
 2501TIP3   OH231697   6.790   0.447   9.607 -0.3112  0.1894 -0.0262
 2501TIP3    H131698   6.788   0.412   9.518 -0.5152  0.5304 -0.1624
 2501TIP3    H231699   6.880   0.478   9.619 -0.5471  1.0940 -0.5012
 2502TIP3   OH231700   1.124   1.323  10.145 -0.0557  0.0293 -0.3753
 2502TIP3    H131701   1.164   1.258  10.203  0.6364  0.3941 -0.4343
 2502TIP3    H231702   1.146   1.407  10.185  0.8792  0.3037 -1.4413
 2503TIP3   OH231703   6.994   8.236  10.644 -0.4392  0.2358 -0.0891
 2503TIP3    H131704   6.902   8.216  10.629 -1.0724  1.9395  1.2054
 2503TIP3    H231705   7.041   8.159  10.613 -2.3350 -0.9143 -0.2211
 2504TIP3   OH231706   8.252   7.972   9.640  0.1847  0.0642 -0.3356
 2504TIP3    H131707   8.253   7.896   9.698  0.8055  0.4453  0.1626
 2504TIP3    H231708   8.159   7.992   9.628 -0.0558 -1.4308 -1.3605
 2505TIP3   OH231709   3.189   4.599  10.326  0.0151  0.4372  0.0236
 2505TIP3    H131710   3.174   4.618  10.234  1.2745 -0.7946 -0.4737
 2505TIP3    H231711   3.132   4.525  10.346 -0.8662  1.2119  0.4884
 2506TIP3   OH231712   5.399   1.199   9.838  0.1733 -0.5950 -0.3058
 2506TIP3    H131713   5.325   1.142   9.818 -1.5733  1.4291  0.0643
 2506TIP3    H231714   5.461   1.184   9.766 -0.4281 -2.5378 -0.4810
 2507TIP3   OH231715   5.863   1.628  10.470  0.2761  0.4963 -0.1717
 2507TIP3    H131716   5.868   1.723  10.485 -0.2268  0.4491  0.3242
 2507TIP3    H231717   5.953   1.597  10.479  0.4002  0.8872 -0.0546
 2508TIP3   OH231718   5.976   9.125  10.606  0.0880 -0.6849 -0.2495
 2508TIP3    H131719   6.051   9.155  10.554  0.2959  1.5951  1.2006
 2508TIP3    H231720   6.007   9.128  10.697 -1.4665 -0.5913  0.3122
 2509TIP3   OH231721   4.427   0.039  10.459  0.0215 -0.0657  0.0081
 2509TIP3    H131722   4.349   0.094  10.453 -0.5459 -0.6317  1.7394
 2509TIP3    H231723   4.396  -0.048  10.431  0.4477  0.0636 -0.8869
 2510TIP3   OH231724   1.433   0.873   9.707  0.3077 -0.0278  0.0496
 2510TIP3    H131725   1.472   0.787   9.696  1.7103  0.7271 -1.2162
 2510TIP3    H231726   1.481   0.930   9.647 -2.0790  1.1958 -0.8514
 2511TIP3   OH231727   0.995   1.749  10.404 -0.5203  0.4343  0.6254
 2511TIP3    H131728   0.957   1.798  10.477 -2.2350  0.2470 -0.0822
 2511TIP3    H231729   0.963   1.660  10.416 -1.3827  0.5340 -0.6840
 2512TIP3   OH231730   5.794   4.824  10.000 -0.1854  0.3861 -0.3903
 2512TIP3    H131731   5.720   4.826   9.941 -0.1796  0.8883 -0.3781
 2512TIP3    H231732   5.858   4.884   9.962 -0.2143  0.7719  0.1669
 2513TIP3   OH231733   6.036   6.695   9.540  0.1075 -0.6948  0.2271
 2513TIP3    H131734   5.994   6.644   9.609 -1.0278 -0.9756 -0.6434
 2513TIP3    H231735   5.964   6.739   9.495  0.8387 -0.3324 -0.6363
 2514TIP3   OH231736   0.414   2.118  11.083  0.5064  0.3894 -0.0297
 2514TIP3    H131737   0.392   2.026  11.070  1.9557  0.0185 -0.0091
 2514TIP3    H231738   0.345   2.166  11.037  1.7532 -0.7649 -3.3666
 2515TIP3   OH231739   5.346   6.188   9.823  0.2353 -0.0506 -0.5609
 2515TIP3    H131740   5.287   6.198   9.898 -1.0976 -3.6707 -0.9215
 2515TIP3    H231741   5.433   6.179   9.862 -0.0132  1.0671  0.3027
 2516TIP3   OH231742   1.172   1.901  10.200  0.4350 -0.2937 -0.3024
 2516TIP3    H131743   1.154   1.827  10.142  0.6396 -0.6870  0.1267
 2516TIP3    H231744   1.126   1.880  10.282 -0.7077  0.7414 -0.6460
 2517TIP3   OH231745   7.937   7.697  10.543 -0.0470  0.2343  0.1220
 2517TIP3    H131746   7.937   7.713  10.448  0.4275  0.8958  0.2221
 2517TIP3    H231747   7.979   7.612  10.553 -3.5414 -1.7488 -0.5098
 2518TIP3   OH231748   4.079   1.048  11.213  0.5172 -0.9174 -0.2703
 2518TIP3    H131749   4.166   1.089  11.206  0.7469 -1.1483  0.9546
 2518TIP3    H231750   4.095   0.965  11.258 -0.3706 -0.8396  0.2175
 2519TIP3   OH231751   4.730   1.917  11.178  0.2590 -0.2800  0.5137
 2519TIP3    H131752   4.790   1.858  11.131 -0.3803  0.0117 -0.7096
 2519TIP3    H231753   4.684   1.860  11.239  0.1237 -0.9378 -0.1875
 2520TIP3   OH231754   1.782   7.664   9.662  0.1797 -0.7591  0.0928
 2520TIP3    H131755   1.757   7.672   9.570  0.4874  0.1838  0.0865
 2520TIP3    H231756   1.819   7.575   9.668  0.4006 -0.7400 -0.7512
 2521TIP3   OH231757   7.638   3.122  11.329 -0.2477 -0.6152  0.0328
 2521TIP3    H131758   7.661   3.206  11.289  0.7473 -0.5908  0.6291
 2521TIP3    H231759   7.542   3.123  11.333 -0.2198  1.2323  1.5341
 2522TIP3   OH231760   0.845   4.524  10.376 -0.2186 -0.0283  0.0004
 2522TIP3    H131761   0.750   4.532  10.364 -0.5775  0.2838  2.4593
 2522TIP3    H231762   0.868   4.441  10.333 -1.6145 -0.1800 -0.5005
 2523TIP3   OH231763   7.437   4.896  10.621  0.1210 -0.2761 -0.8685
 2523TIP3    H131764   7.446   4.988  10.596  0.1897  0.1966  0.7541
 2523TIP3    H231765   7.457   4.847  10.541  1.9891  1.0680 -1.3042
 2524TIP3   OH231766   7.507   3.438   9.679  0.2211 -0.8109  0.2229
 2524TIP3    H131767   7.509   3.453   9.585  0.8686  1.3158  0.5161
 2524TIP3    H231768   7.597   3.416   9.702  0.1390 -0.9740  0.3850
 2525TIP3   OH231769   4.949   0.224  10.188 -0.2549 -0.1279 -0.7083
 2525TIP3    H131770   4.959   0.205  10.281  0.0461  2.4654 -0.1395
 2525TIP3    H231771   5.036   0.212  10.151 -0.5732 -2.1169 -0.9054
 2526TIP3   OH231772   8.873   9.212   9.960 -0.4875 -0.4924 -0.0417
 2526TIP3    H131773   8.859   9.176   9.872 -1.4895 -1.8038  0.6276
 2526TIP3    H231774   8.912   9.141  10.010 -0.1544  0.1646  0.6609
 2527TIP3   OH231775   8.715   5.858  10.232  0.0554 -0.5597  0.1531
 2527TIP3    H131776   8.644   5.844  10.170  0.6687 -0.8595 -0.4918
 2527TIP3    H231777   8.729   5.773  10.273  0.8228 -0.7908 -0.5723
 2528TIP3   OH231778   4.948   5.619   9.392  0.1936  0.1081 -0.3237
 2528TIP3    H131779   4.867   5.589   9.434 -0.6267  0.7924 -1.3585
 2528TIP3    H231780   5.002   5.541   9.386 -1.3672 -0.9380 -1.7817
 2529TIP3   OH231781   7.965   1.344   9.931  0.6862 -0.4890 -0.3808
 2529TIP3    H131782   8.036   1.349   9.867  0.1822  0.3000 -0.9049
 2529TIP3    H231783   7.903   1.282   9.893  0.6696 -0.4774 -0.3720
 2530TIP3   OH231784   0.732   0.062   9.509  0.2646  0.5565  0.6766
 2530TIP3    H131785   0.774  -0.023   9.523  0.0805 -0.2772 -2.8401
 2530TIP3    H231786   0.706   0.061   9.417 -1.8025  3.5719  1.0709
 2531TIP3   OH231787   4.678   6.205  11.460  0.1647 -0.2692  0.2642
 2531TIP3    H131788   4.703   6.270  11.394 -0.7897  0.2076  0.3424
 2531TIP3    H231789   4.668   6.256  11.541 -0.8474 -0.4459  0.2713
 2532TIP3   OH231790   5.252   1.450  10.659  0.2863  0.0014 -0.5862
 2532TIP3    H131791   5.245   1.482  10.569  2.2755  1.1211 -0.3962
 2532TIP3    H231792   5.182   1.385  10.667 -2.4235  2.5229 -1.7689
 2533TIP3   OH231793   2.193   0.780  10.181 -0.0311  0.0499 -0.1121
 2533TIP3    H131794   2.261   0.740  10.127 -0.2944 -0.8858  0.2429
 2533TIP3    H231795   2.204   0.741  10.267  0.0339  1.1332  0.3927
 2534TIP3   OH231796   5.100   6.220  11.435  0.1615  0.5834 -0.0394
 2534TIP3    H131797   5.041   6.295  11.429 -0.7072  0.0333  1.0350
 2534TIP3    H231798   5.060   6.153  11.380  1.1460  1.0063 -1.3175
 2535TIP3   OH231799   0.392   4.126  10.875  0.2287  0.2551  0.4226
 2535TIP3    H131800   0.440   4.208  10.865  0.8503 -0.2336 -0.7448
 2535TIP3    H231801   0.437   4.064  10.817 -0.7111 -0.7040  0.6830
 2536TIP3   OH231802   6.446   2.487   9.696  0.3857 -0.1858 -0.0518
 2536TIP3    H131803   6.396   2.549   9.748 -0.3051 -0.4510 -0.3832
 2536TIP3    H231804   6.536   2.496   9.727 -0.0337 -0.4988  1.3417
 2537TIP3   OH231805   1.616   0.767  10.998 -0.1020 -0.1275 -0.0818
 2537TIP3    H131806   1.561   0.829  10.949 -0.2163  0.1266  0.3685
 2537TIP3    H231807   1.700   0.768  10.952  0.4175  1.5603  0.8545
 2538TIP3   OH231808   3.981   9.068   9.787  0.2759 -0.3692  0.0125
 2538TIP3    H131809   3.886   9.066   9.794  0.0655  0.4661 -1.9522
 2538TIP3    H231810   4.000   9.144   9.732  2.0933 -0.4726  0.4159
 2539TIP3   OH231811   2.642   0.493  10.317 -0.0835  0.0118 -0.6993
 2539TIP3    H131812   2.677   0.407  10.295 -0.9113 -0.4720 -0.1534
 2539TIP3    H231813   2.712   0.536  10.366 -0.1125 -0.8026  0.0600
 2540TIP3   OH231814   5.164   5.950  10.804 -0.3245 -0.2375  0.5453
 2540TIP3    H131815   5.258   5.942  10.789 -0.3575  0.9726 -0.5747
 2540TIP3    H231816   5.157   5.986  10.893  0.1505 -2.3463  1.4797
 2541TIP3   OH231817   8.321   6.500  10.358  0.0268 -0.1859  0.0167
 2541TIP3    H131818   8.271   6.421  10.334 -1.3581  0.5933  0.2107
 2541TIP3    H231819   8.409   6.468  10.376 -0.7544 -1.8487  1.1201
 2542TIP3   OH231820   7.361   6.276  10.479 -0.2902 -0.0488  0.0859
 2542TIP3    H131821   7.396   6.255  10.565 -0.8736 -2.1168 -0.1198
 2542TIP3    H231822   7.431   6.254  10.418 -0.2242  0.4809 -0.0345
 2543TIP3   OH231823   4.384   5.837  11.038  0.0598  0.6097  0.0199
 2543TIP3    H131824   4.330   5.915  11.026  0.1657  0.6347 -0.3003
 2543TIP3    H231825   4.468   5.871  11.071  0.7674  0.8314 -1.8870
 2544TIP3   OH231826   2.077   9.129  10.016 -0.2285  0.2477 -0.1615
 2544TIP3    H131827   2.034   9.047   9.992 -2.5068  1.8021 -1.8580
 2544TIP3    H231828   2.109   9.115  10.105 -0.2351 -2.5496 -0.5085
 2545TIP3   OH231829   1.269   1.496  10.913 -0.1614  0.0834  0.5967
 2545TIP3    H131830   1.303   1.549  10.986  2.3294 -3.1238  1.9976
 2545TIP3    H231831   1.211   1.432  10.955  1.1328 -1.6725 -0.1681
 2546TIP3   OH231832   2.871   0.588  10.437  0.3502 -0.0722  0.2938
 2546TIP3    H131833   2.965   0.578  10.453  0.6268  3.2828  1.4652
 2546TIP3    H231834   2.834   0.615  10.521 -1.0350  1.9265 -0.8449
 2547TIP3   OH231835   4.942   6.991  10.603 -0.0033 -0.0329  0.4886
 2547TIP3    H131836   5.020   7.046  10.600 -0.0942  0.0891  0.2996
 2547TIP3    H231837   4.903   7.001  10.516 -1.1268  1.1969  1.1093
 2548TIP3   OH231838   3.928   2.553  10.456  0.3642  0.1775 -0.0240
 2548TIP3    H131839   3.986   2.628  10.445  2.3223 -1.2893 -0.0871
 2548TIP3    H231840   3.895   2.535  10.368 -0.2156  1.0026  0.0099
 2549TIP3   OH231841   0.082   2.575  10.787 -0.1246 -0.6202 -0.0770
 2549TIP3    H131842   0.108   2.649  10.841  1.1689  1.0302 -2.7189
 2549TIP3    H231843   0.156   2.516  10.789 -0.6656 -1.2903  1.0509
 2550TIP3   OH231844   8.319   2.733  10.165  0.0043  0.3885 -0.2689
 2550TIP3    H131845   8.309   2.695  10.252 -2.0076 -0.3574 -0.7505
 2550TIP3    H231846   8.266   2.677  10.109  1.1955  0.8992 -1.9805
 2551TIP3   OH231847   8.386   0.796  10.408 -0.0611 -0.4438  0.1658
 2551TIP3    H131848   8.298   0.759  10.410 -0.0076 -0.6166 -0.6925
 2551TIP3    H231849   8.413   0.792  10.317  0.7904 -0.2699  0.3966
 2552TIP3   OH231850   5.212   2.951  11.231 -0.5409  0.0895  0.1096
 2552TIP3    H131851   5.275   2.879  11.222 -0.2535  0.1282  1.5715
 2552TIP3    H231852   5.250   3.008  11.298 -2.1026  0.1303  1.0058
 2553TIP3   OH231853   6.813   7.804   9.675 -0.1613 -0.0266  0.1292
 2553TIP3    H131854   6.862   7.754   9.610 -0.4905 -0.6689  0.3683
 2553TIP3    H231855   6.782   7.881   9.627  0.2876 -0.0839 -0.2617
 2554TIP3   OH231856   4.424   3.644  10.763  0.0469 -0.4751  0.4257
 2554TIP3    H131857   4.506   3.692  10.763 -0.0581 -0.1284 -2.0914
 2554TIP3    H231858   4.377   3.676  10.840  1.4431  0.7922  0.7988
 2555TIP3   OH231859   6.859   1.567  10.185 -0.1412  0.2172  0.3160
 2555TIP3    H131860   6.856   1.476  10.155 -0.8940  0.2490  0.2706
 2555TIP3    H231861   6.767   1.593  10.189  0.1009  1.1912 -0.3157
 2556TIP3   OH231862   6.601   6.423  10.426  0.1923  0.5154 -0.0934
 2556TIP3    H131863   6.509   6.448  10.438  0.1574  0.3033  0.1031
 2556TIP3    H231864   6.642   6.441  10.511  0.1796 -0.0198  0.0349
 2557TIP3   OH231865   2.035   7.700  10.181 -0.0303 -0.1576 -0.0521
 2557TIP3    H131866   2.081   7.728  10.260 -1.3412  1.7342  0.0924
 2557TIP3    H231867   2.035   7.776  10.124 -2.2213 -0.3172 -0.3732
 2558TIP3   OH231868   0.345   4.089  10.487  0.4258 -0.1128  0.3309
 2558TIP3    H131869   0.320   4.095  10.579 -1.8942 -0.5792 -0.2126
 2558TIP3    H231870   0.297   4.160  10.444 -2.1398 -2.5394 -1.1552
 2559TIP3   OH231871   3.520   7.719  10.776 -0.1475  0.1098  0.2807
 2559TIP3    H131872   3.478   7.633  10.786 -1.3332  0.5346 -0.7777
 2559TIP3    H231873   3.516   7.737  10.682 -1.7344  2.1886  0.6745
 2560TIP3   OH231874   1.299   4.218   9.392  0.2363 -0.7230  0.0043
 2560TIP3    H131875   1.311   4.133   9.433 -1.0925 -1.0988 -0.3491
 2560TIP3    H231876   1.302   4.200   9.298  1.5275 -0.1230 -0.0947
 2561TIP3   OH231877   3.918   2.121  11.188  0.1149 -0.2897  0.0354
 2561TIP3    H131878   3.882   2.093  11.272  0.2667  0.6473  0.4276
 2561TIP3    H231879   3.852   2.180  11.152  0.5988  0.2741  0.0676
 2562TIP3   OH231880   0.451   2.932  10.771  0.6678 -0.2388 -0.4263
 2562TIP3    H131881   0.483   2.943  10.682 -1.4817 -0.1996 -1.2432
 2562TIP3    H231882   0.398   3.010  10.788 -0.4836 -1.1101  0.1511
 2563TIP3   OH231883   4.931   6.577   9.777  0.8468 -0.2851  0.2343
 2563TIP3    H131884   4.957   6.509   9.715 -0.4698 -0.2127 -0.4248
 2563TIP3    H231885   4.841   6.597   9.754  0.9721  1.1605  0.9096
 2564TIP3   OH231886   1.368   1.808  11.108  0.0425 -0.5786 -0.0527
 2564TIP3    H131887   1.277   1.834  11.093 -0.1712 -1.6397 -0.7252
 2564TIP3    H231888   1.362   1.723  11.152  0.7097 -0.7107 -0.2037
 2565TIP3   OH231889   5.697   4.694  11.003 -0.5078 -0.4870  0.2618
 2565TIP3    H131890   5.685   4.756  10.932 -0.4649 -0.6898  0.0767
 2565TIP3    H231891   5.624   4.633  10.994  0.6119 -1.7111 -0.8538
 2566TIP3   OH231892   2.600   4.692  10.526 -0.2426  0.1686 -0.2325
 2566TIP3    H131893   2.586   4.626  10.459 -0.0223 -1.1503  0.9769
 2566TIP3    H231894   2.629   4.643  10.603  1.1317  1.7962  0.3453
 2567TIP3   OH231895   4.683   6.775   9.950  0.1480  0.1872 -0.1806
 2567TIP3    H131896   4.771   6.810   9.964 -0.1783  0.9390  0.0569
 2567TIP3    H231897   4.687   6.734   9.864  0.9713 -0.5771  0.2158
 2568TIP3   OH231898   3.663   9.127  10.107 -0.3737  0.1775 -0.1538
 2568TIP3    H131899   3.568   9.136  10.101 -0.5338 -0.8990  0.4835
 2568TIP3    H231900   3.692   9.122  10.016 -1.1411 -1.3865 -0.3512
 2569TIP3   OH231901   7.908   1.602   9.974 -0.5213  0.1442 -0.0484
 2569TIP3    H131902   8.001   1.625   9.979  0.3921 -2.7451 -1.5391
 2569TIP3    H231903   7.907   1.507   9.976 -3.5033  0.0964  0.0381
 2570TIP3   OH231904   7.214   4.872  10.801 -0.0244 -0.3952  1.0300
 2570TIP3    H131905   7.280   4.858  10.869  1.2033 -4.0138 -0.6775
 2570TIP3    H231906   7.263   4.902  10.725 -0.5890 -1.2847  0.2899
 2571TIP3   OH231907   1.938   1.274   9.874 -0.8270 -0.1106 -0.1035
 2571TIP3    H131908   1.939   1.209   9.944  2.6574 -0.1834 -0.0456
 2571TIP3    H231909   1.975   1.228   9.798 -0.7009  1.0964 -0.8015
 2572TIP3   OH231910   5.627   3.829  11.088 -0.5072 -0.0426  0.1932
 2572TIP3    H131911   5.535   3.834  11.059 -0.0118 -0.6515 -1.6340
 2572TIP3    H231912   5.653   3.920  11.098 -0.3068  0.3836 -2.9592
 2573TIP3   OH231913   9.136   1.058   9.987 -0.6384  0.0679  0.6469
 2573TIP3    H131914   9.206   1.014   9.940  0.4074  1.0184  1.2520
 2573TIP3    H231915   9.086   1.105   9.920  1.3503  2.1152  0.4858
 2574TIP3   OH231916   6.200   0.724  10.941  0.6789 -0.2040  0.1778
 2574TIP3    H131917   6.273   0.780  10.967  1.1484 -0.4398 -0.6174
 2574TIP3    H231918   6.239   0.655  10.888  0.0975 -1.2767  1.0897
 2575TIP3   OH231919   3.943   8.077  10.592  0.4176  0.0622 -0.0480
 2575TIP3    H131920   3.852   8.056  10.574 -0.0833  1.3369  0.8270
 2575TIP3    H231921   3.991   8.045  10.515 -0.9735  0.8740 -1.3143
 2576TIP3   OH231922   3.135   6.960  10.341  0.4685 -0.0682 -0.6422
 2576TIP3    H131923   3.090   6.967  10.257 -0.7289 -0.7280 -0.0797
 2576TIP3    H231924   3.097   7.031  10.394 -1.1495 -1.6110  0.3601
 2577TIP3   OH231925   8.805   8.417  10.306 -0.7490 -0.3768  0.2972
 2577TIP3    H131926   8.863   8.368  10.365  0.1962  1.5237  1.0036
 2577TIP3    H231927   8.858   8.433  10.228 -0.5277  0.7618  0.6641
 2578TIP3   OH231928   3.030   1.777  10.847  0.1466  0.2905 -0.1752
 2578TIP3    H131929   2.935   1.767  10.855  0.1005  0.7096 -0.1553
 2578TIP3    H231930   3.062   1.762  10.936  0.3246 -2.0216 -0.5722
 2579TIP3   OH231931   4.161   4.927  11.081 -0.2860 -0.1858 -0.3771
 2579TIP3    H131932   4.112   4.848  11.102 -1.4254  0.5180 -0.3225
 2579TIP3    H231933   4.100   4.999  11.098  0.9212  0.7533  0.1626
 2580TIP3   OH231934   3.993   0.656  11.021  0.1983 -0.4780 -0.5136
 2580TIP3    H131935   3.951   0.714  11.084  0.9402 -1.8388  1.3455
 2580TIP3    H231936   3.964   0.688  10.936 -0.8114  1.4860  0.4890
 2581TIP3   OH231937   1.447   0.160  11.349 -0.0291 -0.0107  0.1779
 2581TIP3    H131938   1.424   0.250  11.326  1.4941  0.7171  1.3586
 2581TIP3    H231939   1.383   0.135  11.416 -1.4222 -0.4127 -1.2328
 2582TIP3   OH231940   3.011   8.841  10.184 -0.0890  0.1282  0.5541
 2582TIP3    H131941   2.991   8.920  10.133 -0.7992 -1.2403 -1.3759
 2582TIP3    H231942   3.087   8.803  10.142 -0.9424 -1.2595  0.2240
 2583TIP3   OH231943   5.567   6.435   9.821  0.1738 -0.0743 -0.1191
 2583TIP3    H131944   5.658   6.407   9.813 -0.2680 -1.3848 -0.7005
 2583TIP3    H231945   5.522   6.394   9.747 -0.8279  0.8451 -0.0461
 2584TIP3   OH231946   7.774   6.852  10.785  0.0210  0.3564 -0.1197
 2584TIP3    H131947   7.718   6.922  10.752  0.7228 -0.2478 -2.8270
 2584TIP3    H231948   7.718   6.803  10.846 -1.3676  1.5717 -0.3606
 2585TIP3   OH231949   4.951   8.197  10.534 -0.4239 -0.0506 -0.6155
 2585TIP3    H131950   4.978   8.150  10.455  0.0037 -0.5762 -0.1736
 2585TIP3    H231951   4.953   8.130  10.603  0.8783  0.7497  0.1701
 2586TIP3   OH231952   0.655   5.824  10.812 -0.0580 -0.5559  0.5147
 2586TIP3    H131953   0.654   5.730  10.798  1.9571 -0.3061 -1.9125
 2586TIP3    H231954   0.702   5.835  10.895 -0.8590 -1.6729  1.1398
 2587TIP3   OH231955   3.458   7.970  10.596 -0.3139  0.7100  0.0802
 2587TIP3    H131956   3.488   8.050  10.640 -2.8121  1.1399  1.1978
 2587TIP3    H231957   3.511   7.964  10.517  1.9070  1.8796  1.3812
 2588TIP3   OH231958   8.410   4.835  10.742 -0.0547  0.6866  0.3308
 2588TIP3    H131959   8.377   4.924  10.751  0.7852  0.9721  0.7452
 2588TIP3    H231960   8.433   4.827  10.650  0.2767  1.0557  0.3793
 2589TIP3   OH231961   1.170   7.128  10.597 -0.5088 -0.0036 -0.1184
 2589TIP3    H131962   1.122   7.046  10.586  0.4406 -0.4158 -1.3728
 2589TIP3    H231963   1.105   7.189  10.633 -1.3224 -1.1826  0.4907
 2590TIP3   OH231964   2.218   8.235  10.426 -0.6175  0.0227 -0.0932
 2590TIP3    H131965   2.304   8.264  10.455 -0.9265  0.5619  0.2846
 2590TIP3    H231966   2.157   8.301  10.459 -0.9830  0.7350 -2.0073
 2591TIP3   OH231967   5.779   6.137  10.215  0.4995 -0.4468  0.2136
 2591TIP3    H131968   5.834   6.061  10.234  2.3450  1.0944  1.4385
 2591TIP3    H231969   5.811   6.168  10.130  1.0845  0.0618  0.6143
 2592TIP3   OH231970   6.597   0.431  10.812 -0.6157 -0.2299  0.9009
 2592TIP3    H131971   6.636   0.477  10.887 -0.4554  0.8045  0.1997
 2592TIP3    H231972   6.670   0.413  10.754 -0.9264  0.2257  0.3564
 2593TIP3   OH231973   6.093   4.761  10.811 -0.2152  0.6225  0.3164
 2593TIP3    H131974   6.077   4.816  10.887 -0.2434  1.1127 -0.0349
 2593TIP3    H231975   6.183   4.730  10.822 -0.5005  0.0225  0.9595
 2594TIP3   OH231976   4.350   1.070  11.281  0.1805 -0.0525  0.5559
 2594TIP3    H131977   4.293   0.994  11.288  0.5471 -0.4900 -0.8672
 2594TIP3    H231978   4.427   1.047  11.333 -0.2044 -0.1722  1.0756
 2595TIP3   OH231979   8.252   5.989   9.725 -0.2192 -0.4266 -0.2464
 2595TIP3    H131980   8.321   5.953   9.669  1.0425  0.0422  0.9496
 2595TIP3    H231981   8.274   6.081   9.734 -0.7476 -0.3651  0.5271
 2596TIP3   OH231982   0.065   7.278  10.338  0.6944 -0.0221 -0.0669
 2596TIP3    H131983   0.053   7.369  10.313  1.9078 -0.2267 -1.5555
 2596TIP3    H231984   0.118   7.281  10.417  1.1305  0.5636 -0.3754
 2597TIP3   OH231985   4.147   9.134  10.214  0.3138 -0.1165  0.5666
 2597TIP3    H131986   4.110   9.084  10.141  1.8339 -2.9963  1.6037
 2597TIP3    H231987   4.075   9.147  10.275 -0.2299 -0.5609  0.0188
 2598TIP3   OH231988   6.619   1.697  10.992  0.0608  0.4059 -0.6225
 2598TIP3    H131989   6.543   1.703  11.050 -0.4993  1.3483 -1.4273
 2598TIP3    H231990   6.587   1.649  10.916  0.1132  1.2162 -1.1738
 2599TIP3   OH231991   1.620   3.323  10.187 -0.8563 -0.2350 -0.1224
 2599TIP3    H131992   1.692   3.384  10.171 -1.1338  0.4119  1.0440
 2599TIP3    H231993   1.546   3.358  10.138 -0.6915 -0.2902 -0.4124
 2600TIP3   OH231994   2.797   6.737  10.308  0.1435 -0.1325 -0.3629
 2600TIP3    H131995   2.792   6.832  10.317  0.0663 -0.0819 -0.9255
 2600TIP3    H231996   2.858   6.710  10.376  0.7183  0.3967 -0.6610
 2601TIP3   OH231997   9.076   1.357   9.560 -0.3622 -0.4171  0.1719
 2601TIP3    H131998   9.141   1.416   9.522 -0.3690  0.0757  0.8938
 2601TIP3    H231999   9.024   1.413   9.619  0.2604 -1.3138  1.6403
 2602TIP3   OH232000   4.122   5.890   9.859 -0.0843 -0.0595  0.1955
 2602TIP3    H132001   4.161   5.900   9.946  1.5130  0.1943 -0.5253
 2602TIP3    H232002   4.119   5.978   9.823  3.0972 -0.5228 -1.5558
 2603TIP3   OH232003   6.018   8.445   9.435 -0.1303  0.0192  0.2592
 2603TIP3    H132004   5.924   8.441   9.451  0.0225  0.0096  1.2152
 2603TIP3    H232005   6.050   8.358   9.460  0.0393 -0.2551 -0.8211
 2604TIP3   OH232006   6.012   6.841  10.155  0.3799 -0.1261 -0.7316
 2604TIP3    H132007   6.086   6.798  10.198  0.1690  0.8986  0.7250
 2604TIP3    H232008   6.012   6.930  10.191 -3.1216 -0.8113  1.3590
 2605TIP3   OH232009   5.157   5.801   9.327  0.0014 -0.3647 -0.3617
 2605TIP3    H132010   5.102   5.723   9.324  0.8952 -0.9782 -1.4490
 2605TIP3    H232011   5.108   5.867   9.278 -1.6059  0.4015  2.0478
 2606TIP3   OH232012   0.600   8.371   9.433  0.0783 -0.5684 -0.1968
 2606TIP3    H132013   0.595   8.358   9.338  1.6530 -0.1990 -0.3531
 2606TIP3    H232014   0.637   8.290   9.467  1.9876  0.2367 -0.2298
 2607TIP3   OH232015   6.818   0.389   9.348  0.3532  0.3601 -0.1681
 2607TIP3    H132016   6.764   0.404   9.269 -0.4873  0.2707  0.3768
 2607TIP3    H232017   6.906   0.415   9.321  0.0407  0.5473 -1.0764
 2608TIP3   OH232018   5.163   7.570  10.762 -0.5968 -0.6875  0.3622
 2608TIP3    H132019   5.117   7.488  10.744 -1.3816  0.1710 -1.8861
 2608TIP3    H232020   5.097   7.626  10.803  0.1626 -1.3548  2.7108
 2609TIP3   OH232021   6.672   5.746  10.813  0.5436  1.1554 -0.2891
 2609TIP3    H132022   6.662   5.660  10.854 -1.0258  1.2780 -0.3560
 2609TIP3    H232023   6.669   5.807  10.886 -1.1783  1.3037 -0.4394
 2610TIP3   OH232024   0.416   8.211  10.421 -0.3449  0.2137  0.1066
 2610TIP3    H132025   0.480   8.150  10.385  0.3268 -0.6849  2.6405
 2610TIP3    H232026   0.468   8.279  10.463 -1.0987  1.3293 -0.6966
 2611TIP3   OH232027   0.668   6.427   9.804  0.8939  0.4787  0.1342
 2611TIP3    H132028   0.652   6.521   9.805  2.0360  0.6901  0.5116
 2611TIP3    H232029   0.763   6.419   9.810  0.8042 -0.7062  0.2678
 2612TIP3   OH232030   0.646   7.412  10.429  0.2681 -0.2601  0.0966
 2612TIP3    H132031   0.564   7.389  10.384 -0.5432  2.2366  0.1218
 2612TIP3    H232032   0.650   7.352  10.503 -2.0206  0.0940  0.5811
 2613TIP3   OH232033   3.412   8.092  10.975  0.3922 -0.3478  0.5923
 2613TIP3    H132034   3.375   8.005  10.991 -2.2198  0.8596  1.7498
 2613TIP3    H232035   3.478   8.078  10.907 -2.3312 -2.7455 -1.7937
 2614TIP3   OH232036   8.730   8.076  10.567  0.2837  0.2270  0.3875
 2614TIP3    H132037   8.664   8.082  10.636 -0.7911 -1.0415 -0.4718
 2614TIP3    H232038   8.679   8.082  10.486  1.2844 -0.2941 -0.2919
 2615TIP3   OH232039   0.476   2.424  11.005  0.0030 -0.2654 -0.3850
 2615TIP3    H132040   0.407   2.484  11.036 -1.5664 -1.6160 -1.1119
 2615TIP3    H232041   0.505   2.379  11.084 -0.5983 -0.3105 -0.1781
 2616TIP3   OH232042   8.008   5.863   9.656 -0.0476  0.0773 -0.0821
 2616TIP3    H132043   7.955   5.925   9.705  0.4931 -0.6148  1.4662
 2616TIP3    H232044   8.095   5.902   9.654  0.0943 -0.2179  0.1479
 2617TIP3   OH232045   3.747   4.722  10.052 -0.6804 -0.3070  0.0224
 2617TIP3    H132046   3.708   4.769   9.979 -3.3907 -0.7535  1.0519
 2617TIP3    H232047   3.807   4.784  10.093 -1.7504  1.1189 -0.5338
 2618TIP3   OH232048   8.777   5.846  10.853 -0.0987 -0.1790  0.0619
 2618TIP3    H132049   8.834   5.899  10.799 -1.3980 -0.8801 -2.1455
 2618TIP3    H232050   8.688   5.872  10.828 -0.7721 -0.8854  1.5323
 2619TIP3   OH232051   8.244   2.752  10.789 -0.0804 -0.0642 -0.6762
 2619TIP3    H132052   8.205   2.694  10.724  1.1491 -0.6397 -0.9425
 2619TIP3    H232053   8.338   2.748  10.771  0.5668 -1.7879  2.2782
 2620TIP3   OH232054   5.049   6.543  10.932  0.0200 -0.2955  0.0848
 2620TIP3    H132055   5.020   6.631  10.908 -0.4566 -0.2950  0.6361
 2620TIP3    H232056   4.975   6.486  10.908  0.1702 -0.4947  0.0945
 2621TIP3   OH232057   1.806   8.608  10.754  0.5227  0.1209  0.0167
 2621TIP3    H132058   1.791   8.701  10.773 -0.0287  0.2761 -1.1137
 2621TIP3    H232059   1.736   8.584  10.693  1.7649 -0.5316 -1.2227
 2622TIP3   OH232060   5.002   4.866  11.019  0.7016 -0.3060 -0.6334
 2622TIP3    H132061   4.978   4.922  10.946 -1.1408  0.4772  0.4854
 2622TIP3    H232062   4.951   4.786  11.005  0.0443 -0.0019 -0.0348
 2623TIP3   OH232063   4.397   6.485   9.897  0.0789 -0.0471  0.0056
 2623TIP3    H132064   4.427   6.529   9.977  1.0406 -0.7298  0.0494
 2623TIP3    H232065   4.372   6.397   9.927  0.4794 -0.3180 -0.4455
 2624TIP3   OH232066   2.037   6.976  10.269  0.5981 -0.0665  0.1453
 2624TIP3    H132067   2.013   6.953  10.180 -1.2577 -2.1712  1.0725
 2624TIP3    H232068   2.125   6.939  10.281  0.5706 -0.3811 -0.6076
 2625TIP3   OH232069   5.922   3.210  10.604 -0.5488 -0.1168  0.0408
 2625TIP3    H132070   5.952   3.135  10.553  0.5160 -0.3095  0.9287
 2625TIP3    H232071   5.975   3.283  10.572  1.1533 -0.5028  1.7729
 2626TIP3   OH232072   2.911   2.341  10.776 -0.1057  0.5260 -0.3820
 2626TIP3    H132073   2.917   2.249  10.801 -1.6828  0.2494 -0.9112
 2626TIP3    H232074   2.818   2.361  10.781 -0.2065  1.1935 -3.2523
 2627TIP3   OH232075   5.150   6.800  11.153  0.0847  0.0068  0.1701
 2627TIP3    H132076   5.235   6.837  11.129  0.2458 -0.3474  0.1926
 2627TIP3    H232077   5.166   6.755  11.235 -0.6040  1.7564  1.3196
 2628TIP3   OH232078   4.436   0.032  10.776  0.1690  0.6305 -0.0619
 2628TIP3    H132079   4.351   0.074  10.789  0.6993  1.2278  1.7220
 2628TIP3    H232080   4.446  -0.027  10.851  1.7317  1.2996  0.2880
 2629TIP3   OH232081   7.307   2.797  10.277  0.1462  0.0452 -0.3931
 2629TIP3    H132082   7.218   2.793  10.242  0.4530 -2.9680 -1.1725
 2629TIP3    H232083   7.356   2.849  10.214 -0.2195 -1.8088 -2.3012
 2630TIP3   OH232084   3.443   5.733   9.920 -0.6271 -0.2307 -0.0473
 2630TIP3    H132085   3.474   5.730  10.011 -0.5932  0.7241 -0.0118
 2630TIP3    H232086   3.426   5.826   9.904 -0.4820 -0.3689 -1.0692
 2631TIP3   OH232087   9.025   2.990  10.404  0.0466 -0.1776 -0.6280
 2631TIP3    H132088   9.022   2.962  10.313  0.9871 -1.0252 -0.4137
 2631TIP3    H232089   9.114   3.021  10.418 -0.5078  1.4416 -0.3968
 2632TIP3   OH232090   7.842   4.423  10.428  0.1062 -0.0257 -0.1424
 2632TIP3    H132091   7.802   4.509  10.440 -0.9115 -0.4694 -0.2454
 2632TIP3    H232092   7.883   4.427  10.341  1.8000  0.9992  0.6536
 2633TIP3   OH232093   8.474   5.851  10.788  0.0053  0.2784 -0.3220
 2633TIP3    H132094   8.527   5.901  10.726 -0.8282 -0.0027 -1.2814
 2633TIP3    H232095   8.465   5.764  10.748  0.0038 -0.1181  0.5095
 2634TIP3   OH232096   7.940   1.737  10.758  0.3078 -0.1546  0.6086
 2634TIP3    H132097   7.997   1.736  10.835  0.4523 -2.3448  0.5168
 2634TIP3    H232098   7.863   1.787  10.786  0.1037 -1.3935  2.3823
 2635TIP3   OH232099   9.207   1.115  10.934  0.5051 -0.1076  0.1381
 2635TIP3    H132100   9.158   1.163  10.867  0.6126  0.2703  0.3274
 2635TIP3    H232101   9.199   1.023  10.909  0.6297  0.0404 -0.4490
 2636TIP3   OH232102   7.317   3.456   9.269 -0.4073  0.1202 -0.3629
 2636TIP3    H132103   7.402   3.440   9.228 -1.0681 -0.8625 -1.3931
 2636TIP3    H232104   7.314   3.395   9.343 -1.1085 -1.5182 -1.6755
 2637TIP3   OH232105   2.604   5.278   9.654  0.4749  0.0186  0.4824
 2637TIP3    H132106   2.587   5.373   9.655  1.3253  0.2156 -0.8727
 2637TIP3    H232107   2.673   5.267   9.589  0.3909 -1.5501  0.6219
 2638TIP3   OH232108   7.791   9.136   9.398  0.0210 -0.4296  0.5998
 2638TIP3    H132109   7.783   9.231   9.387  0.1040 -0.4634  0.2230
 2638TIP3    H232110   7.701   9.104   9.398  0.0188 -0.4885 -0.6296
 2639TIP3   OH232111   6.821   6.829  10.091 -0.5974  0.4460  0.1510
 2639TIP3    H132112   6.782   6.784  10.166  2.1241 -1.1488  0.7936
 2639TIP3    H232113   6.850   6.913  10.125 -0.3545  0.1744  0.6263
 2640TIP3   OH232114   0.094   6.585  10.347  0.0456 -0.0367 -0.2138
 2640TIP3    H132115   0.096   6.671  10.304 -1.2628  1.2084  2.0107
 2640TIP3    H232116   0.178   6.579  10.392  0.7074 -0.5660 -1.5013
 2641TIP3   OH232117   5.808   5.395  10.490 -0.7436 -0.2994 -0.7473
 2641TIP3    H132118   5.760   5.420  10.411 -0.7659  2.2972 -0.0109
 2641TIP3    H232119   5.900   5.411  10.468 -0.5131 -1.7923 -0.9613
 2642TIP3   OH232120   7.054   0.306  10.342 -0.3332 -0.1307 -0.1110
 2642TIP3    H132121   7.114   0.352  10.400  0.2905  0.3825 -1.1374
 2642TIP3    H232122   7.023   0.231  10.393  3.0221 -1.8143 -0.3295
 2643TIP3   OH232123   1.470   2.556  10.496  0.1878  0.2720  0.0188
 2643TIP3    H132124   1.396   2.601  10.536  1.0764  2.6548 -0.8769
 2643TIP3    H232125   1.433   2.474  10.463 -1.7360  0.7782  0.8000
 2644TIP3   OH232126   1.717   4.293  10.181  0.0709 -0.2817  0.6997
 2644TIP3    H132127   1.797   4.308  10.230 -0.4424 -0.1975  1.5377
 2644TIP3    H232128   1.668   4.375  10.188  0.9881  0.5668 -1.9463
 2645TIP3   OH232129   8.560   4.172  10.584  0.4475 -0.6733 -0.0719
 2645TIP3    H132130   8.602   4.193  10.500 -0.7753  2.2050 -0.0662
 2645TIP3    H232131   8.471   4.206  10.576  0.6977  0.9416  2.8522
 2646TIP3   OH232132   7.505   5.268  11.155 -0.0885 -0.1120  0.0248
 2646TIP3    H132133   7.532   5.176  11.153 -0.5207 -0.2532  0.5127
 2646TIP3    H232134   7.543   5.303  11.235  2.1814  0.8207 -1.3442
 2647TIP3   OH232135   5.807   1.891  10.443  0.1122  0.2206 -0.1371
 2647TIP3    H132136   5.806   1.890  10.348 -0.5577 -1.9442 -0.1492
 2647TIP3    H232137   5.741   1.957  10.466  0.7339  1.2280 -1.1263
 2648TIP3   OH232138   6.083   3.118  10.226 -0.1022 -0.9072  0.3091
 2648TIP3    H132139   6.022   3.096  10.156 -0.4359 -0.3848  0.4315
 2648TIP3    H232140   6.138   3.187  10.190 -0.0037 -0.9302  0.4146
 2649TIP3   OH232141   1.536   6.544  10.267 -0.3495  0.1858  0.4221
 2649TIP3    H132142   1.572   6.628  10.237 -1.2939  0.2967 -0.4363
 2649TIP3    H232143   1.584   6.478  10.218 -0.8752  0.3112 -0.2819
 2650TIP3   OH232144   3.894   5.883  10.203 -0.4421  0.2380  0.5902
 2650TIP3    H132145   3.837   5.951  10.169  1.2723  1.7477  0.6018
 2650TIP3    H232146   3.868   5.804  10.156 -1.5331  1.1926 -0.4654
 2651TIP3   OH232147   9.176   4.661  10.389  0.0388  0.0400  0.0227
 2651TIP3    H132148   9.198   4.643  10.297  0.7647 -0.5635  0.3060
 2651TIP3    H232149   9.118   4.737  10.385 -0.4466 -0.3598 -0.9851
 2652TIP3   OH232150   2.207   2.407  10.175 -0.2868  0.4331 -0.1682
 2652TIP3    H132151   2.152   2.484  10.166  0.3980  0.9529  0.0298
 2652TIP3    H232152   2.162   2.339  10.123 -1.0150  0.8877 -0.1401
 2653TIP3   OH232153   7.897   0.552   9.121  0.0063 -0.0287  0.2511
 2653TIP3    H132154   7.937   0.555   9.035  0.5097 -2.3106  0.3357
 2653TIP3    H232155   7.906   0.461   9.149 -0.1309  0.6244  2.7187
 2654TIP3   OH232156   6.455   7.678  11.072  0.4599 -0.3379 -0.3131
 2654TIP3    H132157   6.419   7.593  11.096  0.9396 -0.5083 -0.1709
 2654TIP3    H232158   6.522   7.658  11.007  1.4415 -0.2143  0.6178
 2655TIP3   OH232159   4.786   2.857  10.146  0.0429 -0.2186 -0.1699
 2655TIP3    H132160   4.712   2.909  10.179  0.1092  0.0229 -0.4023
 2655TIP3    H232161   4.803   2.794  10.216 -1.1909 -1.0918 -0.6327
 2656TIP3   OH232162   9.010   1.238   9.283 -0.0769  0.2002 -0.3658
 2656TIP3    H132163   9.071   1.272   9.348 -2.1939 -1.1422  2.5335
 2656TIP3    H232164   8.926   1.279   9.305 -1.1043 -1.1719 -1.5481
 2657TIP3   OH232165   5.470   1.276   9.033  0.7107 -0.2176 -0.4110
 2657TIP3    H132166   5.475   1.313   9.121 -2.2197 -0.3842 -0.0938
 2657TIP3    H232167   5.551   1.226   9.023  1.8881  1.1815  1.5096
 2658TIP3   OH232168   6.536   8.005  10.756  0.0361  0.1611 -0.3449
 2658TIP3    H132169   6.560   7.912  10.757  0.3052  0.1964  1.6898
 2658TIP3    H232170   6.502   8.021  10.844  0.9892  2.2344 -0.3009
 2659TIP3   OH232171   8.133   4.365  11.159  0.9186  0.0611 -0.1791
 2659TIP3    H132172   8.074   4.428  11.116  0.9095 -0.3568 -0.7950
 2659TIP3    H232173   8.202   4.419  11.197  0.6367  0.4832 -0.2614
 2660TIP3   OH232174   8.191   1.479  10.566 -0.6226  0.6296  0.0052
 2660TIP3    H132175   8.114   1.458  10.618  0.5941 -0.5999  1.4209
 2660TIP3    H232176   8.242   1.538  10.622  0.8652 -0.9729  0.4116
 2661TIP3   OH232177   5.152   5.631  10.677  0.6410 -0.2620  0.3265
 2661TIP3    H132178   5.169   5.653  10.768  0.1676  1.3579  0.0646
 2661TIP3    H232179   5.230   5.663  10.630  1.0841 -1.4853  0.1925
 2662TIP3   OH232180   4.606   6.445   9.482  0.6536 -0.6948 -0.3638
 2662TIP3    H132181   4.581   6.362   9.441 -0.6119 -0.1689 -0.7029
 2662TIP3    H232182   4.523   6.489   9.498  1.3342  0.9453 -1.1144
 2663TIP3   OH232183   3.672   2.850  10.529 -0.3674  0.0391  0.3592
 2663TIP3    H132184   3.672   2.854  10.433 -0.9863 -0.3222  0.3371
 2663TIP3    H232185   3.634   2.765  10.549 -0.5082  0.2341  0.9328
 2664TIP3   OH232186   3.985   7.068   9.638  0.2614 -0.0520 -0.0015
 2664TIP3    H132187   4.059   7.127   9.621 -0.6917  1.6131  1.3427
 2664TIP3    H232188   3.911   7.127   9.656 -1.9300 -1.5789 -3.1034
 2665TIP3   OH232189   3.188   7.143  11.265  0.5299  0.0395  0.4897
 2665TIP3    H132190   3.202   7.191  11.347 -0.3660  1.1127  0.0496
 2665TIP3    H232191   3.150   7.060  11.292  0.3368  0.3393  1.1696
 2666TIP3   OH232192   9.202   4.200  10.235  0.0470  0.3713  0.9122
 2666TIP3    H132193   9.201   4.257  10.312 -1.4854  1.5485  0.0835
 2666TIP3    H232194   9.145   4.245  10.172  2.4710  0.2577 -1.5238
 2667TIP3   OH232195   2.226   6.848   9.914 -0.5823  0.1876  0.6483
 2667TIP3    H132196   2.305   6.824   9.865 -1.6121 -0.2069 -0.9194
 2667TIP3    H232197   2.202   6.769   9.962 -1.3445 -0.5144 -0.8060
 2668TIP3   OH232198   5.033   7.995  11.004  0.1632 -0.5429  0.0612
 2668TIP3    H132199   4.990   8.013  11.087 -0.5624  1.4816 -0.6976
 2668TIP3    H232200   5.125   8.017  11.019 -0.1425  0.7936  0.0725
 2669TIP3   OH232201   9.083   8.218   9.365 -0.4354  0.0302 -0.4998
 2669TIP3    H132202   9.167   8.174   9.352  0.0126  0.6420  0.2242
 2669TIP3    H232203   9.050   8.233   9.276  0.7955  0.8405 -0.8470
 2670TIP3   OH232204   5.298   6.958  10.812  0.4267  0.0609 -0.0147
 2670TIP3    H132205   5.343   6.893  10.759  1.3156  0.5703  0.0858
 2670TIP3    H232206   5.215   6.918  10.834  0.1769 -0.3023 -1.5007
 2671TIP3   OH232207   2.376   1.202  10.103  0.7221  0.1330  0.0080
 2671TIP3    H132208   2.471   1.192  10.108  0.7907  1.1480  1.5538
 2671TIP3    H232209   2.356   1.198  10.010  2.2741 -0.1126 -0.3426
 2672TIP3   OH232210   2.220   0.865   9.482  0.0659 -0.3556  0.0042
 2672TIP3    H132211   2.139   0.865   9.431  1.1442 -0.4511 -1.7806
 2672TIP3    H232212   2.279   0.924   9.434  1.2977 -0.8256  0.8732
 2673TIP3   OH232213   4.028   6.141   9.755  0.6808 -0.0058 -0.6747
 2673TIP3    H132214   3.953   6.082   9.744  0.1306  0.4990  0.2245
 2673TIP3    H232215   3.989   6.224   9.782  1.4056  0.9286 -2.3481
 2674TIP3   OH232216   0.968   7.366  11.013 -0.6472  0.6000 -0.2927
 2674TIP3    H132217   1.016   7.448  11.002  1.3578 -0.0841  2.4580
 2674TIP3    H232218   0.880   7.394  11.038 -0.3001  1.9033 -0.4429
 2675TIP3   OH232219   4.638   0.504  10.781  0.3418 -0.5974 -0.0052
 2675TIP3    H132220   4.590   0.423  10.800 -0.8603  0.6890  3.0917
 2675TIP3    H232221   4.695   0.516  10.856 -0.5245  2.1167  0.3063
 2676TIP3   OH232222   1.912   1.135   9.493  0.3898 -0.4939  1.1347
 2676TIP3    H132223   1.909   1.199   9.422 -0.4861 -0.2454  1.3838
 2676TIP3    H232224   1.885   1.052   9.453  2.2543 -0.9129  0.6363
 2677TIP3   OH232225   4.615   8.132  10.414 -0.3538 -0.1768  0.0898
 2677TIP3    H132226   4.674   8.076  10.364 -1.0545 -1.6448  0.8336
 2677TIP3    H232227   4.671   8.174  10.480  0.1643 -0.0788 -0.4110
 2678TIP3   OH232228   2.597   1.993  10.065  0.2092 -0.0720 -0.8525
 2678TIP3    H132229   2.688   2.022  10.063 -0.1930  1.2242 -1.4300
 2678TIP3    H232230   2.548   2.071  10.092 -0.7775 -0.6346 -0.9739
 2679TIP3   OH232231   1.902   3.035  10.524  0.0217 -0.3521 -0.3378
 2679TIP3    H132232   1.846   3.092  10.471 -0.3443 -0.6357 -0.2559
 2679TIP3    H232233   1.845   3.001  10.592 -0.0901 -1.7972 -1.1140
 2680TIP3   OH232234   8.292   2.803   9.802 -0.4256 -0.1696 -0.4301
 2680TIP3    H132235   8.228   2.806   9.731 -1.1257  1.7764  0.2108
 2680TIP3    H232236   8.273   2.721   9.848 -0.9948 -0.6811 -1.5362
 2681TIP3   OH232237   5.881   8.227   9.695 -0.2296 -0.0862  0.2202
 2681TIP3    H132238   5.970   8.237   9.661 -0.4724 -1.1864 -0.8045
 2681TIP3    H232239   5.862   8.134   9.687 -2.1721  0.3860 -1.4045
 2682TIP3   OH232240   2.420   6.961  10.961 -0.3195  0.1446  0.3118
 2682TIP3    H132241   2.407   6.889  10.898  0.2777  0.9611 -0.7846
 2682TIP3    H232242   2.491   6.930  11.017  0.0613 -0.0584 -0.2667
 2683TIP3   OH232243   2.761   0.897  10.945 -0.1689 -0.1221 -0.5735
 2683TIP3    H132244   2.677   0.937  10.923 -1.2124 -1.1130  1.3661
 2683TIP3    H232245   2.825   0.968  10.934 -1.5384  1.2309 -0.0786
 2684TIP3   OH232246   3.437   3.018  10.294  0.4670  0.0015 -0.1803
 2684TIP3    H132247   3.452   3.087  10.358  0.0479  0.6439 -0.7443
 2684TIP3    H232248   3.344   2.995  10.305  0.7903 -1.0383  0.5292
 2685TIP3   OH232249   8.558   0.697  10.633  0.1158 -0.4470 -0.1011
 2685TIP3    H132250   8.488   0.710  10.568  0.6623 -1.6631 -0.9725
 2685TIP3    H232251   8.513   0.664  10.711 -0.5612  1.1246  0.2081
 2686TIP3   OH232252   6.820   2.649  11.230  0.0066 -0.3429 -0.0123
 2686TIP3    H132253   6.808   2.744  11.232 -0.1524 -0.3662  0.2095
 2686TIP3    H232254   6.788   2.623  11.143  1.4245 -0.0224 -0.6583
 2687TIP3   OH232255   3.621   1.972  10.810  0.0208 -0.1885 -0.5550
 2687TIP3    H132256   3.539   2.002  10.771  0.1387  1.9418  0.6923
 2687TIP3    H232257   3.601   1.963  10.903  0.6518 -1.8533 -0.5384
 2688TIP3   OH232258   8.371   4.179   9.774  0.3970  0.1779 -0.0768
 2688TIP3    H132259   8.341   4.150   9.688  0.1868 -0.1475  0.1085
 2688TIP3    H232260   8.306   4.145   9.835 -0.6206  2.1326  0.0332
 2689TIP3   OH232261   3.306   2.193   9.402  0.2923  0.4162  0.0336
 2689TIP3    H132262   3.393   2.161   9.427  1.4853  3.1615 -0.2334
 2689TIP3    H232263   3.319   2.229   9.314 -1.9664 -2.0097 -1.4273
 2690TIP3   OH232264   4.590   5.771   9.745  0.1288  0.7847  0.3230
 2690TIP3    H132265   4.684   5.791   9.748  0.0302  1.2164  0.6796
 2690TIP3    H232266   4.557   5.825   9.674  0.3496 -0.2609 -0.5966
 2691TIP3   OH232267   5.808   5.411  11.477  0.5344  0.5765 -1.0481
 2691TIP3    H132268   5.774   5.330  11.514  0.0319  0.4887 -1.6887
 2691TIP3    H232269   5.730   5.460  11.451  0.7754  1.7599  0.3425
 2692TIP3   OH232270   4.191   1.458   9.357  0.0985  0.3679  0.2309
 2692TIP3    H132271   4.150   1.533   9.400  0.9094 -0.0619  1.8298
 2692TIP3    H232272   4.134   1.384   9.377  0.0587  0.3046 -0.1149
 2693TIP3   OH232273   4.724   7.099   9.632  0.0839 -0.1373  0.5495
 2693TIP3    H132274   4.736   7.022   9.575 -1.3082 -0.4798  0.6786
 2693TIP3    H232275   4.646   7.078   9.683 -0.0086  1.1555  0.9585
 2694TIP3   OH232276   1.757   7.707  10.199 -0.9209 -0.3967 -0.5424
 2694TIP3    H132277   1.716   7.705  10.112  0.6605 -2.0885 -1.3216
 2694TIP3    H232278   1.850   7.715  10.181 -0.6124 -0.0805  1.0557
 2695TIP3   OH232279   3.718   1.205   9.457 -0.2715 -0.2936  0.2667
 2695TIP3    H132280   3.653   1.249   9.402 -0.0449 -1.1431 -0.6919
 2695TIP3    H232281   3.671   1.132   9.496 -0.3815  0.1987  1.0777
 2696TIP3   OH232282   5.592   2.021  11.270 -0.5644  0.2049 -0.6066
 2696TIP3    H132283   5.610   2.014  11.364 -0.9118  0.2213 -0.5360
 2696TIP3    H232284   5.649   2.091  11.239  0.8943 -1.0013 -0.7687
 2697TIP3   OH232285   0.460   8.373  10.627  0.2522  0.0843 -0.4945
 2697TIP3    H132286   0.404   8.314  10.677  0.3699  1.0933  0.9018
 2697TIP3    H232287   0.399   8.439  10.592  0.4608  0.8941  0.6019
 2698TIP3   OH232288   0.835   5.530   9.662 -0.0830 -0.1253 -0.4903
 2698TIP3    H132289   0.852   5.614   9.704 -1.1954  0.1535 -0.5672
 2698TIP3    H232290   0.847   5.465   9.732 -1.2835  0.2845  0.1178
 2699TIP3   OH232291   2.234   8.814   9.698  0.0868  0.5536  0.3510
 2699TIP3    H132292   2.292   8.772   9.634  0.1010  0.9990  0.0698
 2699TIP3    H232293   2.239   8.907   9.678  0.4508  0.7472  1.2999
 2700TIP3   OH232294   7.026   7.221   9.390 -0.0340 -0.0310  0.1692
 2700TIP3    H132295   7.025   7.213   9.486 -1.7633 -1.0764  0.1095
 2700TIP3    H232296   7.098   7.165   9.361 -0.1990 -0.5803  0.8053
 2701TIP3   OH232297   0.571   0.016  10.035 -0.0813  0.3779 -0.1085
 2701TIP3    H132298   0.482   0.042  10.014 -0.3980 -1.4764 -1.3186
 2701TIP3    H232299   0.623   0.096  10.023 -1.5013  1.3761  0.2111
 2702TIP3   OH232300   0.319   3.442  10.197  0.3956  0.0451 -0.4343
 2702TIP3    H132301   0.308   3.510  10.130  1.4400  0.5334 -0.1344
 2702TIP3    H232302   0.385   3.478  10.256 -0.2932 -0.5054  0.6970
 2703TIP3   OH232303   8.410   1.406  10.783  0.5090 -0.0417  0.1434
 2703TIP3    H132304   8.391   1.498  10.803  0.2529 -0.0297 -0.1501
 2703TIP3    H232305   8.372   1.392  10.697  0.3023 -0.5017  0.3074
 2704TIP3   OH232306   5.754   7.636  10.570 -0.4055  0.5936 -0.3842
 2704TIP3    H132307   5.792   7.648  10.483 -2.5393  0.2322 -1.4324
 2704TIP3    H232308   5.794   7.555  10.603  0.5945  0.8566 -0.9003
 2705TIP3   OH232309   1.754   0.324  10.947 -0.1610  0.3056 -0.2859
 2705TIP3    H132310   1.801   0.250  10.984  2.0523  1.1521 -1.2380
 2705TIP3    H232311   1.707   0.287  10.872  0.3481 -0.2697 -0.3315
 2706TIP3   OH232312   0.843   0.989   9.010  0.4864  0.0729 -0.3095
 2706TIP3    H132313   0.776   0.927   8.985  0.3564  0.0532  0.0869
 2706TIP3    H232314   0.805   1.075   8.991 -0.4080  0.1554  1.6823
 2707TIP3   OH232315   0.236   4.202  11.088  0.5290  0.3133 -0.0963
 2707TIP3    H132316   0.283   4.177  11.168 -0.2338 -1.0883 -0.0525
 2707TIP3    H232317   0.289   4.163  11.017 -0.9781 -2.1613  0.0034
 2708TIP3   OH232318   0.234   9.024   9.817  0.1299  0.1672 -0.1048
 2708TIP3    H132319   0.219   9.109   9.776  0.4291  0.0462 -0.4576
 2708TIP3    H232320   0.328   9.018   9.829  0.5295 -1.5058 -3.1046
 2709TIP3   OH232321   7.845   8.046  10.673  0.0845  0.0355 -0.0103
 2709TIP3    H132322   7.939   8.060  10.669  0.3365 -1.6064 -0.5466
 2709TIP3    H232323   7.809   8.097  10.600  0.5893  0.4403  0.0254
 2710TIP3   OH232324   7.182   2.520   9.099 -0.1418 -0.6714 -0.3036
 2710TIP3    H132325   7.089   2.495   9.098 -0.1280 -0.7411  0.0356
 2710TIP3    H232326   7.187   2.597   9.043 -0.2774 -1.1110 -0.9394
 2711TIP3   OH232327   3.871   4.883  10.598  0.2412 -0.2375  0.4928
 2711TIP3    H132328   3.907   4.872  10.510  1.1560 -0.8961  0.9294
 2711TIP3    H232329   3.782   4.913  10.583  0.7602  0.8604 -0.6375
 2712TIP3   OH232330   0.407   1.702  10.243  0.0220  0.8221  0.0995
 2712TIP3    H132331   0.374   1.617  10.270  2.0527 -0.1726 -0.3310
 2712TIP3    H232332   0.493   1.709  10.286 -0.4413  3.0536  0.8184
 2713TIP3   OH232333   1.761   5.602  10.516 -0.2637 -0.2991 -0.0707
 2713TIP3    H132334   1.823   5.637  10.452 -0.4926  0.0473 -0.1057
 2713TIP3    H232335   1.809   5.532  10.560 -0.4804 -1.3816 -1.4479
 2714TIP3   OH232336   1.923   8.566  10.028  0.5127  0.2354 -0.4624
 2714TIP3    H132337   1.997   8.573  10.089  1.7522 -0.6164 -1.7949
 2714TIP3    H232338   1.963   8.536   9.947 -1.5686 -2.3560 -0.6432
 2715TIP3   OH232339   4.534   8.503  10.824 -0.2380  0.1527  0.0046
 2715TIP3    H132340   4.463   8.498  10.889 -0.2016  1.6855  0.1971
 2715TIP3    H232341   4.490   8.490  10.740 -0.7028  0.6559  0.1587
 2716TIP3   OH232342   0.386   6.994  10.940  0.0156 -0.3343 -0.2049
 2716TIP3    H132343   0.481   6.981  10.946 -0.2009 -1.2970  2.3629
 2716TIP3    H232344   0.349   6.907  10.952 -1.2104  0.5584  3.8112
 2717TIP3   OH232345   3.958   3.066  10.497  0.2311 -0.1190 -0.3751
 2717TIP3    H132346   3.970   3.160  10.511 -0.9666  0.0148 -0.1976
 2717TIP3    H232347   3.894   3.039  10.562  0.8903 -1.1695 -0.1209
 2718TIP3   OH232348   3.519   2.428   9.400  0.4183 -0.2601  0.0847
 2718TIP3    H132349   3.598   2.381   9.374 -0.6125 -1.8458 -0.3101
 2718TIP3    H232350   3.455   2.407   9.332 -0.5132  0.5328  0.6967
 2719TIP3   OH232351   6.455   5.503  10.838  0.3739 -0.1151 -0.6210
 2719TIP3    H132352   6.426   5.568  10.901  1.8216  1.2023 -1.2721
 2719TIP3    H232353   6.508   5.441  10.889 -1.0828 -0.9007  0.0147
 2720TIP3   OH232354   4.623   1.292   9.504 -0.2828  0.1081 -0.2837
 2720TIP3    H132355   4.588   1.223   9.448  0.9184  1.2130 -2.5678
 2720TIP3    H232356   4.560   1.364   9.496 -0.5357 -0.0257  0.4834
 2721TIP3   OH232357   0.202   2.262  10.991 -0.1118 -0.3826  0.3037
 2721TIP3    H132358   0.112   2.255  10.960 -0.0490  2.5402 -0.9232
 2721TIP3    H232359   0.231   2.348  10.960  2.6937 -0.6863  1.7482
 2722TIP3   OH232360   0.482   2.332  11.272  0.8321 -0.0005  0.0908
 2722TIP3    H132361   0.405   2.320  11.328  0.9098  1.1110  0.4606
 2722TIP3    H232362   0.487   2.251  11.221 -0.0567 -0.4583  0.6963
 2723TIP3   OH232363   9.141   7.228  10.084 -0.2553  0.5125  0.5133
 2723TIP3    H132364   9.230   7.235  10.120  0.3620  0.0877 -0.8656
 2723TIP3    H232365   9.084   7.230  10.161  1.0503 -1.3062  1.6065
 2724TIP3   OH232366   8.261   5.480  10.503  0.3730 -0.3199 -0.1796
 2724TIP3    H132367   8.311   5.458  10.582  1.4445 -0.9710 -1.0112
 2724TIP3    H232368   8.195   5.410  10.497 -0.5882  0.4602  0.8380
 2725TIP3   OH232369   1.911   2.088  10.829  0.9270 -0.2137  0.0383
 2725TIP3    H132370   1.846   2.112  10.763 -0.0709 -0.2061  0.9865
 2725TIP3    H232371   1.907   1.993  10.834 -0.3251 -0.1273  1.3376
 2726TIP3   OH232372   5.006   1.354  10.935  0.0671 -0.1355 -0.6824
 2726TIP3    H132373   4.926   1.319  10.975  1.0551 -0.8133  0.7736
 2726TIP3    H232374   5.005   1.320  10.845 -1.7842  0.7223 -1.0359
 2727TIP3   OH232375   4.145   1.777   9.249 -0.4089  0.5878  0.4629
 2727TIP3    H132376   4.140   1.847   9.185 -1.2440 -0.8034 -1.0781
 2727TIP3    H232377   4.101   1.703   9.207  0.8945 -1.0278  1.7838
 2728TIP3   OH232378   3.026   6.426  10.826 -0.2534 -0.0256 -0.3471
 2728TIP3    H132379   3.053   6.340  10.857 -1.7714 -0.0567  0.9970
 2728TIP3    H232380   3.097   6.454  10.768  0.2308 -2.2025 -0.8932
 2729TIP3   OH232381   5.697   6.425  10.231 -0.1396 -0.2050 -0.1208
 2729TIP3    H132382   5.731   6.336  10.224  2.2894  0.7382 -1.3972
 2729TIP3    H232383   5.750   6.466  10.300 -0.6630  0.4927 -0.1192
 2730TIP3   OH232384   0.652   1.207   9.664 -0.0687 -0.0149  0.3523
 2730TIP3    H132385   0.560   1.191   9.641 -0.4491  0.1429  1.6677
 2730TIP3    H232386   0.659   1.302   9.671  0.2988 -0.0051 -0.1331
 2731TIP3   OH232387   4.683   6.682   9.693  0.8270  0.1058  0.5028
 2731TIP3    H132388   4.712   6.732   9.617 -1.3582  1.4644  0.4847
 2731TIP3    H232389   4.606   6.633   9.662 -0.3907  1.0474  1.8910
 2732TIP3   OH232390   6.754   5.573  10.177 -0.7458 -0.5631 -0.7860
 2732TIP3    H132391   6.778   5.498  10.123 -1.0324 -0.4789 -1.0294
 2732TIP3    H232392   6.801   5.647  10.137 -0.0218 -0.7057 -0.2186
 2733TIP3   OH232393   8.869   3.537   9.131  0.2552 -0.4894 -0.0626
 2733TIP3    H132394   8.865   3.455   9.180 -0.5189 -0.6012 -0.3050
 2733TIP3    H232395   8.955   3.536   9.089  0.3859 -1.0084  0.2151
 2734TIP3   OH232396   8.644   2.958  10.440 -0.0072 -0.4674  0.3293
 2734TIP3    H132397   8.648   2.975  10.534 -2.1535 -1.0500  0.5657
 2734TIP3    H232398   8.669   2.866  10.430  1.3123 -0.1226  0.1616
 2735TIP3   OH232399   0.728   7.560  10.065 -0.4693  0.5430 -0.1698
 2735TIP3    H132400   0.713   7.478  10.017 -2.6442  0.7718  0.0346
 2735TIP3    H232401   0.820   7.581  10.047 -0.1815 -1.3205 -1.1808
 2736TIP3   OH232402   8.845   1.214  11.175  0.6211 -0.1237 -0.0878
 2736TIP3    H132403   8.889   1.132  11.156  1.1173  0.1643 -0.1997
 2736TIP3    H232404   8.915   1.278  11.186  0.2322  0.5865 -1.3907
 2737TIP3   OH232405   1.300   2.190  10.772  0.4273 -0.9586 -0.5067
 2737TIP3    H132406   1.388   2.162  10.748  0.9465 -0.3611  0.6108
 2737TIP3    H232407   1.277   2.135  10.847  1.0008  0.7509  0.9828
 2738TIP3   OH232408   6.335   5.661  10.642 -0.3614  0.1871  0.1032
 2738TIP3    H132409   6.240   5.671  10.634 -0.3502 -0.6704 -1.6888
 2738TIP3    H232410   6.349   5.635  10.732 -1.8107  0.4865  0.4425
 2739TIP3   OH232411   5.212   3.389  10.846 -0.3668  0.1559  0.2409
 2739TIP3    H132412   5.286   3.412  10.902 -0.3925 -2.7475  1.6495
 2739TIP3    H232413   5.147   3.457  10.863  1.7566  2.6279 -0.8199
 2740TIP3   OH232414   1.894   4.957  10.049 -0.2266 -0.6199  0.0498
 2740TIP3    H132415   1.875   5.050  10.057 -3.9147 -1.3103  1.2899
 2740TIP3    H232416   1.916   4.929  10.138 -0.9628 -1.2227  0.0529
 2741TIP3   OH232417   0.754   2.932  11.323 -0.3241 -0.2412 -0.1424
 2741TIP3    H132418   0.809   2.996  11.279  0.9544 -0.0268  1.6592
 2741TIP3    H232419   0.716   2.981  11.397 -0.3612 -1.2087  0.4945
 2742TIP3   OH232420   7.717   5.289  11.393 -0.4866  0.0142 -0.3969
 2742TIP3    H132421   7.729   5.204  11.352  0.0715  0.9571 -2.3063
 2742TIP3    H232422   7.806   5.324  11.401 -0.6372  0.1124  1.1113
 2743TIP3   OH232423   6.226   2.106   9.503 -0.0568  0.3307 -0.4671
 2743TIP3    H132424   6.291   2.129   9.436 -0.2599 -0.2421 -0.8768
 2743TIP3    H232425   6.196   2.018   9.477 -0.1135  0.0893  0.4006
 2744TIP3   OH232426   0.174   0.488   9.700  0.0765 -0.3666 -0.2015
 2744TIP3    H132427   0.151   0.416   9.642 -0.4475 -0.7893  0.5250
 2744TIP3    H232428   0.270   0.492   9.697  0.0515 -0.3377 -1.1412
 2745TIP3   OH232429   1.355   1.315  10.560  0.4647 -0.1262  0.0785
 2745TIP3    H132430   1.307   1.380  10.507 -1.3227 -1.0951  0.4174
 2745TIP3    H232431   1.403   1.368  10.624 -1.0209  0.9007  0.4099
 2746TIP3   OH232432   0.004   2.876  11.114  0.3866  0.4877 -0.1916
 2746TIP3    H132433  -0.063   2.808  11.126 -1.4251  1.6134 -3.0980
 2746TIP3    H232434  -0.037   2.955  11.148  0.9788  0.8543 -0.3353
 2747TIP3   OH232435   7.806   2.587  10.756  1.0928  0.1015 -0.5107
 2747TIP3    H132436   7.743   2.516  10.742 -0.7676  1.6960 -0.6099
 2747TIP3    H232437   7.822   2.623  10.669  1.7088  0.0813 -0.4097
 2748TIP3   OH232438   5.221   6.922  10.462 -0.0722  0.1018 -0.1071
 2748TIP3    H132439   5.287   6.885  10.521 -0.7203 -0.6176  0.1842
 2748TIP3    H232440   5.228   6.870  10.382 -0.8122 -0.5243  0.2132
 2749TIP3   OH232441   6.132   8.833   9.948  0.1494 -0.0790  0.1766
 2749TIP3    H132442   6.107   8.745   9.920  0.2806 -0.0298 -0.1011
 2749TIP3    H232443   6.141   8.826  10.043  2.8289 -1.0817 -0.0641
 2750TIP3   OH232444   6.618   7.334  11.307  0.3148  0.2393  0.0106
 2750TIP3    H132445   6.530   7.339  11.271  0.9061  0.7307 -1.4250
 2750TIP3    H232446   6.632   7.241  11.323  0.2866 -0.1031 -1.7570
 2751TIP3   OH232447   4.656   5.862  10.132 -0.6291  0.4165  0.0181
 2751TIP3    H132448   4.593   5.795  10.161 -1.0847  1.3392  1.2632
 2751TIP3    H232449   4.604   5.943  10.129  0.4678  1.1836  1.0052
 2752TIP3   OH232450   6.867   3.603   9.298  0.1828 -0.2992 -0.2229
 2752TIP3    H132451   6.895   3.514   9.323 -1.1740 -1.4360 -2.4267
 2752TIP3    H232452   6.948   3.647   9.273  0.8162 -1.1355  0.2712
 2753TIP3   OH232453   9.109   4.159   9.745  0.1849 -0.3042 -0.0776
 2753TIP3    H132454   9.051   4.096   9.789  0.0779 -0.5224 -0.5284
 2753TIP3    H232455   9.080   4.159   9.654  0.5775 -0.0514 -0.2041
 2754TIP3   OH232456   7.639   5.812   9.920  0.3507 -0.1835  0.2223
 2754TIP3    H132457   7.618   5.904   9.908 -1.0166 -0.4142  0.6544
 2754TIP3    H232458   7.559   5.766   9.893  1.1253 -1.2663 -0.3118
 2755TIP3   OH232459   2.807   1.106   9.791  0.6515 -0.1148  0.1215
 2755TIP3    H132460   2.806   1.062   9.706 -0.1133 -0.5521  0.3426
 2755TIP3    H232461   2.801   1.035   9.854  1.7145  0.1782  0.5616
 2756TIP3   OH232462   0.758   7.383   9.756  0.3665 -0.0356 -0.0593
 2756TIP3    H132463   0.790   7.436   9.684  0.3758  0.3115  0.1994
 2756TIP3    H232464   0.835   7.337   9.789  0.3811 -0.1144 -0.2045
 2757TIP3   OH232465   3.228   5.105   9.465  0.2383 -0.1047 -0.3590
 2757TIP3    H132466   3.205   5.197   9.459  0.4892 -0.0341 -0.2499
 2757TIP3    H232467   3.153   5.059   9.426 -0.3062  0.1004  0.4034
 2758TIP3   OH232468   6.978   5.426  10.440 -0.1204  0.0530 -0.1303
 2758TIP3    H132469   6.993   5.386  10.525  0.6228  1.6401  0.5124
 2758TIP3    H232470   7.023   5.369  10.378  1.0779 -0.0074  0.7785
 2759TIP3   OH232471   8.608   5.289   9.923  0.2351  0.3109  0.0471
 2759TIP3    H132472   8.536   5.353   9.922 -0.6722 -0.6870 -1.0411
 2759TIP3    H232473   8.687   5.343   9.926 -0.5282  1.4380  1.8295
 2760TIP3   OH232474   1.019   2.535  10.479 -0.2509  0.3771  0.0709
 2760TIP3    H132475   1.095   2.555  10.425 -0.6504  0.4771 -0.4640
 2760TIP3    H232476   1.048   2.466  10.538  0.6166  1.2695  0.7168
 2761TIP3   OH232477   6.859   8.882  10.390 -0.3394 -0.2886 -0.5541
 2761TIP3    H132478   6.896   8.795  10.393 -0.5307 -0.3555  0.3938
 2761TIP3    H232479   6.875   8.913  10.301 -1.4392 -1.7954 -1.3123
 2762TIP3   OH232480   7.152   3.470  10.572 -0.0552  0.0349 -0.4356
 2762TIP3    H132481   7.089   3.510  10.513  0.8296  1.8343 -0.2301
 2762TIP3    H232482   7.226   3.531  10.573  2.0696 -2.3021 -1.2696
 2763TIP3   OH232483   6.405   8.604  10.058 -0.0121  0.2380  0.2239
 2763TIP3    H132484   6.373   8.614  10.147  1.9409  1.6289  0.8152
 2763TIP3    H232485   6.433   8.692  10.032 -0.1531 -0.2182 -1.6276
 2764TIP3   OH232486   2.161   5.699   9.920 -0.1227 -0.1999  0.1824
 2764TIP3    H132487   2.247   5.698   9.878  0.3480 -2.1854  1.0823
 2764TIP3    H232488   2.111   5.630   9.876 -1.1109  0.5943  0.0109
 2765TIP3   OH232489   8.590   6.554  10.674  0.3364 -0.3588 -0.7756
 2765TIP3    H132490   8.527   6.603  10.727  1.0980 -0.4238  0.2230
 2765TIP3    H232491   8.667   6.611  10.669  0.4832 -0.6006 -1.3312
 2766TIP3   OH232492   3.923   0.905  10.141 -0.1212 -0.0409  0.1284
 2766TIP3    H132493   3.842   0.943  10.108  0.1138  0.4119  0.0598
 2766TIP3    H232494   3.915   0.811  10.125 -1.4874 -0.2912  1.8775
 2767TIP3   OH232495   0.912   1.080  10.966 -0.5688  0.6584 -0.3587
 2767TIP3    H132496   0.950   0.995  10.943  0.0978  0.9975 -0.5415
 2767TIP3    H232497   0.825   1.059  11.000 -1.0413  0.0329 -1.8763
 2768TIP3   OH232498   3.205   1.562  10.000  0.4605  0.0347  0.1773
 2768TIP3    H132499   3.244   1.649  10.012 -0.8798  0.4320  2.2333
 2768TIP3    H232500   3.273   1.501  10.027  1.1631  0.4601 -0.5780
 2769TIP3   OH232501   4.236   3.340  10.268  0.3532 -0.5384 -0.1488
 2769TIP3    H132502   4.165   3.361  10.207  0.9612  1.3817 -0.2857
 2769TIP3    H232503   4.316   3.354  10.217  0.8668 -2.5451  0.0437
 2770TIP3   OH232504   5.959   8.251  10.881 -0.2964 -0.2726 -0.2929
 2770TIP3    H132505   5.944   8.248  10.975  0.5840  0.5256 -0.1229
 2770TIP3    H232506   6.002   8.335  10.865 -0.0641 -0.5720 -1.3502
 2771TIP3   OH232507   8.414   4.788  10.174  0.3129 -0.3634 -0.0310
 2771TIP3    H132508   8.429   4.872  10.217  2.1209 -0.4028 -0.4940
 2771TIP3    H232509   8.349   4.744  10.229  1.0169  0.4257  1.4939
 2772TIP3   OH232510   4.225   5.963  10.737 -0.1989 -0.4741 -0.0533
 2772TIP3    H132511   4.244   6.053  10.763 -0.0325 -0.3274 -0.6584
 2772TIP3    H232512   4.177   5.926  10.811  0.0693 -0.0104  0.3628
 2773TIP3   OH232513   6.268   2.916   9.910  0.1187 -0.5275  0.3977
 2773TIP3    H132514   6.200   2.901   9.975  1.1535  0.0924  1.6884
 2773TIP3    H232515   6.226   2.967   9.841 -1.1480 -1.6828  0.2737
 2774TIP3   OH232516   2.850   1.251  10.849 -0.3033  0.3044 -0.1592
 2774TIP3    H132517   2.933   1.205  10.865 -1.1773 -1.1703  0.2674
 2774TIP3    H232518   2.833   1.298  10.930 -0.4868 -0.3712  0.1998
 2775TIP3   OH232519   6.192   0.296  10.648  1.0543 -0.1733 -0.1991
 2775TIP3    H132520   6.101   0.311  10.623  1.0691 -0.7620 -0.6397
 2775TIP3    H232521   6.188   0.235  10.722  1.0802 -0.0393 -0.0885
 2776TIP3   OH232522   2.678   8.431  10.739 -0.1990  0.1072  0.0902
 2776TIP3    H132523   2.737   8.507  10.741  0.2164 -0.1032 -2.0493
 2776TIP3    H232524   2.734   8.358  10.766  0.9970 -0.3114 -3.1368
 2777TIP3   OH232525   7.713   7.508  10.498 -0.0881 -0.2233  0.0477
 2777TIP3    H132526   7.792   7.493  10.550 -0.7478  2.0389  1.8443
 2777TIP3    H232527   7.641   7.484  10.556 -0.8739 -4.1130 -2.1915
 2778TIP3   OH232528   2.939   4.404  10.734 -0.1622 -0.2867  0.3416
 2778TIP3    H132529   2.987   4.486  10.721  0.4052 -0.5442  0.7918
 2778TIP3    H232530   2.847   4.432  10.743 -0.1924  0.1490 -1.1255
 2779TIP3   OH232531   2.162   0.824  11.085  0.1940  0.8116 -0.6565
 2779TIP3    H132532   2.120   0.738  11.083 -2.0064  1.8472 -1.6182
 2779TIP3    H232533   2.185   0.842  10.994 -2.0616  2.4305 -0.9894
 2780TIP3   OH232534   7.782   6.688   9.736  0.4089  0.3262  0.3035
 2780TIP3    H132535   7.732   6.639   9.802 -1.1130 -1.1400 -1.8335
 2780TIP3    H232536   7.719   6.748   9.698  0.7919 -0.0941 -1.0222
 2781TIP3   OH232537   4.372   1.850   9.361 -0.2591  0.1235  0.5084
 2781TIP3    H132538   4.285   1.820   9.333  0.3216 -0.6752 -0.5278
 2781TIP3    H232539   4.387   1.930   9.312 -0.3648  0.2089  0.6138
 2782TIP3   OH232540   2.176   7.706  10.712  0.3946 -0.2933  0.2673
 2782TIP3    H132541   2.156   7.630  10.766 -1.8453 -0.1309 -0.2186
 2782TIP3    H232542   2.232   7.672  10.642  0.0899 -1.3306  0.5132
 2783TIP3   OH232543   7.187   1.402  10.103  0.4242  0.4754 -0.0703
 2783TIP3    H132544   7.198   1.492  10.134 -0.7149  0.3918  0.6479
 2783TIP3    H232545   7.248   1.394  10.030  3.1383  0.7439  1.9979
 2784TIP3   OH232546   1.183   2.833   9.262 -0.3750 -0.0441 -0.2024
 2784TIP3    H132547   1.189   2.851   9.355 -0.2801  1.5051 -0.4830
 2784TIP3    H232548   1.252   2.769   9.244  0.8467  1.0570  0.4615
 2785TIP3   OH232549   3.475   3.181  11.058  0.1127 -0.2849  0.3213
 2785TIP3    H132550   3.541   3.115  11.038 -0.9381 -0.9195 -1.3015
 2785TIP3    H232551   3.431   3.148  11.136  0.6890 -0.6495  0.5006
 2786TIP3   OH232552   4.772   1.259  10.980 -0.4309  0.1725  0.6264
 2786TIP3    H132553   4.764   1.168  10.953  0.6549 -0.0760  1.1064
 2786TIP3    H232554   4.701   1.304  10.934 -0.1675 -0.6732 -0.6508
 2787TIP3   OH232555   3.124   4.904  10.451 -0.2060 -0.5787 -0.1624
 2787TIP3    H132556   3.160   4.881  10.366 -0.1127 -0.3037 -0.1994
 2787TIP3    H232557   3.052   4.843  10.465  0.3664 -1.2473 -0.0186
 2788TIP3   OH232558   5.492   5.126  10.792 -0.4681  0.1022 -0.2958
 2788TIP3    H132559   5.539   5.186  10.734  0.5107  0.3081  0.6793
 2788TIP3    H232560   5.560   5.072  10.831 -0.9156  0.8636  1.6786
 2789TIP3   OH232561   4.714   7.832  11.147 -0.5359  0.3926  0.2399
 2789TIP3    H132562   4.761   7.827  11.064  0.3132 -0.4118  0.7375
 2789TIP3    H232563   4.697   7.740  11.170 -0.8040  0.6065  0.9208
 2790TIP3   OH232564   4.792   3.488   9.679  0.2826 -1.1202 -0.0617
 2790TIP3    H132565   4.873   3.467   9.726  0.5386  3.2232  2.0149
 2790TIP3    H232566   4.730   3.508   9.749 -0.8449  0.8625 -1.5408
 2791TIP3   OH232567   8.094   4.746  11.196  0.0817 -0.2435  0.3087
 2791TIP3    H132568   8.059   4.739  11.107  0.2845 -0.4282  0.2417
 2791TIP3    H232569   8.184   4.715  11.188 -0.4028 -1.8880  0.8973
 2792TIP3   OH232570   8.044   2.518   9.718 -0.2257 -0.0948  0.0922
 2792TIP3    H132571   8.009   2.440   9.676 -0.9681 -0.6320  1.6447
 2792TIP3    H232572   7.971   2.579   9.723  0.7856  1.5806 -2.8752
 2793TIP3   OH232573   9.009   2.009   9.340 -0.3380 -0.1089 -0.0232
 2793TIP3    H132574   8.917   1.983   9.338 -0.1930 -0.6158 -1.0830
 2793TIP3    H232575   9.017   2.064   9.417 -1.7351  0.7145 -0.4323
 2794TIP3   OH232576   1.594   3.330  11.100 -0.0907 -0.5116 -0.0363
 2794TIP3    H132577   1.659   3.280  11.051  0.5198 -0.5581  0.7914
 2794TIP3    H232578   1.642   3.364  11.175 -0.3860  1.5910 -0.7262
 2795TIP3   OH232579   2.518   4.061  11.046  0.1770  0.1703  0.0322
 2795TIP3    H132580   2.500   4.155  11.045 -0.2622  0.1246  1.1533
 2795TIP3    H232581   2.491   4.030  10.960 -0.9964  0.8630  0.1171
 2796TIP3   OH232582   2.861   1.905   9.641  0.2542  0.1017 -0.2291
 2796TIP3    H132583   2.841   1.854   9.720  0.0047  0.0783 -0.3051
 2796TIP3    H232584   2.921   1.850   9.591 -0.5951 -0.4518 -0.6632
 2797TIP3   OH232585   8.033   2.632  10.178  0.5194 -0.6440  0.0929
 2797TIP3    H132586   7.984   2.627  10.096  0.7232 -0.3015 -0.0547
 2797TIP3    H232587   8.045   2.726  10.192  1.5685 -0.7313 -0.1402
 2798TIP3   OH232588   1.509   4.452  10.191 -0.1239  0.6576  0.1349
 2798TIP3    H132589   1.483   4.543  10.205 -1.7029  0.2547  0.0300
 2798TIP3    H232590   1.440   4.401  10.233  0.3657 -0.4941 -0.4180
 2799TIP3   OH232591   5.482   5.303  10.416 -0.5234 -0.6629  0.1802
 2799TIP3    H132592   5.397   5.260  10.416 -0.4324 -0.8673  1.2888
 2799TIP3    H232593   5.538   5.247  10.471  0.0828 -0.0683  0.1889
 2800TIP3   OH232594   6.730   1.149   9.205  0.1797 -0.0799  0.2837
 2800TIP3    H132595   6.662   1.090   9.237  0.8755 -1.1358 -0.1256
 2800TIP3    H232596   6.701   1.236   9.232 -0.1576 -0.7319  2.1705
 2801TIP3   OH232597   5.622   8.969  11.126 -0.8501 -0.7492 -0.1997
 2801TIP3    H132598   5.699   8.933  11.083 -1.2073 -2.2802  0.3688
 2801TIP3    H232599   5.588   8.897  11.179 -1.0527  0.7153  1.7832
 2802TIP3   OH232600   8.742   6.672  10.453 -0.1904  0.3819  0.3147
 2802TIP3    H132601   8.699   6.750  10.417  2.4090  1.0713 -1.5493
 2802TIP3    H232602   8.792   6.636  10.380  1.8889 -0.7155  2.1660
 2803TIP3   OH232603   1.568   5.839  10.484 -0.0486 -0.0837 -0.2549
 2803TIP3    H132604   1.539   5.897  10.415  2.7593  1.2210 -0.4595
 2803TIP3    H232605   1.600   5.761  10.439 -0.0787 -0.0811 -0.2803
 2804TIP3   OH232606   3.042   2.788   9.315 -0.0195 -0.1431  0.0470
 2804TIP3    H132607   3.040   2.874   9.271  0.9373 -0.2196 -0.1687
 2804TIP3    H232608   2.998   2.803   9.398 -2.3309 -0.1082 -1.0930
 2805TIP3   OH232609   6.779   1.373  10.675  0.5450 -0.2628  0.5966
 2805TIP3    H132610   6.737   1.456  10.696  1.5099  0.1662  0.9050
 2805TIP3    H232611   6.864   1.378  10.719  0.8973 -1.1121  0.0314
 2806TIP3   OH232612   1.178   2.795   9.800  0.3402 -0.7544 -0.2560
 2806TIP3    H132613   1.258   2.797   9.852  0.7345 -1.1571 -0.8410
 2806TIP3    H232614   1.137   2.711   9.822  0.7786 -1.1688 -0.9866
 2807TIP3   OH232615   4.283   8.109  10.172 -0.2996  0.1810  0.3503
 2807TIP3    H132616   4.372   8.140  10.191  0.3339 -0.7766 -0.8884
 2807TIP3    H232617   4.242   8.182  10.124  0.8645 -0.4530 -1.7254
 2808TIP3   OH232618   8.792   3.224  10.883 -0.6229 -0.2254  0.2773
 2808TIP3    H132619   8.804   3.302  10.936  1.3876  1.2574 -2.1421
 2808TIP3    H232620   8.879   3.185  10.878 -1.2543 -1.6561 -0.0156
 2809TIP3   OH232621   9.041   3.632  10.664 -0.1207 -0.6413 -0.5540
 2809TIP3    H132622   9.027   3.685  10.742 -0.3597 -0.6936 -0.5602
 2809TIP3    H232623   8.957   3.634  10.618 -1.3434 -3.8781  1.1795
 2810TIP3   OH232624   8.986   7.038   9.960 -0.1066 -0.0705 -0.1099
 2810TIP3    H132625   8.959   7.082   9.879  0.0422 -0.2818 -0.2765
 2810TIP3    H232626   9.041   7.102  10.005  0.9829 -0.4554 -0.8507
 2811TIP3   OH232627   2.046   0.232  10.100  0.8282  0.1349 -0.6617
 2811TIP3    H132628   2.058   0.142  10.130 -1.2595  0.5665  1.9084
 2811TIP3    H232629   2.120   0.280  10.138 -0.1326  0.1058  1.4121
 2812TIP3   OH232630   3.539   6.817  10.759  0.4212 -0.0584  0.7251
 2812TIP3    H132631   3.616   6.872  10.765  0.9313 -0.8701  2.4473
 2812TIP3    H232632   3.567   6.740  10.710  0.0815  0.5904 -0.5151
 2813TIP3   OH232633   5.055   6.852  10.895 -0.7726 -0.5203  0.3670
 2813TIP3    H132634   4.991   6.920  10.876 -0.8859 -0.8709 -0.5792
 2813TIP3    H232635   5.053   6.842  10.990  1.0583  2.5477  0.8425
 2814TIP3   OH232636   8.607   2.597  11.036 -0.0550  0.2999  0.0288
 2814TIP3    H132637   8.559   2.515  11.045  1.3013 -0.4790  0.4022
 2814TIP3    H232638   8.549   2.653  10.984 -0.4909 -1.2963 -1.2825
 2815TIP3   OH232639   8.495   0.475  10.996  0.0544  0.3012  0.1303
 2815TIP3    H132640   8.531   0.552  11.040  0.6425 -1.1889  2.4462
 2815TIP3    H232641   8.560   0.453  10.928  1.3116  0.2431  1.3142
 2816TIP3   OH232642   8.453   7.813   9.940  0.0490  0.1212 -0.6064
 2816TIP3    H132643   8.375   7.796   9.887  0.2841  1.2503 -1.3541
 2816TIP3    H232644   8.521   7.759   9.901  0.1086  0.6062 -1.1902
 2817TIP3   OH232645   7.111   6.084  10.914 -0.1408  0.3260 -0.1412
 2817TIP3    H132646   7.065   6.062  10.833 -1.2677 -0.4538  0.6750
 2817TIP3    H232647   7.147   6.000  10.945 -1.9594  0.0809  1.4871
 2818TIP3   OH232648   4.166   3.672  10.412  0.0346 -0.0071 -0.2354
 2818TIP3    H132649   4.231   3.606  10.435 -1.3625 -1.9621 -1.5209
 2818TIP3    H232650   4.216   3.752  10.398  2.0489 -1.2354 -0.4261
 2819TIP3   OH232651   1.782   3.447  11.259  0.0118 -0.2974  0.3057
 2819TIP3    H132652   1.807   3.486  11.175 -0.0183 -0.8835  0.0128
 2819TIP3    H232653   1.853   3.470  11.319 -0.5834  1.2185  0.4710
 2820TIP3   OH232654   3.955   5.296   9.509  0.0122  0.4438  0.2645
 2820TIP3    H132655   3.896   5.371   9.516  1.2372  1.9024 -3.0961
 2820TIP3    H232656   3.896   5.221   9.497 -1.2018  1.3739  0.1847
 2821TIP3   OH232657   6.777   4.649   9.745 -0.1504  0.0252  0.3750
 2821TIP3    H132658   6.758   4.656   9.839 -2.5158  0.1828 -0.0633
 2821TIP3    H232659   6.794   4.555   9.732  0.1904 -0.0020  0.9308
 2822TIP3   OH232660   6.159   9.199   9.763 -0.4002 -0.3434 -0.4652
 2822TIP3    H132661   6.163   9.279   9.815 -0.0549 -0.0315 -0.9608
 2822TIP3    H232662   6.249   9.185   9.734 -0.4558 -0.9277 -0.3572
 2823TIP3   OH232663   6.259   7.199  10.986 -0.2275  0.2901 -0.3185
 2823TIP3    H132664   6.185   7.152  10.947  0.1823 -0.7380  0.1361
 2823TIP3    H232665   6.297   7.247  10.912 -1.6827  1.3068 -0.4512
 2824TIP3   OH232666   1.105   3.019  10.904  0.1806  0.1587 -0.3969
 2824TIP3    H132667   1.043   2.952  10.875  0.2906  0.7111 -2.0191
 2824TIP3    H232668   1.062   3.102  10.886  0.1533  0.5579  1.3604
 2825TIP3   OH232669   5.952   3.646  10.609  0.0945 -0.7042  0.0968
 2825TIP3    H132670   5.912   3.733  10.612 -1.4833 -1.4228  0.7246
 2825TIP3    H232671   5.945   3.619  10.518  2.7699  0.7523 -0.6421
 2826TIP3   OH232672   3.719   0.489  10.640 -0.0186 -0.0871 -0.1270
 2826TIP3    H132673   3.745   0.452  10.556  0.0297  0.8671 -0.5336
 2826TIP3    H232674   3.675   0.571  10.619  0.1248  0.2377  0.7846
 2827TIP3   OH232675   4.859   4.217   9.817  0.1110 -0.3151 -0.5393
 2827TIP3    H132676   4.903   4.215   9.733  0.7064 -1.0566 -0.2159
 2827TIP3    H232677   4.765   4.215   9.795  0.2536 -2.3530 -1.1674
 2828TIP3   OH232678   8.955   7.729  10.065 -0.2910  0.3172  1.2178
 2828TIP3    H132679   8.946   7.775  10.149 -1.0643  0.7623  0.9016
 2828TIP3    H232680   9.022   7.779  10.018  1.4177 -0.9188  2.1961
 2829TIP3   OH232681   7.886   2.427   9.493  0.3613  0.3308  0.3205
 2829TIP3    H132682   7.903   2.515   9.526  0.7572  0.2343  0.3772
 2829TIP3    H232683   7.795   2.429   9.464  0.8341  1.2333 -1.1725
 2830TIP3   OH232684   8.616   8.461   9.718 -0.4455  0.9384 -0.2317
 2830TIP3    H132685   8.630   8.513   9.797 -1.6544 -0.1107  0.7101
 2830TIP3    H232686   8.571   8.382   9.748  2.1577 -1.1698 -1.4680
 2831TIP3   OH232687   7.660   7.081  10.557 -0.4015 -0.3414 -0.3713
 2831TIP3    H132688   7.620   7.169  10.554 -1.1361 -0.6153  0.6643
 2831TIP3    H232689   7.592   7.023  10.524  0.1182 -0.5343 -1.1417
 2832TIP3   OH232690   4.694   5.107  10.034  0.5928  0.5900  0.4034
 2832TIP3    H132691   4.707   5.202  10.035  2.2654  0.4386 -1.0397
 2832TIP3    H232692   4.667   5.088   9.944  1.4595 -0.4194  0.3477
 2833TIP3   OH232693   5.019   8.959  11.021 -0.1578  0.3218 -0.3139
 2833TIP3    H132694   4.995   8.995  11.106  2.0840  1.0260  0.0620
 2833TIP3    H232695   4.959   9.002  10.959 -1.1320  0.5586  0.7606
 2834TIP3   OH232696   8.831   4.717  10.934  0.4102 -0.2816 -0.1131
 2834TIP3    H132697   8.821   4.778  10.862 -1.8982  0.2938  0.6035
 2834TIP3    H232698   8.925   4.701  10.940  0.7878  0.9015 -2.1831
 2835TIP3   OH232699   5.935   7.121  10.208 -0.2387 -0.1452  0.0006
 2835TIP3    H132700   5.852   7.154  10.243  0.4255  1.8658 -0.2235
 2835TIP3    H232701   6.001   7.147  10.273  0.4874  0.1014 -0.8185
 2836TIP3   OH232702   0.555   0.771  10.841  0.1038 -0.1709 -0.1224
 2836TIP3    H132703   0.624   0.733  10.896 -1.4305  0.8387  2.7405
 2836TIP3    H232704   0.483   0.708  10.848  0.1591 -0.4690 -1.8221
 2837TIP3   OH232705   8.804   2.184  10.279 -0.2596  0.0704  0.3542
 2837TIP3    H132706   8.760   2.131  10.346 -0.6679 -0.5028 -0.3552
 2837TIP3    H232707   8.736   2.241  10.245 -0.3771 -0.5337 -0.4603
 2838TIP3   OH232708   8.404   8.490  10.052  0.8984 -0.7121 -0.1768
 2838TIP3    H132709   8.395   8.576  10.009  0.6527 -1.0186 -0.7437
 2838TIP3    H232710   8.479   8.501  10.111 -0.5162  0.5982  1.5070
 2839TIP3   OH232711   7.735   7.680   9.335 -0.5002  0.3958  0.1369
 2839TIP3    H132712   7.671   7.733   9.288  0.9664 -0.0040 -2.5080
 2839TIP3    H232713   7.729   7.593   9.294  1.6383  0.3462 -0.2189
 2840TIP3   OH232714   2.478   0.766  10.082 -0.1019  0.3882 -0.6592
 2840TIP3    H132715   2.572   0.776  10.068 -0.1266  1.1804 -0.2774
 2840TIP3    H232716   2.471   0.712  10.160  0.0409  0.9633 -0.2446
 2841TIP3   OH232717   3.461   2.329  10.694 -0.0255  0.0306  0.4233
 2841TIP3    H132718   3.484   2.422  10.696 -0.9459  0.2584  1.9298
 2841TIP3    H232719   3.467   2.305  10.601  0.0724  1.6253 -0.0186
 2842TIP3   OH232720   1.689   0.031  10.050  0.2642  0.3118  0.4836
 2842TIP3    H132721   1.743   0.037   9.972  1.1804  1.3914  1.1728
 2842TIP3    H232722   1.606   0.071  10.025  0.8408  1.4225  0.2921
 2843TIP3   OH232723   2.085   8.413   9.000  0.3201  0.4821  0.9573
 2843TIP3    H132724   2.072   8.431   9.093  1.0769 -0.1734  1.2085
 2843TIP3    H232725   2.035   8.481   8.955  0.0451  0.8855  1.8436
 2844TIP3   OH232726   4.799   3.201  11.488  0.1016 -0.1025 -0.2766
 2844TIP3    H132727   4.826   3.171  11.575 -0.4596 -1.0235 -0.4139
 2844TIP3    H232728   4.870   3.173  11.430  1.0391  1.5256  0.0333
 2845TIP3   OH232729   3.186   1.939   9.677 -0.3872  0.4729 -0.1308
 2845TIP3    H132730   3.160   1.847   9.664 -0.8418  0.4793  0.6792
 2845TIP3    H232731   3.104   1.988   9.671 -0.5920  0.5150  2.2397
 2846TIP3   OH232732   6.677   1.273  10.988  0.1418 -0.0220 -0.0092
 2846TIP3    H132733   6.709   1.222  10.914  0.8439  0.3743  0.0102
 2846TIP3    H232734   6.604   1.324  10.953  0.6935  0.4245 -0.5155
 2847TIP3   OH232735   7.498   6.996   9.908 -0.4722 -0.4604 -0.0311
 2847TIP3    H132736   7.563   6.941   9.950  0.0268 -0.3580 -0.6526
 2847TIP3    H232737   7.417   6.944   9.911 -0.5977 -0.2199  1.5269
 2848TIP3   OH232738   4.273   8.939   9.573 -0.2441 -0.2689  0.1051
 2848TIP3    H132739   4.189   8.897   9.554 -0.3322 -0.2349  0.4242
 2848TIP3    H232740   4.265   9.026   9.534 -0.6017 -0.0318  0.7051
 2849TIP3   OH232741   0.458   3.278  11.017  0.3429  0.1689  0.1962
 2849TIP3    H132742   0.398   3.236  10.955 -1.3952  1.8735  0.6574
 2849TIP3    H232743   0.467   3.214  11.088  1.7932 -1.5005 -1.3547
 2850TIP3   OH232744   0.517   9.011   9.885  0.0474 -0.3889 -0.5224
 2850TIP3    H132745   0.536   9.053   9.801  0.5650 -1.4122 -0.9284
 2850TIP3    H232746   0.574   9.056   9.947  2.4338 -2.0498 -1.3781
 2851TIP3   OH232747   4.468   5.626  10.828 -0.2162 -0.3142 -0.3200
 2851TIP3    H132748   4.482   5.556  10.891  0.2831  0.9664  1.0679
 2851TIP3    H232749   4.460   5.705  10.882  2.0642  1.1185 -1.9158
 2852TIP3   OH232750   6.951   6.945  11.046 -0.2697  0.0217  0.1745
 2852TIP3    H132751   6.971   6.873  11.106  0.7853 -0.1075 -0.3054
 2852TIP3    H232752   6.878   6.913  10.993  0.1652 -0.6928 -0.0114
 2853TIP3   OH232753   2.579   1.041  10.077 -0.8048 -0.0100 -0.3747
 2853TIP3    H132754   2.646   0.986  10.037 -1.2441  1.9518 -4.3659
 2853TIP3    H232755   2.497   1.009  10.040 -1.7652 -0.2846  1.8442
 2854TIP3   OH232756   6.718   8.847   9.319  0.3540 -0.5959  0.1543
 2854TIP3    H132757   6.638   8.896   9.299  0.3208 -0.2194  1.1456
 2854TIP3    H232758   6.784   8.915   9.337  1.0242 -0.8908 -1.0245
 2855TIP3   OH232759   8.794   5.481  10.278 -0.0923  0.1502 -0.3273
 2855TIP3    H132760   8.715   5.494  10.224 -0.8637  0.9291  0.9219
 2855TIP3    H232761   8.831   5.399  10.247 -1.0395  0.0876 -1.3800
 2856TIP3   OH232762   9.106   4.085  10.909  0.1445  0.3347  0.6420
 2856TIP3    H132763   9.075   4.093  10.819 -0.1430 -0.4302  0.6681
 2856TIP3    H232764   9.027   4.070  10.960  0.3817  0.0966  0.9390
 2857TIP3   OH232765   3.288   7.281  10.587  0.4018  0.3405  0.0087
 2857TIP3    H132766   3.306   7.191  10.613 -1.1042 -0.0817 -0.3167
 2857TIP3    H232767   3.232   7.316  10.657  2.0851  1.4973  0.8329
 2858TIP3   OH232768   1.183   1.119   9.659  0.3744  0.0818  0.1685
 2858TIP3    H132769   1.180   1.202   9.707  2.1648 -0.4539  1.3099
 2858TIP3    H232770   1.195   1.053   9.726  0.5600 -0.9515 -0.8555
 2859TIP3   OH232771   0.031   8.007  10.414  0.1203 -0.3749  0.7561
 2859TIP3    H132772  -0.003   8.097  10.408  1.0970  0.0776  1.5998
 2859TIP3    H232773   0.039   7.978  10.324  0.1499  0.5382  0.4559
 2860TIP3   OH232774   5.022   7.101   9.364 -0.3733 -0.3312  0.0978
 2860TIP3    H132775   5.095   7.071   9.418 -0.5943 -1.6555 -0.2925
 2860TIP3    H232776   5.001   7.025   9.309 -0.2008  0.9369 -1.7937
 2861TIP3   OH232777   6.845   3.121   9.991  0.5418  0.3104  0.2264
 2861TIP3    H132778   6.760   3.152  10.025  0.7324 -0.1106  1.1134
 2861TIP3    H232779   6.871   3.051  10.051  1.2490  0.0422 -0.3782
 2862TIP3   OH232780   8.496   0.081  10.576 -0.5906 -0.0005  0.1544
 2862TIP3    H132781   8.439   0.010  10.548 -0.5890 -0.0490  0.2690
 2862TIP3    H232782   8.492   0.078  10.672 -2.2691  1.4979  0.1829
 2863TIP3   OH232783   0.141   4.078   9.887  0.6673  0.0909  0.0280
 2863TIP3    H132784   0.167   4.002   9.834  1.5943  0.4664 -0.0703
 2863TIP3    H232785   0.070   4.118   9.837  0.2221 -0.6563  0.0396
 2864TIP3   OH232786   4.437   2.009  10.081  0.3105  0.1096 -0.4761
 2864TIP3    H132787   4.502   2.058  10.131 -1.0113 -0.1646  1.6158
 2864TIP3    H232788   4.392   2.075  10.028  0.6874  0.6558 -0.1239
 2865TIP3   OH232789   6.923   5.310   9.249 -0.3193  0.7403 -0.1653
 2865TIP3    H132790   6.930   5.405   9.237  1.4049  0.5943 -0.6010
 2865TIP3    H232791   6.830   5.294   9.259 -0.6395  2.4914 -0.0224
 2866TIP3   OH232792   0.678   3.720   9.446 -1.0178  0.1481  0.1075
 2866TIP3    H132793   0.631   3.683   9.371 -0.8822  1.3342 -0.5877
 2866TIP3    H232794   0.741   3.652   9.470 -2.5171 -1.1360  0.5501
 2867TIP3   OH232795   2.941   5.733  10.125  0.1215 -0.5153 -0.0814
 2867TIP3    H132796   3.023   5.761  10.084  1.2828 -1.6739  1.3048
 2867TIP3    H232797   2.960   5.734  10.219 -1.2065 -1.5514  0.2268
 2868TIP3   OH232798   4.259   8.914  10.997 -0.0980 -0.2613 -0.2749
 2868TIP3    H132799   4.326   8.982  10.999 -0.3857  0.0193  0.0166
 2868TIP3    H232800   4.206   8.933  10.920 -1.3357  0.9924  0.8293
 2869TIP3   OH232801   7.497   4.547   9.984 -0.5949  0.3295 -0.2232
 2869TIP3    H132802   7.584   4.551  10.024 -0.0625 -0.3126 -1.2756
 2869TIP3    H232803   7.445   4.493  10.044  0.9511 -3.0218 -1.6452
 2870TIP3   OH232804   0.723   0.777  10.632  0.1598  0.6565  0.0536
 2870TIP3    H132805   0.786   0.834  10.677  1.0334 -2.1406  2.6808
 2870TIP3    H232806   0.654   0.762  10.696  0.2981 -1.7137 -0.2637
 2871TIP3   OH232807   6.423   4.780  10.044 -0.0226  0.8758  0.1188
 2871TIP3    H132808   6.439   4.860  10.093 -0.1919  0.7233  0.4304
 2871TIP3    H232809   6.356   4.734  10.095 -0.9328  1.1763 -0.7704
 2872TIP3   OH232810   6.628   1.999  10.487 -0.4742 -0.3852  0.1715
 2872TIP3    H132811   6.683   2.060  10.536 -0.5541  0.2865 -0.5475
 2872TIP3    H232812   6.549   1.989  10.541 -0.3889  0.0220  0.3771
 2873TIP3   OH232813   5.550   7.663   9.884 -0.1825 -0.1908 -0.0825
 2873TIP3    H132814   5.486   7.654   9.813 -1.8395 -1.1991  1.4692
 2873TIP3    H232815   5.635   7.663   9.839 -1.1889  0.0612 -2.1250
 2874TIP3   OH232816   7.385   1.206  11.159 -0.5660 -0.0032 -0.3520
 2874TIP3    H132817   7.298   1.244  11.152 -0.7216  0.6570  3.2833
 2874TIP3    H232818   7.443   1.282  11.172  0.6283 -0.4356 -2.5934
 2875TIP3   OH232819   5.708   7.434  10.800 -0.3032  0.1503  0.1025
 2875TIP3    H132820   5.613   7.440  10.792 -0.3545 -0.5811  0.0323
 2875TIP3    H232821   5.734   7.511  10.850 -0.8999  0.5069 -0.1342
 2876TIP3   OH232822   2.160   1.299  11.093  0.3219 -0.4223  0.3786
 2876TIP3    H132823   2.140   1.224  11.038  0.9076  0.0264 -0.4591
 2876TIP3    H232824   2.093   1.297  11.161 -1.3623 -0.1131 -1.1981
 2877TIP3   OH232825   4.286   7.935   9.783  0.8015  0.3268 -0.2054
 2877TIP3    H132826   4.366   7.938   9.836  0.4500  1.2053  0.2821
 2877TIP3    H232827   4.228   8.000   9.823  0.4062  0.7734 -1.4693
 2878TIP3   OH232828   7.681   0.658  10.368 -0.2638  0.5660  0.3212
 2878TIP3    H132829   7.678   0.732  10.308  0.7045 -0.0739 -0.5527
 2878TIP3    H232830   7.676   0.697  10.455  0.8325  1.7193 -0.1022
 2879TIP3   OH232831   4.150   8.004  10.415 -0.4009  0.4174 -0.4542
 2879TIP3    H132832   4.175   8.029  10.326 -1.2182 -1.3773 -1.2227
 2879TIP3    H232833   4.228   8.021  10.467  0.8148 -0.4538 -1.8976
 2880TIP3   OH232834   1.265   0.454   9.434 -0.5508  0.5045 -0.0724
 2880TIP3    H132835   1.264   0.422   9.524  0.5066  0.9778  0.1238
 2880TIP3    H232836   1.243   0.547   9.441 -1.9138  0.2330 -0.4652
 2881TIP3   OH232837   3.587   5.591   9.708  0.0156 -0.3647 -0.0918
 2881TIP3    H132838   3.623   5.670   9.666  0.8268 -0.6781 -0.0018
 2881TIP3    H232839   3.524   5.624   9.771  1.3433  0.3041  0.9362
 2882TIP3   OH232840   1.282   4.665  10.758  0.2197 -0.5598 -0.8182
 2882TIP3    H132841   1.225   4.716  10.701  0.6646  0.8770 -0.0359
 2882TIP3    H232842   1.261   4.574  10.738 -1.6253 -0.0771 -1.2464
 2883TIP3   OH232843   1.318   8.703  11.109  0.1355  0.1573  0.0775
 2883TIP3    H132844   1.347   8.698  11.200 -1.3629 -1.4687  0.5226
 2883TIP3    H232845   1.223   8.714  11.115 -0.5239 -3.3950 -1.1547
 2884TIP3   OH232846   9.169   3.821  10.324 -0.4991  0.4164  0.2816
 2884TIP3    H132847   9.216   3.860  10.250  1.0008 -2.7295 -0.5934
 2884TIP3    H232848   9.229   3.830  10.398  0.2372 -0.8585 -0.1234
 2885TIP3   OH232849   6.556   2.849   9.513  0.0016 -0.2421 -0.5560
 2885TIP3    H132850   6.651   2.838   9.514  0.1390  0.7946 -0.6295
 2885TIP3    H232851   6.543   2.944   9.501 -1.0376 -0.2788  0.1424
 2886TIP3   OH232852   0.692   0.959  11.039 -0.4300  0.1116 -0.1867
 2886TIP3    H132853   0.607   0.999  11.021 -0.9527 -1.2875 -0.9205
 2886TIP3    H232854   0.676   0.865  11.034  0.4908 -0.2933  2.6789
 2887TIP3   OH232855   8.391   2.077   9.674  0.0897  0.5549 -0.0639
 2887TIP3    H132856   8.388   1.991   9.716 -1.0507  0.1384 -0.9283
 2887TIP3    H232857   8.483   2.094   9.657  0.3935 -0.0990  0.9138
 2888TIP3   OH232858   6.506   7.483   9.947  0.0632  0.0240  0.0890
 2888TIP3    H132859   6.569   7.430   9.997  0.7305 -0.5458 -1.3186
 2888TIP3    H232860   6.526   7.573   9.973  1.2920 -0.1706 -0.1176
 2889TIP3   OH232861   1.989   6.260  10.848 -0.0418 -0.2229  0.0473
 2889TIP3    H132862   1.971   6.167  10.841  0.2402 -0.3753  1.1579
 2889TIP3    H232863   1.903   6.301  10.853 -0.1877 -0.3316 -1.3151
 2890TIP3   OH232864   3.602   1.711  10.139  0.1249  0.8024 -0.0173
 2890TIP3    H132865   3.576   1.627  10.178  0.0705  0.5271 -0.6295
 2890TIP3    H232866   3.563   1.709  10.051  0.0774  1.4939 -0.0126
 2891TIP3   OH232867   5.436   2.092   9.404  0.0565  0.6309  0.3583
 2891TIP3    H132868   5.512   2.048   9.442 -0.6848 -0.6400  0.4209
 2891TIP3    H232869   5.378   2.108   9.478 -1.1403 -1.3381 -0.0908
 2892TIP3   OH232870   1.883   7.175  10.069 -0.1786 -0.4182  0.2227
 2892TIP3    H132871   1.971   7.190  10.036 -0.3384 -0.5712 -0.2722
 2892TIP3    H232872   1.830   7.243  10.029 -0.2880 -0.3210  0.5267
 2893TIP3   OH232873   5.348   3.396  11.175 -0.4722 -0.2374 -0.9855
 2893TIP3    H132874   5.253   3.385  11.178 -0.4840  0.0744  0.0956
 2893TIP3    H232875   5.360   3.474  11.120 -0.8370 -0.2706 -1.1214
 2894TIP3   OH232876   5.392   1.475   9.892  0.1953 -0.4256 -0.0762
 2894TIP3    H132877   5.382   1.380   9.881 -0.4753 -0.4378  0.5783
 2894TIP3    H232878   5.397   1.509   9.802  2.5062 -1.2617 -0.3349
 2895TIP3   OH232879   2.234   0.322  10.601  0.3322 -0.3418  0.4456
 2895TIP3    H132880   2.190   0.288  10.679 -0.4060 -1.3596 -0.3746
 2895TIP3    H232881   2.301   0.256  10.581 -0.4579 -0.8648 -0.5975
 2896TIP3   OH232882   2.487   9.210   9.922 -0.7771  0.0462  0.6508
 2896TIP3    H132883   2.501   9.303   9.908  0.4002 -0.3345 -0.9571
 2896TIP3    H232884   2.406   9.190   9.875 -0.0005 -0.0807 -0.6777
 2897TIP3   OH232885   8.120   0.722   9.821 -0.2306 -0.4357 -0.3066
 2897TIP3    H132886   8.094   0.641   9.865 -0.3112  0.1302  0.7127
 2897TIP3    H232887   8.041   0.751   9.776 -0.8922  0.3134  1.2760
 2898TIP3   OH232888   1.167   6.031  10.271  0.0494 -0.0996 -0.8659
 2898TIP3    H132889   1.242   6.041  10.213 -1.0558 -1.3308 -2.6046
 2898TIP3    H232890   1.173   5.941  10.304 -0.1659  0.1009 -0.2588
 2899TIP3   OH232891   3.588   1.774  10.615  0.2694  0.1838 -0.0585
 2899TIP3    H132892   3.605   1.863  10.582 -2.4368  1.0411  0.6123
 2899TIP3    H232893   3.537   1.788  10.695 -0.2120 -1.9879  0.0527
 2900TIP3   OH232894   4.956   8.574   9.489  0.4332 -0.1370 -0.2891
 2900TIP3    H132895   5.035   8.609   9.448 -0.3415  1.5321 -0.4598
 2900TIP3    H232896   4.899   8.650   9.501 -0.5971 -1.0601  1.1224
 2901TIP3   OH232897   6.041   7.215  11.297 -0.4610 -0.2017  0.0897
 2901TIP3    H132898   6.110   7.150  11.300 -0.9611 -0.7108  0.7940
 2901TIP3    H232899   5.967   7.175  11.344 -0.3533  1.3672  1.7200
 2902TIP3   OH232900   4.467   9.116  10.999  0.2755 -0.1980 -0.5107
 2902TIP3    H132901   4.443   9.157  11.082 -0.9305  1.1934 -1.5082
 2902TIP3    H232902   4.562   9.103  11.006  0.5330  1.7411  0.3047
 2903TIP3   OH232903   6.873   0.226   9.854  0.6761  0.2093 -0.0888
 2903TIP3    H132904   6.938   0.271   9.908  0.3612  0.8449 -0.2356
 2903TIP3    H232905   6.921   0.200   9.775  0.3099  2.4335 -1.1052
 2904TIP3   OH232906   0.234   4.009   9.252 -0.0261  0.2250 -0.2634
 2904TIP3    H132907   0.207   3.931   9.300 -0.5009  0.1783 -0.6014
 2904TIP3    H232908   0.325   4.024   9.280  0.2923 -0.8170 -0.6783
 2905TIP3   OH232909   2.000   1.975  10.312  0.3178  0.5267  0.4927
 2905TIP3    H132910   2.037   1.933  10.235 -0.3622 -0.5293  0.7301
 2905TIP3    H232911   2.069   1.966  10.379  0.2593 -0.0142  0.4804
 2906TIP3   OH232912   3.643   7.936   9.832  0.0654 -0.1565 -0.6360
 2906TIP3    H132913   3.600   7.962   9.751  1.6592 -1.5516 -2.0069
 2906TIP3    H232914   3.626   8.008   9.893 -3.4977 -0.3068 -1.2729
 2907TIP3   OH232915   0.781   6.128   9.903 -0.0478 -0.2509  0.6096
 2907TIP3    H132916   0.865   6.172   9.902 -0.2096  0.0562  0.5796
 2907TIP3    H232917   0.802   6.036   9.922  0.3631 -0.3434 -0.2628
 2908TIP3   OH232918   0.714   8.557  10.686 -0.2729 -0.4917  0.6455
 2908TIP3    H132919   0.774   8.495  10.728  0.2441 -0.5838 -0.2091
 2908TIP3    H232920   0.641   8.503  10.657 -0.0923 -0.6189  0.4174
 2909TIP3   OH232921   7.451   2.967   9.778  0.0026 -0.2974  0.3094
 2909TIP3    H132922   7.515   3.007   9.719 -0.6672  0.4711  0.0839
 2909TIP3    H232923   7.504   2.915   9.839  0.8173  0.1106 -0.0304
 2910TIP3   OH232924   7.487   7.041  10.180 -0.3620 -0.6154 -0.1445
 2910TIP3    H132925   7.566   7.092  10.196 -0.5430 -0.5569  0.6169
 2910TIP3    H232926   7.456   7.069  10.094  0.3639 -0.5374 -0.3794
 2911TIP3   OH232927   7.296   5.623  10.236 -0.1847 -0.2094 -1.0072
 2911TIP3    H132928   7.358   5.643  10.305  0.9102 -0.0597 -2.0047
 2911TIP3    H232929   7.217   5.671  10.261 -0.3108 -1.3065  0.8535
 2912TIP3   OH232930   7.070   4.705  11.377 -0.3684  0.2151 -0.0163
 2912TIP3    H132931   7.068   4.625  11.323  0.3795  0.1908 -0.0214
 2912TIP3    H232932   7.153   4.747  11.354 -0.0591  0.2335  1.0739
 2913TIP3   OH232933   8.148   6.770   9.465 -0.3726 -0.2660  0.3709
 2913TIP3    H132934   8.066   6.743   9.424 -0.0604 -2.1211  0.9063
 2913TIP3    H232935   8.216   6.727   9.415  0.2173  0.2366  0.7224
 2914TIP3   OH232936   8.390   3.562   9.614  0.0429  0.2397  0.5736
 2914TIP3    H132937   8.385   3.480   9.565  1.3694  0.9055 -0.7707
 2914TIP3    H232938   8.301   3.597   9.612 -0.4015 -0.8521  0.6286
 2915TIP3   OH232939   8.881   8.870  10.690 -0.2570  0.2967 -0.5363
 2915TIP3    H132940   8.827   8.942  10.656  1.0943  1.3683 -0.4944
 2915TIP3    H232941   8.865   8.798  10.630  1.5051  1.8930 -3.1097
 2916TIP3   OH232942   2.001   2.199  10.098  0.4800  0.1862  0.1710
 2916TIP3    H132943   2.025   2.107  10.110  1.8744  0.6359  1.0723
 2916TIP3    H232944   1.910   2.204  10.127 -0.3664 -1.2955 -1.9170
 2917TIP3   OH232945   4.258   5.886  10.086 -0.0191  0.7009  0.3202
 2917TIP3    H132946   4.264   5.869  10.180  0.6395 -0.3863  0.0941
 2917TIP3    H232947   4.305   5.813  10.045 -2.2031 -0.0507 -0.9616
 2918TIP3   OH232948   4.922   1.862  10.765  0.2278  0.3708  0.0592
 2918TIP3    H132949   4.982   1.854  10.840  1.0461  0.9521 -0.5079
 2918TIP3    H232950   4.959   1.933  10.712 -0.1749 -0.2068 -1.0378
 2919TIP3   OH232951   8.457   5.243   9.685 -0.3014 -0.6640 -0.0402
 2919TIP3    H132952   8.434   5.272   9.773 -1.2091  0.6564 -0.6749
 2919TIP3    H232953   8.534   5.295   9.661 -1.1002  0.2801 -0.6556
 2920TIP3   OH232954   7.589   6.055  10.563  0.5274 -0.6809 -0.4761
 2920TIP3    H132955   7.543   6.040  10.645  0.4631 -2.7068 -0.8378
 2920TIP3    H232956   7.679   6.076  10.589  0.9852 -3.1490  0.1156
 2921TIP3   OH232957   1.121   8.984   9.719 -0.3241 -0.0060  0.6966
 2921TIP3    H132958   1.184   8.971   9.789  0.2885  0.0897  0.1645
 2921TIP3    H232959   1.065   8.906   9.723  1.0494 -1.0629 -0.0900
 2922TIP3   OH232960   3.430   3.824  11.281  0.4145 -0.4062  0.0717
 2922TIP3    H132961   3.369   3.828  11.207 -1.6641  0.1553  1.7043
 2922TIP3    H232962   3.433   3.732  11.305 -0.9739 -0.2807  0.8405
 2923TIP3   OH232963   0.870   3.100  10.739 -0.9510  0.0404  0.8297
 2923TIP3    H132964   0.829   3.182  10.713  1.7035  0.8044 -1.3945
 2923TIP3    H232965   0.920   3.073  10.662  1.4869 -1.5632  2.8248
 2924TIP3   OH232966   4.042   0.893  10.495  0.2769  0.0844 -0.3359
 2924TIP3    H132967   4.084   0.863  10.414 -2.0215  2.4761 -2.6077
 2924TIP3    H232968   4.077   0.981  10.509 -0.2521  0.1574  0.5943
 2925TIP3   OH232969   3.937   0.680  10.725  0.5594 -0.4099  0.4159
 2925TIP3    H132970   3.845   0.657  10.713  0.7835 -0.3858 -1.7707
 2925TIP3    H232971   3.949   0.760  10.673  1.4811  0.4729  1.9193
 2926TIP3   OH232972   4.946   0.900   9.547 -0.2585 -0.1453 -0.0777
 2926TIP3    H132973   5.016   0.837   9.566 -1.6542 -2.2909 -1.7180
 2926TIP3    H232974   4.935   0.896   9.453 -1.1158  1.8460 -0.1013
 2927TIP3   OH232975   7.794   5.149   9.324 -0.0463  0.2792  0.1987
 2927TIP3    H132976   7.860   5.215   9.345  0.8584 -0.6893  0.4796
 2927TIP3    H232977   7.711   5.190   9.349  0.5846  0.9518  1.2816
 2928TIP3   OH232978   3.780   7.216   9.747  0.3280  0.1702  0.1320
 2928TIP3    H132979   3.689   7.194   9.766  0.2577  0.1850 -0.1725
 2928TIP3    H232980   3.808   7.271   9.820  0.0663  0.2320  0.1871
 2929TIP3   OH232981   2.401   1.044  11.135 -0.0129 -0.2995 -0.2784
 2929TIP3    H132982   2.443   0.981  11.077  0.0253 -0.1695 -0.3912
 2929TIP3    H232983   2.320   1.001  11.162 -0.0531 -0.3416 -0.4652
 2930TIP3   OH232984   7.263   4.185  10.226 -0.8061  0.0302  0.6066
 2930TIP3    H132985   7.262   4.206  10.319 -2.2547  0.5162  0.5083
 2930TIP3    H232986   7.253   4.089  10.223 -0.6298  0.0006  0.9517
 2931TIP3   OH232987   6.808   1.097  10.753  0.1731 -0.5051  0.1263
 2931TIP3    H132988   6.790   1.182  10.714 -0.7219  0.6441  2.7840
 2931TIP3    H232989   6.788   1.034  10.684  2.8945  1.3903 -2.6500
 2932TIP3   OH232990   7.020   0.877  10.153  0.0484 -0.2104  0.3686
 2932TIP3    H132991   6.938   0.848  10.193 -0.6624  0.1919 -0.7523
 2932TIP3    H232992   7.032   0.819  10.078  0.6922 -0.1364  0.4078
 2933TIP3   OH232993   0.389   3.618  11.099  0.6031 -0.3883 -0.0684
 2933TIP3    H132994   0.329   3.573  11.159  0.5263 -1.0574 -0.6339
 2933TIP3    H232995   0.353   3.601  11.012  2.1117 -1.6458 -0.4972
 2934TIP3   OH232996   8.462   1.457  10.084 -0.3206 -0.2434  0.8299
 2934TIP3    H132997   8.542   1.461  10.136 -1.1294 -0.2734  2.1439
 2934TIP3    H232998   8.406   1.526  10.121 -1.2241 -0.7932  0.5299
 2935TIP3   OH232999   2.006   4.446  10.745 -0.1040  0.0848 -0.4886
 2935TIP3    H133000   1.952   4.390  10.801  0.4835  1.6209  1.7216
 2935TIP3    H233001   2.086   4.396  10.730 -1.1069 -1.2046 -1.7770
 2936TIP3   OH233002   6.330   4.351  10.566  0.9564  0.4391  0.1778
 2936TIP3    H133003   6.333   4.425  10.504  1.7546  0.9571  0.8023
 2936TIP3    H233004   6.271   4.380  10.636  1.1312  0.4198  0.3353
 2937TIP3   OH233005   3.564   8.411   9.876  0.1032  0.0897 -0.2638
 2937TIP3    H133006   3.545   8.319   9.858 -0.3261  0.0118  0.5076
 2937TIP3    H233007   3.634   8.434   9.816  1.2978 -1.1808  0.5878
 2938TIP3   OH233008   3.683   3.113  10.147 -0.2720  0.0621 -0.1011
 2938TIP3    H133009   3.685   3.128  10.053 -2.3072  1.3878  0.0001
 2938TIP3    H233010   3.592   3.088  10.165  0.3084 -1.1052  1.3976
 2939TIP3   OH233011   1.308   3.343  10.173 -0.0796 -0.2034  1.0341
 2939TIP3    H133012   1.350   3.376  10.094 -2.2077  1.2393  0.4097
 2939TIP3    H233013   1.262   3.264  10.145 -2.8199  1.5732  0.0971
 2940TIP3   OH233014   6.310   3.189  11.460  0.1037 -0.5256 -0.1999
 2940TIP3    H133015   6.394   3.186  11.506 -0.6173  0.1869  1.2352
 2940TIP3    H233016   6.275   3.100  11.467  0.1503 -0.5018  0.3690
 2941TIP3   OH233017   5.900   1.345  10.305 -0.0538 -0.5351  0.0265
 2941TIP3    H133018   5.990   1.314  10.316 -0.0333 -0.2768  0.6092
 2941TIP3    H233019   5.878   1.323  10.214  0.4072 -1.0816  0.0449
 2942TIP3   OH233020   8.290   7.736  10.653 -0.2723  0.4646 -0.2028
 2942TIP3    H133021   8.227   7.685  10.601  0.1765  0.1222 -0.4120
 2942TIP3    H233022   8.373   7.689  10.643 -0.2566  0.1716  1.1223
 2943TIP3   OH233023   3.551   8.876  10.726 -0.3545  0.4034 -0.3570
 2943TIP3    H133024   3.523   8.796  10.770 -0.1331  1.2595  1.4374
 2943TIP3    H233025   3.471   8.927  10.716 -0.7557 -0.5953 -2.8443
 2944TIP3   OH233026   5.415   0.232  10.767  0.9298 -0.0647 -0.0860
 2944TIP3    H133027   5.442   0.142  10.782 -1.7612 -0.8236  0.7887
 2944TIP3    H233028   5.322   0.226  10.742  1.1042  2.3610 -1.6903
 2945TIP3   OH233029   4.748   0.547   9.760 -0.6569  0.7592 -0.3772
 2945TIP3    H133030   4.667   0.504   9.788 -0.0531 -0.3784 -0.3420
 2945TIP3    H233031   4.757   0.622   9.819 -2.0663  1.3477 -0.8691
 2946TIP3   OH233032   3.023   8.356  10.659 -0.0697 -0.4177 -0.3605
 2946TIP3    H133033   2.950   8.308  10.696 -0.3673  0.1803 -0.1660
 2946TIP3    H233034   3.100   8.325  10.708 -0.4114  0.1347  0.5503
 2947TIP3   OH233035   6.297   2.918  10.293 -0.2863 -0.2207 -0.3859
 2947TIP3    H133036   6.233   2.960  10.235 -1.6516 -0.4961  0.8704
 2947TIP3    H233037   6.342   2.855  10.237 -2.3055 -1.2551 -0.9675
 2948TIP3   OH233038   0.801   8.959   9.743 -0.1290 -0.6531  0.6127
 2948TIP3    H133039   0.818   9.049   9.773  1.4128 -1.2026  1.4942
 2948TIP3    H233040   0.814   8.962   9.648  0.2826 -0.0168  0.6843
 2949TIP3   OH233041   8.359   0.606   9.105  0.0446  0.3810  0.2993
 2949TIP3    H133042   8.387   0.691   9.070  1.5341  0.3999  1.4827
 2949TIP3    H233043   8.343   0.622   9.198 -1.0960 -0.3284  0.2450
 2950TIP3   OH233044   4.259   2.064   9.775 -0.2300 -0.0239 -0.3528
 2950TIP3    H133045   4.196   2.136   9.779  0.8544  0.9030  1.5388
 2950TIP3    H233046   4.239   2.010   9.851  1.2738  0.3750  0.3833
 2951TIP3   OH233047   7.726   2.363  10.133 -0.2008 -0.3843 -0.3419
 2951TIP3    H133048   7.768   2.371  10.219 -0.6705 -0.2050 -0.1268
 2951TIP3    H233049   7.734   2.270  10.111 -0.2288 -0.4616 -0.0305
 2952TIP3   OH233050   8.605   4.142   9.381 -0.2760  0.6589  0.2557
 2952TIP3    H133051   8.684   4.195   9.382  0.6508 -0.6350 -1.0299
 2952TIP3    H233052   8.636   4.052   9.386 -1.6197  0.0844 -0.9725
 2953TIP3   OH233053   0.280   6.979  10.396 -0.3925 -0.6376  0.2245
 2953TIP3    H133054   0.287   6.925  10.317 -0.1823  0.0283 -0.2241
 2953TIP3    H233055   0.242   6.921  10.462  2.4297 -2.2446  0.6215
 2954TIP3   OH233056   3.274   1.590  10.451 -0.0958 -0.3100 -0.3400
 2954TIP3    H133057   3.319   1.667  10.486  2.5600 -1.6620 -0.5257
 2954TIP3    H233058   3.213   1.564  10.520  1.5715 -0.1084  1.2770
 2955TIP3   OH233059   5.291   3.160  10.336 -0.3048 -0.0050 -0.3841
 2955TIP3    H133060   5.253   3.141  10.250 -0.0893  1.5017 -0.8288
 2955TIP3    H233061   5.383   3.176  10.319  0.0240 -1.0044  0.3333
 2956TIP3   OH233062   7.534   6.396   9.659  0.6857  0.0278 -0.1653
 2956TIP3    H133063   7.516   6.379   9.751 -0.3226  1.1089 -0.1336
 2956TIP3    H233064   7.462   6.353   9.612  1.4986 -0.9995 -0.5041
 2957TIP3   OH233065   5.513   5.975  11.503  0.3068  0.1788  0.6000
 2957TIP3    H133066   5.449   6.044  11.521 -1.6223 -0.8623 -1.7540
 2957TIP3    H233067   5.594   6.022  11.482 -0.7783  1.7223 -0.3510
 2958TIP3   OH233068   2.487   4.344  11.063 -0.4811  0.4997  0.1363
 2958TIP3    H133069   2.393   4.356  11.078 -0.4921  0.1442  0.3690
 2958TIP3    H233070   2.528   4.400  11.128 -0.5329  0.1886  0.4402
 2959TIP3   OH233071   0.004   4.337  11.082  0.1445  0.2726 -0.1780
 2959TIP3    H133072   0.096   4.316  11.071  0.2895  0.7229  0.1372
 2959TIP3    H233073  -0.043   4.264  11.041  0.6360  0.0133 -0.2836
 2960TIP3   OH233074   3.836   6.566  10.238  0.2821  0.2276 -0.0291
 2960TIP3    H133075   3.778   6.516  10.181  0.9107 -1.1891  0.5327
 2960TIP3    H233076   3.913   6.583  10.184 -0.3821  1.6458 -0.5973
 2961TIP3   OH233077   3.391   4.082   9.093 -0.2540 -0.0060 -0.1436
 2961TIP3    H133078   3.363   4.034   9.171  1.2246  0.1332  0.5015
 2961TIP3    H233079   3.439   4.157   9.127 -0.5138  0.6507 -1.1903
 2962TIP3   OH233080   8.604   4.064   9.841 -0.0542 -0.4876  0.0455
 2962TIP3    H133081   8.623   3.992   9.780  1.6588  2.0426 -2.7018
 2962TIP3    H233082   8.510   4.079   9.832  0.4028  1.2485 -4.0327
 2963TIP3   OH233083   7.717   3.200  10.555 -0.7429  0.0289  0.1495
 2963TIP3    H133084   7.653   3.145  10.509 -0.7806  1.2667 -1.3672
 2963TIP3    H233085   7.797   3.191  10.504 -0.0056 -0.6049  1.3829
 2964TIP3   OH233086   0.996   5.607  10.943 -0.5150  0.0282  0.1391
 2964TIP3    H133087   1.040   5.683  10.982 -0.7607  0.6879 -0.8346
 2964TIP3    H233088   1.065   5.541  10.935 -0.7280 -0.6837  2.9576
 2965TIP3   OH233089   7.341   0.945  10.755  0.7001 -0.1746  0.2549
 2965TIP3    H133090   7.369   0.940  10.846 -0.0521 -1.3798  0.4360
 2965TIP3    H233091   7.359   0.859  10.719 -2.5091 -1.0101  0.3441
 2966TIP3   OH233092   6.267   3.304  10.559  0.6226  0.0271 -0.4633
 2966TIP3    H133093   6.296   3.386  10.521 -0.6364  0.7674  0.1283
 2966TIP3    H233094   6.320   3.237  10.515  0.7337  1.0269 -1.9090
 2967TIP3   OH233095   6.445   8.939  10.664  0.9979 -0.3158  0.0345
 2967TIP3    H133096   6.508   8.867  10.665 -1.6815 -2.8354  0.7531
 2967TIP3    H233097   6.419   8.949  10.756 -2.2266 -1.9119 -0.5829
 2968TIP3   OH233098   5.214   6.438   9.529  0.1145  0.3183 -0.1950
 2968TIP3    H133099   5.289   6.393   9.570 -0.8027  0.8178  2.2412
 2968TIP3    H233100   5.155   6.367   9.503  0.9281 -0.0392 -1.1004
 2969TIP3   OH233101   0.696   2.061   9.441  0.1655  0.4001 -0.0038
 2969TIP3    H133102   0.678   2.093   9.529 -0.4959 -1.0118  0.4136
 2969TIP3    H233103   0.610   2.058   9.398  0.4591  0.9094 -0.6412
 2970TIP3   OH233104   0.913   2.799  10.882 -0.2621 -0.2949  0.7049
 2970TIP3    H133105   0.843   2.850  10.924  1.1817  1.7489  0.7470
 2970TIP3    H233106   0.878   2.779  10.795 -0.1425  2.6571 -0.1387
 2971TIP3   OH233107   2.553   1.162  10.448 -0.0470  0.2596  0.0442
 2971TIP3    H133108   2.496   1.097  10.406  0.2054  0.2885 -0.3406
 2971TIP3    H233109   2.568   1.127  10.536 -1.0895  0.5085  0.3372
 2972TIP3   OH233110   3.017   9.063   9.307 -0.3585 -0.0047 -0.0114
 2972TIP3    H133111   3.023   9.037   9.215 -2.1455 -1.7747  0.3078
 2972TIP3    H233112   2.933   9.108   9.314 -0.0108  0.5539  0.6667
 2973TIP3   OH233113   7.067   0.345  10.051  0.0370 -0.4009 -0.3529
 2973TIP3    H133114   7.160   0.338  10.032  0.0506  2.2843 -1.7957
 2973TIP3    H233115   7.061   0.342  10.146  1.5663 -0.7778 -0.2537
 2974TIP3   OH233116   1.753   1.021  11.386  0.1923 -0.1923 -0.4091
 2974TIP3    H133117   1.706   0.968  11.322  0.5565 -0.9981 -0.0346
 2974TIP3    H233118   1.843   0.989  11.382 -0.1131 -1.5904  1.7875
 2975TIP3   OH233119   4.919   5.246   9.477  0.2113  0.2553 -0.0671
 2975TIP3    H133120   4.946   5.209   9.561 -0.0726  1.5334  0.6157
 2975TIP3    H233121   4.999   5.287   9.443  0.5837 -1.1384 -0.9301
 2976TIP3   OH233122   6.839   3.212  10.327  0.0914 -0.3461  0.0526
 2976TIP3    H133123   6.846   3.259  10.243  0.2733 -0.3167  0.0839
 2976TIP3    H233124   6.791   3.271  10.384 -0.0120 -0.3559 -0.0233
 2977TIP3   OH233125   2.199   5.518  10.441  0.1364 -0.0399  0.4663
 2977TIP3    H133126   2.179   5.441  10.494  2.6450 -0.7651  0.4932
 2977TIP3    H233127   2.159   5.499  10.356  1.1565 -1.6381  0.3094
 2978TIP3   OH233128   4.775   4.309  10.368 -0.3101 -0.0275 -0.4291
 2978TIP3    H133129   4.750   4.280  10.280 -0.0088 -0.4725 -0.3696
 2978TIP3    H233130   4.696   4.296  10.421  0.0150 -1.4292 -0.2426
 2979TIP3   OH233131   2.939   0.275  10.231  0.5177 -0.1865  0.0095
 2979TIP3    H133132   2.979   0.227  10.159  1.5103  1.4489 -0.5968
 2979TIP3    H233133   2.931   0.365  10.198 -1.0209  0.1348  1.1705
 2980TIP3   OH233134   8.460   4.213  10.151 -0.0270 -0.3225 -0.2063
 2980TIP3    H133135   8.536   4.267  10.135 -1.6154  1.7516 -1.2250
 2980TIP3    H233136   8.393   4.246  10.091 -2.1780 -1.1132  1.5852
 2981TIP3   OH233137   2.893   5.424  10.396 -0.5669  0.3164 -1.0129
 2981TIP3    H133138   2.852   5.458  10.475 -0.1416 -0.9803 -0.2003
 2981TIP3    H233139   2.946   5.496  10.363  0.5951  0.3694  0.8423
 2982TIP3   OH233140   0.111   1.451  11.309  0.2227 -0.1265 -0.3689
 2982TIP3    H133141   0.129   1.369  11.354 -1.2930 -0.0075  0.5349
 2982TIP3    H233142   0.191   1.502  11.319  0.7659 -1.0298  0.0795
 2983TIP3   OH233143   6.417   3.926   9.878 -0.3027  0.2323 -0.2730
 2983TIP3    H133144   6.437   3.983   9.804  0.9855  0.5155  0.2592
 2983TIP3    H233145   6.456   3.841   9.855  0.9491  0.5818  0.4580
 2984TIP3   OH233146   7.715   6.545   9.962 -0.1700  0.7088  0.3235
 2984TIP3    H133147   7.763   6.617  10.002  1.0743  0.1242 -0.0640
 2984TIP3    H233148   7.628   6.581   9.944  0.7234  2.4399 -0.8040
 2985TIP3   OH233149   6.732   6.759  10.645  0.6006 -0.1588 -0.0827
 2985TIP3    H133150   6.760   6.821  10.712  1.2301 -0.3176 -0.1902
 2985TIP3    H233151   6.764   6.674  10.675  1.0054 -0.2094 -0.6437
 2986TIP3   OH233152   8.322   8.886  10.268  0.3923  0.1867 -0.3483
 2986TIP3    H133153   8.277   8.812  10.228 -0.0060 -0.5390  1.3436
 2986TIP3    H233154   8.297   8.961  10.215 -0.2440 -0.6899 -1.3284
 2987TIP3   OH233155   5.121   0.474   9.504  0.3854 -0.0537  0.1074
 2987TIP3    H133156   5.064   0.429   9.567 -0.1053  0.0847 -0.2340
 2987TIP3    H233157   5.096   0.437   9.419 -1.0202  1.8393 -0.3610
 2988TIP3   OH233158   6.768   2.956  10.451 -0.2264  0.5453  0.0291
 2988TIP3    H133159   6.767   2.994  10.363 -0.6710  0.5775  0.0477
 2988TIP3    H233160   6.797   3.027  10.508 -1.2505  0.9300  0.0929
 2989TIP3   OH233161   7.350   1.550  10.593 -0.1151  0.0422  0.2739
 2989TIP3    H133162   7.340   1.464  10.634 -2.4588 -0.2084 -0.6541
 2989TIP3    H233163   7.426   1.540  10.535  0.3660 -1.0199  1.0560
 2990TIP3   OH233164   5.936   7.363   9.922 -0.4994 -0.0920  0.1801
 2990TIP3    H133165   5.894   7.401   9.844  1.0760  0.4648 -0.4362
 2990TIP3    H233166   5.870   7.371   9.991 -2.0507 -0.8440 -1.1279
 2991TIP3   OH233167   2.446   2.432  10.328  0.3575 -0.1606 -0.0785
 2991TIP3    H133168   2.489   2.350  10.350  1.0712  0.4332  0.8424
 2991TIP3    H233169   2.365   2.406  10.285  1.3048 -1.3170 -1.2414
 2992TIP3   OH233170   4.562   8.389  11.236  0.4730  0.3225  0.2056
 2992TIP3    H133171   4.608   8.463  11.276  1.1777 -0.9424  1.8483
 2992TIP3    H233172   4.627   8.318  11.236 -0.2008 -0.3347 -1.2790
 2993TIP3   OH233173   7.981   3.926  10.415  0.1348  0.3054 -0.1339
 2993TIP3    H133174   7.984   4.019  10.437  1.0547  0.6010 -1.4004
 2993TIP3    H233175   8.040   3.884  10.477 -1.6226  0.2712  1.6083
 2994TIP3   OH233176   0.332   5.273   9.259  0.3592  0.1136  0.1003
 2994TIP3    H133177   0.268   5.334   9.221  0.5731 -0.0653 -0.5690
 2994TIP3    H233178   0.410   5.326   9.273 -0.1034  0.4631  1.4415
 2995TIP3   OH233179   9.093   1.209  10.683 -0.4019 -0.0821 -0.1805
 2995TIP3    H133180   9.050   1.136  10.639 -1.5336  0.5457 -0.1558
 2995TIP3    H233181   9.054   1.287  10.642  0.5484  0.5074  0.0109
 2996TIP3   OH233182   3.242   8.479  10.510  0.2983  0.5428 -0.3133
 2996TIP3    H133183   3.192   8.555  10.479  0.1060  0.3780 -0.4118
 2996TIP3    H233184   3.182   8.434  10.570  0.0770 -0.0308 -0.9537
 2997TIP3   OH233185   2.625   9.210  10.813 -0.3851  0.4611 -0.5768
 2997TIP3    H133186   2.720   9.211  10.827 -0.4677  2.4119  0.1768
 2997TIP3    H233187   2.602   9.117  10.815  1.1173  0.0067  2.2111
 2998TIP3   OH233188   8.324   1.352  11.310 -0.3271 -0.4821 -0.2150
 2998TIP3    H133189   8.363   1.438  11.325  1.3015 -1.2835  0.4102
 2998TIP3    H233190   8.357   1.325  11.225 -0.4165 -0.7083 -0.1792
 2999TIP3   OH233191   7.007   1.847   9.220 -0.2344  0.0696  0.5210
 2999TIP3    H133192   7.023   1.926   9.168  0.3957 -0.1001  0.4446
 2999TIP3    H233193   7.008   1.877   9.311  0.5266  0.0774  0.5191
 3000TIP3   OH233194   6.760   2.351  10.258 -0.0055 -0.4178 -0.3240
 3000TIP3    H133195   6.831   2.294  10.289 -0.4660 -0.7488  0.1362
 3000TIP3    H233196   6.681   2.312  10.295 -0.2330  1.1150  0.9100
 3001TIP3   OH233197   1.702   7.366   9.902 -0.5325 -0.2517  0.0490
 3001TIP3    H133198   1.761   7.360   9.826  1.4670 -0.2420  1.5160
 3001TIP3    H233199   1.635   7.299   9.886  1.8599 -2.7855 -0.0719
 3002TIP3   OH233200   0.938   3.847   9.466  0.4879  0.0856 -0.7672
 3002TIP3    H133201   0.915   3.928   9.511 -0.7968 -1.1055  0.8315
 3002TIP3    H233202   0.858   3.821   9.421  0.8929 -0.3128 -1.2760
 3003TIP3   OH233203   8.285   0.756  11.307 -0.0055  0.0265 -0.0380
 3003TIP3    H133204   8.369   0.763  11.354 -0.7976  1.7405  1.2344
 3003TIP3    H233205   8.273   0.662  11.294  1.2812 -0.3727  1.3161
 3004TIP3   OH233206   0.193   2.780  10.924  0.0850  0.3048 -0.5769
 3004TIP3    H133207   0.283   2.808  10.942 -0.1478  0.4785  0.3881
 3004TIP3    H233208   0.139   2.837  10.979 -0.6009  0.0703 -0.9979
 3005TIP3   OH233209   5.668   7.999  10.619 -0.1305 -0.1778  0.5026
 3005TIP3    H133210   5.634   7.912  10.637  1.2350 -1.0003 -0.7061
 3005TIP3    H233211   5.757   7.985  10.587  0.1957  1.6709  0.4553
 3006TIP3   OH233212   6.418   6.608  11.265 -0.0127 -0.9808 -0.1601
 3006TIP3    H133213   6.497   6.564  11.296 -0.2096 -0.6835  0.8143
 3006TIP3    H233214   6.378   6.545  11.204  1.0831 -1.0293 -0.8485
 3007TIP3   OH233215   4.399   2.124  10.924 -0.2015 -0.6871  0.1672
 3007TIP3    H133216   4.373   2.146  10.834 -0.2586 -0.5357  0.2207
 3007TIP3    H233217   4.399   2.208  10.970  1.0663 -0.5709 -0.0008
 3008TIP3   OH233218   3.770   5.320   9.250  0.3041  0.0948  0.3367
 3008TIP3    H133219   3.837   5.363   9.198  0.4387  0.3663  0.7337
 3008TIP3    H233220   3.721   5.391   9.291  0.9333 -0.1282  1.5113
 3009TIP3   OH233221   3.495   8.384   9.122 -0.0155  0.3856 -0.8219
 3009TIP3    H133222   3.494   8.291   9.101  2.0075  0.4534 -1.4760
 3009TIP3    H233223   3.403   8.409   9.127 -0.5944 -1.4857 -1.3531
 3010TIP3   OH233224   3.412   3.689  10.479 -0.3396 -0.3778  0.2521
 3010TIP3    H133225   3.494   3.660  10.518  1.1692  1.7321 -1.1646
 3010TIP3    H233226   3.395   3.775  10.518 -0.0762  0.6809 -1.8145
 3011TIP3   OH233227   0.259   8.597  10.595  0.0696  0.2172 -0.0571
 3011TIP3    H133228   0.169   8.564  10.592  0.3180 -0.4217 -1.1782
 3011TIP3    H233229   0.252   8.687  10.564 -0.3043  0.4987  0.8123
 3012TIP3   OH233230   0.453   8.755   9.969 -0.0041  0.2512 -0.0475
 3012TIP3    H133231   0.480   8.834   9.921  1.3918 -0.3316 -0.2613
 3012TIP3    H233232   0.535   8.720  10.005 -0.8421 -0.0987  1.5962
 3013TIP3   OH233233   2.713   5.231  10.838  0.3841  0.1192  0.1957
 3013TIP3    H133234   2.757   5.146  10.846 -0.5994 -0.3762  0.4556
 3013TIP3    H233235   2.772   5.292  10.882  0.2559 -0.7471  1.6571
 3014TIP3   OH233236   1.891   0.069  11.020 -0.2121 -0.0548 -0.4245
 3014TIP3    H133237   1.948  -0.008  11.025 -1.3293 -0.9735 -1.1878
 3014TIP3    H233238   1.863   0.084  11.111 -1.7704 -1.9966 -0.5117
 3015TIP3   OH233239   1.382   5.245  10.846 -0.0995 -0.3150 -0.2479
 3015TIP3    H133240   1.301   5.237  10.796  0.0889 -1.7960 -0.3738
 3015TIP3    H233241   1.372   5.182  10.918  0.9226 -0.5185 -0.2658
 3016TIP3   OH233242   0.064   4.771  10.829  0.1116 -0.4918  0.5301
 3016TIP3    H133243   0.015   4.842  10.871  0.4480  0.1213 -0.0858
 3016TIP3    H233244   0.012   4.693  10.844 -0.1930 -0.1369  1.3522
 3017TIP3   OH233245   8.368   3.205  11.249 -0.0173  0.2500  0.0910
 3017TIP3    H133246   8.323   3.150  11.186  1.4839 -0.9294  0.0070
 3017TIP3    H233247   8.298   3.252  11.294 -1.2989 -1.2286 -0.2947
 3018TIP3   OH233248   3.347   0.469   9.444 -0.4860 -0.4128 -0.2536
 3018TIP3    H133249   3.394   0.551   9.460  0.4285 -0.4743 -2.2768
 3018TIP3    H233250   3.302   0.483   9.361  0.3767 -2.2285 -1.0836
 3019TIP3   OH233251   4.515   7.896  10.925 -0.1440  0.1083  0.4029
 3019TIP3    H133252   4.465   7.974  10.903 -3.6852 -2.3149 -0.9282
 3019TIP3    H233253   4.526   7.901  11.020 -1.3681  1.6073  0.4987
 3020TIP3   OH233254   5.639   0.561  10.363 -0.0801 -0.2625  0.4136
 3020TIP3    H133255   5.631   0.490  10.426  0.7333  0.0714  0.9070
 3020TIP3    H233256   5.654   0.518  10.279  0.0950 -0.6783  0.6562
 3021TIP3   OH233257   3.001   7.597  10.509 -0.0483 -0.0796  0.2322
 3021TIP3    H133258   3.002   7.598  10.605 -0.7616  2.9768  0.3088
 3021TIP3    H233259   3.088   7.628  10.484 -0.5503  1.1694 -0.0230
 3022TIP3   OH233260   0.066   1.850   9.247  0.2038  0.0810  0.5682
 3022TIP3    H133261  -0.025   1.877   9.234  0.1189 -0.4308  0.0472
 3022TIP3    H233262   0.115   1.932   9.248 -0.2797  0.3736  1.0318
 3023TIP3   OH233263   0.880   6.324  10.195 -1.0812  0.4854 -0.2290
 3023TIP3    H133264   0.885   6.231  10.217 -3.5805  0.3204 -0.0786
 3023TIP3    H233265   0.957   6.340  10.141 -0.3755 -1.5588  0.0813
 3024TIP3   OH233266   8.743   3.138  10.276 -0.3977 -0.5014 -0.6418
 3024TIP3    H133267   8.816   3.114  10.333 -1.2254  0.3655  0.8622
 3024TIP3    H233268   8.673   3.078  10.301 -1.1688  0.7008  0.1926
 3025TIP3   OH233269   2.274   1.063   9.881 -0.5371  0.5001 -0.0705
 3025TIP3    H133270   2.230   1.118   9.816  0.5125 -0.3767 -1.5892
 3025TIP3    H233271   2.239   0.975   9.865  1.7916 -0.2588 -1.4586
 3026TIP3   OH233272   6.794   6.091  10.913 -0.4181 -0.6850  0.0197
 3026TIP3    H133273   6.782   6.166  10.971  0.8285 -1.8513  1.8873
 3026TIP3    H233274   6.888   6.093  10.891 -0.5423 -1.2352 -0.6072
 3027TIP3   OH233275   5.001   0.509  10.230  0.3282  0.2763 -0.1624
 3027TIP3    H133276   4.958   0.434  10.270  0.5135  0.2390 -0.0346
 3027TIP3    H233277   4.932   0.574  10.221  0.9149  1.5923  3.3269
 3028TIP3   OH233278   7.541   8.334  10.264 -0.9252 -0.3251  0.2633
 3028TIP3    H133279   7.611   8.272  10.245 -1.1259 -0.8897  1.2721
 3028TIP3    H233280   7.558   8.364  10.353 -1.4976  0.1695  0.2201
 3029TIP3   OH233281   7.421   6.473  10.142 -0.1620  0.3472 -0.1014
 3029TIP3    H133282   7.452   6.525  10.068  0.2002  0.1235 -0.1078
 3029TIP3    H233283   7.333   6.445  10.117 -0.1555  0.5199 -0.3176
 3030TIP3   OH233284   4.735   1.014   9.120  0.6072 -0.7999  0.2931
 3030TIP3    H133285   4.781   1.094   9.093  0.7142 -0.7119  0.7282
 3030TIP3    H233286   4.671   1.043   9.184  0.0864 -0.9554 -0.1516
 3031TIP3   OH233287   4.970   3.219  10.882 -0.4481 -0.1329  0.1398
 3031TIP3    H133288   5.043   3.276  10.857 -1.2720  0.4025 -1.1598
 3031TIP3    H233289   5.008   3.131  10.883 -0.4913 -0.4396 -4.4313
 3032TIP3   OH233290   4.880   7.513  10.460 -0.4941 -0.2460  0.0913
 3032TIP3    H133291   4.890   7.508  10.555  1.4757 -0.4984 -0.0934
 3032TIP3    H233292   4.850   7.425  10.434 -1.5010 -0.0369  0.5005
 3033TIP3   OH233293   7.310   4.981  10.135  0.5379  0.9287 -0.0833
 3033TIP3    H133294   7.393   5.013  10.171  0.1962  3.4012 -1.3306
 3033TIP3    H233295   7.332   4.894  10.100  2.2672  0.9663  0.7971
 3034TIP3   OH233296   7.680   8.583   9.275  0.6254 -0.0917 -0.2772
 3034TIP3    H133297   7.751   8.636   9.312  1.4107 -0.2814 -1.4371
 3034TIP3    H233298   7.722   8.499   9.253 -0.3117 -0.7595  0.3826
 3035TIP3   OH233299   5.042   1.421  10.459 -0.2933  0.1840 -0.0188
 3035TIP3    H133300   4.976   1.397  10.395  0.2725  0.0605 -0.5635
 3035TIP3    H233301   5.106   1.351  10.455 -0.3460  0.0821  0.8200
 3036TIP3   OH233302   3.206   4.906  10.171 -0.1172 -0.5074 -0.3122
 3036TIP3    H133303   3.204   4.814  10.143  0.2587 -0.8345  0.7051
 3036TIP3    H233304   3.292   4.937  10.144  0.1830 -0.7760  0.3264
 3037TIP3   OH233305   8.376   2.659  10.442  0.1580 -0.3499  0.7533
 3037TIP3    H133306   8.339   2.742  10.470 -0.3858  0.2799 -1.5687
 3037TIP3    H233307   8.315   2.593  10.473 -2.2849  0.5502 -1.6725
 3038TIP3   OH233308   3.792   3.291  10.321  0.5164  0.0920  0.1392
 3038TIP3    H133309   3.736   3.225  10.279  1.4939 -0.8405  0.2558
 3038TIP3    H233310   3.775   3.371  10.272  1.8115 -1.0065 -2.3355
 3039TIP3   OH233311   2.132   6.058   9.647  0.0249 -0.6512  0.4657
 3039TIP3    H133312   2.223   6.055   9.678  0.5508  0.9006 -0.7945
 3039TIP3    H233313   2.123   5.980   9.592  0.4658 -1.0148  0.8995
 3040TIP3   OH233314   4.976   0.900  10.938 -0.1314 -0.3180  0.0669
 3040TIP3    H133315   5.026   0.878  10.859  0.5389  1.6372 -0.0913
 3040TIP3    H233316   4.890   0.925  10.905 -0.7957 -2.2030  0.2255
 3041TIP3   OH233317   7.101   3.160  10.114 -0.5574 -0.1218 -0.2141
 3041TIP3    H133318   7.129   3.082  10.066  2.1387  0.7190 -0.1462
 3041TIP3    H233319   7.080   3.224  10.045  0.1676  0.0496 -0.2800
 3042TIP3   OH233320   5.525   2.163  11.665  0.3547  0.5730 -0.2558
 3042TIP3    H133321   5.512   2.228  11.734  1.1881  0.4823  0.0013
 3042TIP3    H233322   5.540   2.214  11.586 -0.0406  0.6834 -0.2598
 3043TIP3   OH233323   0.194   2.157   9.249  0.1925  0.3119  0.1205
 3043TIP3    H133324   0.148   2.149   9.332 -2.1839 -4.8811 -1.2205
 3043TIP3    H233325   0.142   2.218   9.198 -0.1570  1.0950  1.3819
 3044TIP3   OH233326   6.619   4.569  10.359 -0.5100  0.2201 -0.3965
 3044TIP3    H133327   6.529   4.589  10.383  0.1835  1.1309  1.6157
 3044TIP3    H233328   6.646   4.501  10.420  0.5234  0.7660 -0.2201
 3045TIP3   OH233329   6.812   6.071   9.739 -0.3368  0.3138 -0.7878
 3045TIP3    H133330   6.900   6.033   9.744  0.2725  1.6053 -1.0404
 3045TIP3    H233331   6.825   6.153   9.691 -1.6637  0.5929 -0.7041
 3046TIP3   OH233332   5.591   6.202  11.141 -0.1957  0.2158  0.2557
 3046TIP3    H133333   5.619   6.294  11.146  1.6644 -0.2989 -0.0582
 3046TIP3    H233334   5.563   6.180  11.230 -1.4784  1.2957  0.1613
 3047TIP3   OH233335   0.471   7.801  11.008 -0.3789  0.1915 -0.1749
 3047TIP3    H133336   0.474   7.896  10.999 -1.0120  0.4335  1.7051
 3047TIP3    H233337   0.386   7.776  10.972 -0.9627  0.5788  0.8788
 3048TIP3   OH233338   0.548   4.241   9.178 -0.1114  0.0100  0.0985
 3048TIP3    H133339   0.571   4.148   9.178 -2.5699 -0.6630 -0.7649
 3048TIP3    H233340   0.532   4.262   9.270 -1.5547 -0.9990  0.1017
 3049TIP3   OH233341   5.414   0.307  11.136  0.0540  0.9618  0.0478
 3049TIP3    H133342   5.396   0.317  11.042  0.6844  0.2749 -0.1511
 3049TIP3    H233343   5.472   0.380  11.158 -0.4923  1.4108  0.0186
 3050TIP3   OH233344   5.614   9.198  10.066  0.1412  0.6869 -0.2151
 3050TIP3    H133345   5.578   9.261  10.003  1.5098  1.7173  0.0060
 3050TIP3    H233346   5.704   9.226  10.080 -0.1610  0.6213  2.3803
 3051TIP3   OH233347   5.249   4.772  11.084 -0.2502 -0.3179  0.1654
 3051TIP3    H133348   5.173   4.809  11.040  0.3698 -0.9554 -1.5002
 3051TIP3    H233349   5.324   4.804  11.035  0.7051  1.1885  2.4086
 3052TIP3   OH233350   7.921   7.493  10.921 -0.2550  0.4578  0.2695
 3052TIP3    H133351   7.881   7.572  10.884  0.8733  0.5128 -0.8822
 3052TIP3    H233352   7.989   7.525  10.980  1.4265  0.3833 -1.5640
 3053TIP3   OH233353   4.151   1.490   9.841 -0.5093 -0.4293  0.2174
 3053TIP3    H133354   4.117   1.510   9.929 -1.2891 -2.1192  0.3462
 3053TIP3    H233355   4.085   1.526   9.782 -1.2046 -1.3737  0.4018
 3054TIP3   OH233356   8.043   0.561   8.875  0.0233  0.1266 -0.1790
 3054TIP3    H133357   8.049   0.562   8.780  0.1977  1.0685 -0.1695
 3054TIP3    H233358   8.088   0.481   8.902 -0.2482 -0.2744 -0.8985
 3055TIP3   OH233359   7.417   3.778   9.221  0.4359  0.1713  0.0244
 3055TIP3    H133360   7.384   3.813   9.304  1.4360 -0.4752  0.7227
 3055TIP3    H233361   7.477   3.845   9.188  0.9468 -0.0774  0.4341
 3056TIP3   OH233362   2.185   2.122  10.965  0.3097 -0.1874  0.1359
 3056TIP3    H133363   2.104   2.116  10.914  0.8690 -1.7331 -0.6330
 3056TIP3    H233364   2.166   2.073  11.045 -0.0500  0.9236  0.7640
 3057TIP3   OH233365   4.254   0.617  11.111 -0.3652 -0.1617 -0.4292
 3057TIP3    H133366   4.176   0.616  11.055  0.9411  0.6570 -2.4037
 3057TIP3    H233367   4.258   0.529  11.148 -1.3187 -0.7416 -1.6096
 3058TIP3   OH233368   9.109   0.145   9.738 -0.0186 -0.0946  0.2315
 3058TIP3    H133369   9.164   0.085   9.787  0.7253 -1.0659 -1.6996
 3058TIP3    H233370   9.100   0.105   9.651  0.2069  2.3815 -1.0283
 3059TIP3   OH233371   5.598   4.845   9.788 -0.2674  0.1012 -0.1363
 3059TIP3    H133372   5.531   4.793   9.745 -1.6370  2.9251 -1.7418
 3059TIP3    H233373   5.550   4.914   9.834  1.4223  2.0918 -1.1308
 3060TIP3   OH233374   4.019   2.468   9.140  0.1844 -0.1414 -0.0014
 3060TIP3    H133375   4.102   2.495   9.100 -0.0802 -0.0262 -0.4873
 3060TIP3    H233376   3.978   2.413   9.074 -0.7781  0.9732 -0.3718
 3061TIP3   OH233377   9.037   6.869  10.217 -0.2703 -0.1070 -0.0991
 3061TIP3    H133378   9.007   6.778  10.226 -0.3294 -0.0599  0.1771
 3061TIP3    H233379   9.002   6.897  10.132 -0.8386 -0.1141  0.1305
 3062TIP3   OH233380   7.947   0.392   9.383 -0.0398 -0.1849 -0.2624
 3062TIP3    H133381   8.015   0.448   9.418  0.8686 -0.4938 -1.4612
 3062TIP3    H233382   7.959   0.308   9.429 -1.4666  0.5683  1.6042
 3063TIP3   OH233383   4.291   2.242   9.135 -0.4774 -0.1407 -0.8531
 3063TIP3    H133384   4.278   2.336   9.120 -0.6215 -0.1147 -0.5757
 3063TIP3    H233385   4.311   2.207   9.048  1.5778  0.4568 -0.6680
 3064TIP3   OH233386   6.294   0.132  10.848 -0.1523 -0.0765 -0.2042
 3064TIP3    H133387   6.370   0.152  10.903 -0.6088 -1.2714  0.8918
 3064TIP3    H233388   6.332   0.088  10.771  0.2988 -0.2785  0.1299
 3065TIP3   OH233389   7.071   8.254   9.430 -0.1571  0.2803  0.9017
 3065TIP3    H133390   7.052   8.348   9.429  0.3530  0.4467 -2.4631
 3065TIP3    H233391   6.986   8.213   9.449 -0.6950  1.3630  0.9020
 3066TIP3   OH233392   3.472   0.593  10.979 -0.2797  0.1611  0.4349
 3066TIP3    H133393   3.519   0.671  10.951 -1.2644  1.5077  2.2690
 3066TIP3    H233394   3.520   0.562  11.056 -0.3041 -0.6518  0.1399
 3067TIP3   OH233395   6.036   6.012  10.081 -0.0718 -0.8806 -0.5097
 3067TIP3    H133396   5.972   6.074  10.047  0.9895 -0.6651 -2.2339
 3067TIP3    H233397   6.080   5.978  10.003  1.1186 -1.8821  0.5615
 3068TIP3   OH233398   5.220   7.452  11.118  0.2504 -0.1041 -0.1975
 3068TIP3    H133399   5.151   7.492  11.171 -0.3573 -0.4753 -0.7113
 3068TIP3    H233400   5.175   7.417  11.042  0.7056 -2.1847  0.4465
 3069TIP3   OH233401   8.212   2.254  10.750  0.0421 -0.1681  0.6333
 3069TIP3    H133402   8.139   2.197  10.775 -0.1327 -1.1011 -1.7249
 3069TIP3    H233403   8.175   2.342  10.753 -0.9710 -0.5608  0.2536
 3070TIP3   OH233404   3.749   6.828  10.969 -0.0052  0.5163  0.0609
 3070TIP3    H133405   3.655   6.813  10.968 -0.0550  0.8450 -0.2677
 3070TIP3    H233406   3.769   6.864  10.883  0.5993 -0.5922 -0.2706
 3071TIP3   OH233407   6.266   4.799  11.116  0.2002 -0.1943  0.2864
 3071TIP3    H133408   6.272   4.879  11.063  0.2274 -0.2631  0.1857
 3071TIP3    H233409   6.174   4.796  11.144 -0.0575 -0.6898 -0.5903
 3072TIP3   OH233410   5.312   5.118  10.370  0.2840 -0.1167  0.8793
 3072TIP3    H133411   5.254   5.059  10.324 -0.0147 -0.8254  2.1305
 3072TIP3    H233412   5.349   5.066  10.441  1.7343  0.5785  0.6781
 3073TIP3   OH233413   5.842   3.032  10.028  0.0782 -0.0239  0.3879
 3073TIP3    H133414   5.787   2.971  10.076 -0.5236  0.2070  0.0100
 3073TIP3    H233415   5.885   2.978   9.961  0.1273 -0.1631  0.5310
 3074TIP3   OH233416   3.843   4.799  11.038  0.1108 -0.9433 -0.3628
 3074TIP3    H133417   3.887   4.736  11.095  1.7221 -1.4141 -1.9986
 3074TIP3    H233418   3.809   4.747  10.966  0.9948 -0.0637 -1.4710
 3075TIP3   OH233419   2.622   7.643  11.131  0.0617  0.6221  0.4208
 3075TIP3    H133420   2.633   7.564  11.078  2.0647  2.1299 -1.5761
 3075TIP3    H233421   2.556   7.694  11.084 -1.1473  0.2559  1.6448
 3076TIP3   OH233422   3.991   0.091  11.257  0.1851  0.3459  0.7155
 3076TIP3    H133423   3.923   0.149  11.291 -0.5827  0.1671 -0.4793
 3076TIP3    H233424   3.948   0.041  11.188  1.2714 -0.4891  0.6140
 3077TIP3   OH233425   3.204   2.255  10.041 -0.2119  0.0373 -0.4907
 3077TIP3    H133426   3.168   2.340  10.064  0.3375  0.2339 -0.3521
 3077TIP3    H233427   3.186   2.245   9.947 -1.0220 -0.0693 -0.3377
 3078TIP3   OH233428   9.173   0.312  10.725  0.1549  0.4818  0.0403
 3078TIP3    H133429   9.207   0.400  10.744  1.3236 -0.1560  1.0145
 3078TIP3    H233430   9.119   0.290  10.801  1.0552 -0.2103  0.4996
 3079TIP3   OH233431   2.679   6.071  10.906 -0.1441 -0.0344 -0.2903
 3079TIP3    H133432   2.597   6.116  10.885 -0.1782  0.0385 -0.0132
 3079TIP3    H233433   2.664   5.980  10.881  0.0176  0.1552 -1.0984
 3080TIP3   OH233434   8.545   3.147   9.326  0.1403  0.1742  0.1539
 3080TIP3    H133435   8.589   3.094   9.260 -0.0398  0.2921 -0.0574
 3080TIP3    H233436   8.617   3.187   9.375  0.3550 -1.6303  1.4626
 3081TIP3   OH233437   3.764   2.523  11.206 -0.3718 -0.5608  0.6862
 3081TIP3    H133438   3.783   2.435  11.173  1.0459  0.4082 -1.3215
 3081TIP3    H233439   3.847   2.569  11.201 -1.6567  1.7730 -1.3682
 3082TIP3   OH233440   4.865   0.143   9.175 -0.4122 -0.6623  0.9931
 3082TIP3    H133441   4.916   0.062   9.180  0.6279 -0.0082  1.0727
 3082TIP3    H233442   4.789   0.119   9.121  0.9708 -1.1224 -0.8320
 3083TIP3   OH233443   8.155   5.509  11.043 -0.2550  0.3949 -0.6947
 3083TIP3    H133444   8.115   5.423  11.037 -0.4317  0.5799 -2.6934
 3083TIP3    H233445   8.248   5.492  11.061 -0.4881 -0.1450  0.0503
 3084TIP3   OH233446   0.110   4.126   9.562 -0.3110 -0.0906  0.6807
 3084TIP3    H133447   0.016   4.131   9.545 -0.2842 -1.6352 -0.1288
 3084TIP3    H233448   0.139   4.217   9.561 -1.5401  0.3379 -0.6160
 3085TIP3   OH233449   5.245   0.967  10.792 -0.4800  0.7330  0.3861
 3085TIP3    H133450   5.255   0.930  10.704 -1.0319  0.8483  0.2703
 3085TIP3    H233451   5.320   0.933  10.841 -1.6701 -1.7278  0.6953
 3086TIP3   OH233452   6.211   2.597  10.237  0.2607 -0.1216  0.7107
 3086TIP3    H133453   6.259   2.593  10.320 -0.3131 -1.0316  1.0132
 3086TIP3    H233454   6.201   2.506  10.211 -1.3019  0.0441  0.6609
 3087TIP3   OH233455   1.878   0.426  10.139 -0.4120  0.0696  0.5929
 3087TIP3    H133456   1.876   0.484  10.063  1.1887  0.7769  1.0593
 3087TIP3    H233457   1.939   0.356  10.115  0.2553  0.4038  1.2857
 3088TIP3   OH233458   0.002   7.119  10.914  0.0182  0.1550  0.4872
 3088TIP3    H133459   0.037   7.101  10.827 -2.5316  0.9876 -0.8093
 3088TIP3    H233460  -0.030   7.035  10.945  1.4354 -0.2550  0.9087
 3089TIP3   OH233461   2.412   3.713  10.524 -0.4459 -0.4166 -0.2144
 3089TIP3    H133462   2.338   3.653  10.527 -0.4529 -0.3826  0.3470
 3089TIP3    H233463   2.374   3.798  10.501 -0.5201 -0.4928 -0.3733
 3090TIP3   OH233464   0.816   3.688  10.923  0.1308  0.6716  0.4518
 3090TIP3    H133465   0.734   3.639  10.917 -0.4250  1.4159  1.6378
 3090TIP3    H233466   0.833   3.718  10.833 -0.2473 -0.4846 -0.0256
 3091TIP3   OH233467   0.653   1.844  10.996  0.5266 -0.6050 -0.8234
 3091TIP3    H133468   0.643   1.777  11.064  0.6348 -0.9437 -1.1385
 3091TIP3    H233469   0.589   1.911  11.019  2.1616  0.4618  1.0039
 3092TIP3   OH233470   2.920   8.019   9.907  0.1231  0.4404 -0.3810
 3092TIP3    H133471   3.002   8.011   9.955 -0.7943  0.4114  1.2604
 3092TIP3    H233472   2.927   7.955   9.836  1.4078  0.2904 -0.1401
 3093TIP3   OH233473   6.365   1.015  10.316  0.1379 -0.3766  0.2471
 3093TIP3    H133474   6.392   0.924  10.300  2.2316  0.5710 -2.1765
 3093TIP3    H233475   6.430   1.048  10.378  0.8225  0.1328 -0.7330
 3094TIP3   OH233476   8.287   8.280   9.963  0.2076  0.9112 -0.0188
 3094TIP3    H133477   8.326   8.363   9.990 -0.6761  1.7369 -1.1376
 3094TIP3    H233478   8.210   8.271  10.019 -0.7583  1.8419 -1.1343
 3095TIP3   OH233479   2.555   6.360  10.701  0.7359 -0.0842 -0.4199
 3095TIP3    H133480   2.575   6.388  10.791  0.0743 -1.1792  0.0956
 3095TIP3    H233481   2.489   6.291  10.712 -0.2556  0.5989 -1.8312
 3096TIP3   OH233482   4.243   8.365  10.778  0.1948  0.5323 -0.3800
 3096TIP3    H133483   4.293   8.431  10.731  0.8506 -0.1757 -0.7109
 3096TIP3    H233484   4.248   8.390  10.870  2.0329 -0.0606 -0.2809
 3097TIP3   OH233485   0.190   7.038  10.722 -0.6096 -0.0199  0.1762
 3097TIP3    H133486   0.244   7.036  10.801 -0.7158  2.4754  0.4064
 3097TIP3    H233487   0.190   6.948  10.690  1.5347 -0.6002  1.6039
 3098TIP3   OH233488   5.285   5.066  10.967 -0.4186  0.2754 -0.9055
 3098TIP3    H133489   5.355   5.072  10.902  1.0950  3.0811  0.7854
 3098TIP3    H233490   5.252   5.155  10.976 -1.6152 -0.3009  1.0493
 3099TIP3   OH233491   1.315   8.149   9.867 -0.0561  0.3574 -0.6618
 3099TIP3    H133492   1.271   8.088   9.808  1.2392  0.1620 -1.4590
 3099TIP3    H233493   1.359   8.211   9.809  2.4511 -0.6831  0.0127
 3100TIP3   OH233494   5.056   3.362   9.813 -0.1717  0.4624 -0.1121
 3100TIP3    H133495   5.126   3.422   9.839 -1.5244  1.4675  1.3992
 3100TIP3    H233496   5.028   3.322   9.896 -1.1221 -0.2364 -0.7493
 3101TIP3   OH233497   3.327   7.974   9.414 -0.1047  0.0659 -0.3016
 3101TIP3    H133498   3.255   7.940   9.466  0.3389  0.9728  0.9646
 3101TIP3    H233499   3.358   7.900   9.362  0.2180 -1.2137  1.6420
 3102TIP3   OH233500   1.299   3.654   9.856 -0.1682  0.0981 -0.1953
 3102TIP3    H133501   1.218   3.706   9.860 -1.4178 -1.8746  2.1453
 3102TIP3    H233502   1.359   3.709   9.805 -1.9698  3.0104  0.5651
 3103TIP3   OH233503   6.708   1.965  11.033  0.6293  0.3266 -0.4587
 3103TIP3    H133504   6.652   1.889  11.021 -1.0571  1.6279 -1.3362
 3103TIP3    H233505   6.797   1.933  11.016  0.0768 -1.6148  0.1576
 3104TIP3   OH233506   6.234   4.092   9.468 -0.1732 -0.2167  0.2368
 3104TIP3    H133507   6.227   4.064   9.559  0.2000 -1.7661 -0.1903
 3104TIP3    H233508   6.143   4.104   9.439 -0.3357 -0.8325  0.4838
 3105TIP3   OH233509   6.836   3.733  10.889  0.4433 -0.4155 -0.1822
 3105TIP3    H133510   6.874   3.664  10.944 -0.9308 -0.9168  0.1705
 3105TIP3    H233511   6.742   3.725  10.902  0.1965  0.7202 -1.1275
 3106TIP3   OH233512   5.268   8.209  11.211  0.2993 -0.2037 -0.0561
 3106TIP3    H133513   5.336   8.271  11.236 -0.2589 -0.0522  1.1713
 3106TIP3    H233514   5.187   8.261  11.213  0.1257 -0.3569 -1.5717
 3107TIP3   OH233515   5.053   7.845   9.788  0.0881 -0.5202  0.2874
 3107TIP3    H133516   5.085   7.818   9.874 -0.8938 -1.3659  0.4146
 3107TIP3    H233517   4.963   7.811   9.785 -0.4411  0.8890 -0.4411
 3108TIP3   OH233518   8.651   8.357  10.905  0.3575 -0.0916  0.3316
 3108TIP3    H133519   8.602   8.438  10.898 -0.3034 -0.5441 -0.5556
 3108TIP3    H233520   8.666   8.345  10.999  0.5356  1.0841  0.4588
 3109TIP3   OH233521   6.305   1.531   9.495  0.2833  0.1916 -0.0241
 3109TIP3    H133522   6.342   1.456   9.449  1.3056 -0.0656  1.1651
 3109TIP3    H233523   6.380   1.589   9.510 -0.1404  0.5380  0.7947
 3110TIP3   OH233524   7.332   7.656  10.848 -0.4137 -0.9462 -0.0840
 3110TIP3    H133525   7.426   7.640  10.854 -0.0131  1.1660  0.1516
 3110TIP3    H233526   7.302   7.659  10.939 -0.0896  1.2874  0.0135
 3111TIP3   OH233527   2.736   5.108  10.119  0.1853  0.6120  0.3674
 3111TIP3    H133528   2.824   5.080  10.144  0.3053 -0.9302 -1.5573
 3111TIP3    H233529   2.749   5.165  10.043 -0.4656  0.2796 -0.0060
 3112TIP3   OH233530   8.059   0.189  10.739 -0.1146  0.0845  0.0877
 3112TIP3    H133531   7.969   0.160  10.750 -0.1934  0.3497  0.1555
 3112TIP3    H233532   8.068   0.262  10.801  0.3622 -0.4081  0.6126
 3113TIP3   OH233533   8.894   4.450  10.610 -0.2290  0.3306 -0.0413
 3113TIP3    H133534   8.829   4.419  10.673 -1.6191  1.0086 -1.1204
 3113TIP3    H233535   8.869   4.540  10.591 -0.1624 -0.0376 -1.9869
 3114TIP3   OH233536   5.892   2.965  11.367  0.2830  0.0129  0.1535
 3114TIP3    H133537   5.809   2.962  11.414  1.0974  0.4477  1.6965
 3114TIP3    H233538   5.893   3.051  11.325  0.6729  0.7493  1.5966
 3115TIP3   OH233539   7.024   1.317  10.443 -0.2124 -0.3775 -0.3853
 3115TIP3    H133540   7.019   1.225  10.419  1.3901 -0.7177  0.5012
 3115TIP3    H233541   7.015   1.318  10.538  0.9874  0.2646 -0.2638
 3116TIP3   OH233542   0.750   0.211  10.450 -0.1561 -0.5024  0.1584
 3116TIP3    H133543   0.733   0.118  10.456 -1.9123 -0.1536  1.2053
 3116TIP3    H233544   0.677   0.246  10.399  0.7256  0.2619 -0.6324
 3117TIP3   OH233545   4.774   7.668   9.769  0.2100  0.6758  0.3083
 3117TIP3    H133546   4.720   7.650   9.692 -0.4031  1.0182  0.6470
 3117TIP3    H233547   4.862   7.642   9.744 -0.2195 -0.5452 -0.0350
 3118TIP3   OH233548   4.049   2.789  10.418  0.4260  0.1332  0.6730
 3118TIP3    H133549   4.143   2.811  10.421  0.5206  0.0501 -1.0608
 3118TIP3    H233550   4.006   2.868  10.453  1.1031  0.3647  1.0208
 3119TIP3   OH233551   0.345   1.227  11.332  0.0842 -0.3870  0.5278
 3119TIP3    H133552   0.275   1.224  11.267  0.4096 -0.2146  0.1732
 3119TIP3    H233553   0.389   1.143  11.324  0.6422 -0.0462 -0.0460
 3120TIP3   OH233554   0.230   2.658   9.539  0.1812  0.0488  0.2064
 3120TIP3    H133555   0.271   2.640   9.623 -2.0826 -0.6606  1.2457
 3120TIP3    H233556   0.227   2.754   9.535 -0.2254  0.0971  1.2399
 3121TIP3   OH233557   5.990   5.941  10.344 -0.0540  0.1157  0.6107
 3121TIP3    H133558   6.018   5.931  10.253 -0.8932  1.9371  0.1154
 3121TIP3    H233559   6.059   5.993  10.385 -0.6398  1.0283  0.4683
 3122TIP3   OH233560   2.543   8.773  10.043  0.2485 -0.6636 -0.6484
 3122TIP3    H133561   2.581   8.836  10.104 -0.1580 -0.0058 -1.0624
 3122TIP3    H233562   2.457   8.809  10.021 -0.1974 -1.6228 -0.5004
 3123TIP3   OH233563   0.230   4.301   9.209  0.4897  0.0183 -0.4566
 3123TIP3    H133564   0.173   4.307   9.133  1.8623  2.1741 -1.4037
 3123TIP3    H233565   0.250   4.207   9.217 -2.1907 -0.6512 -0.7668
 3124TIP3   OH233566   0.658   2.661   9.951  0.2043 -0.3467 -0.1246
 3124TIP3    H133567   0.690   2.666  10.041  1.0020  1.0915 -0.4582
 3124TIP3    H233568   0.633   2.569   9.939  0.5699 -0.6643  1.3904
 3125TIP3   OH233569   6.984   6.279   9.642 -0.6530  0.0130 -0.4089
 3125TIP3    H133570   6.943   6.346   9.589  0.8020  1.0874 -0.2509
 3125TIP3    H233571   7.049   6.239   9.584 -1.0232 -0.7812 -0.2868
 3126TIP3   OH233572   7.943   1.456   9.205  0.3309 -0.5301  0.0446
 3126TIP3    H133573   7.903   1.508   9.135  0.7990 -2.3615 -1.6839
 3126TIP3    H233574   7.869   1.416   9.250 -0.0715  1.9638  1.7814
 3127TIP3   OH233575   5.175   8.112   9.706 -0.3184  0.1225 -0.1023
 3127TIP3    H133576   5.116   8.040   9.730 -1.2802  0.9720  0.1668
 3127TIP3    H233577   5.161   8.178   9.774  1.7570 -0.0645  0.5882
 3128TIP3   OH233578   0.775   6.137  10.691  0.0766 -0.2214 -0.3646
 3128TIP3    H133579   0.806   6.047  10.682  2.0835  0.2582  1.1082
 3128TIP3    H233580   0.842   6.191  10.649  0.5342  0.7426  1.4872
 3129TIP3   OH233581   8.451   5.163  10.613  0.1762 -0.1813  0.0412
 3129TIP3    H133582   8.436   5.128  10.525 -0.6217  0.4759 -0.0962
 3129TIP3    H233583   8.533   5.212  10.605 -0.5176  0.9169 -0.6835
 3130TIP3   OH233584   6.208   7.146  10.343 -0.6713  0.1630 -0.3273
 3130TIP3    H133585   6.268   7.075  10.363 -0.6463 -0.6475 -2.9435
 3130TIP3    H233586   6.257   7.205  10.286 -1.8475  0.2605 -1.2965
 3131TIP3   OH233587   6.695   4.381  10.527  0.0892 -0.1361  0.3499
 3131TIP3    H133588   6.718   4.289  10.538  0.3366  0.0881  1.8606
 3131TIP3    H233589   6.708   4.420  10.613  1.4491  1.6474 -0.5775
 3132TIP3   OH233590   6.606   6.362   9.614 -0.2871  0.2659  0.4507
 3132TIP3    H133591   6.533   6.420   9.593 -0.6219 -0.0480  0.7553
 3132TIP3    H233592   6.609   6.360   9.709 -0.5368 -0.5404  0.4490
 3133TIP3   OH233593   6.006   5.168  11.425 -0.3637 -0.3267 -0.0304
 3133TIP3    H133594   6.095   5.136  11.444 -0.2222 -0.2966 -0.6071
 3133TIP3    H233595   5.955   5.088  11.410 -0.3110 -0.3278 -0.2079
 3134TIP3   OH233596   9.079   6.854  10.800  0.0525 -0.1109  0.3351
 3134TIP3    H133597   9.163   6.810  10.788 -0.3175 -0.8296  0.3426
 3134TIP3    H233598   9.014   6.792  10.767 -0.5036  0.3074  0.6230
 3135TIP3   OH233599   0.936   4.712  10.003  0.1104  0.2648 -0.1488
 3135TIP3    H133600   0.859   4.744  10.048  1.0315  3.0734 -0.3885
 3135TIP3    H233601   0.915   4.721   9.910  0.3512 -0.0117 -0.2343
 3136TIP3   OH233602   0.487   4.759  10.505 -0.6247  0.4472  0.1803
 3136TIP3    H133603   0.418   4.803  10.554 -0.8082  2.0639 -1.4505
 3136TIP3    H233604   0.461   4.768  10.414  0.4607 -1.1772 -0.3328
 3137TIP3   OH233605   3.053   3.641  10.646  0.7138  0.1629 -0.3903
 3137TIP3    H133606   3.069   3.546  10.646  2.3035  0.4017  0.1958
 3137TIP3    H233607   3.017   3.659  10.733 -1.1412 -0.1030 -1.0614
 3138TIP3   OH233608   6.623   8.523  10.324 -0.1975 -0.2853  0.1318
 3138TIP3    H133609   6.557   8.462  10.290 -1.0493  0.1058  1.0182
 3138TIP3    H233610   6.627   8.504  10.418  0.1414  0.4551  0.2773
 3139TIP3   OH233611   6.922   4.165  10.514 -0.0224  0.5554 -0.7871
 3139TIP3    H133612   6.913   4.182  10.608  1.3208 -0.9389 -0.3488
 3139TIP3    H233613   6.873   4.084  10.500 -0.6111  1.0180 -1.4953
 3140TIP3   OH233614   0.581   1.556  10.940 -0.1350 -0.2267 -0.4731
 3140TIP3    H133615   0.547   1.496  11.006 -1.0802 -0.9243 -1.5593
 3140TIP3    H233616   0.506   1.611  10.916  0.0309 -0.3683 -1.3629
 3141TIP3   OH233617   1.481   4.246   9.820  0.5268  0.1693 -0.7524
 3141TIP3    H133618   1.488   4.332   9.864  3.8056 -0.1729 -0.3869
 3141TIP3    H233619   1.492   4.266   9.727 -0.0705  0.2440 -0.8137
 3142TIP3   OH233620   5.425   6.778  10.624  0.1928 -0.1309  0.4932
 3142TIP3    H133621   5.487   6.767  10.552 -0.2141 -0.1687  0.1460
 3142TIP3    H233622   5.414   6.689  10.658  2.4109  0.1986  2.3380
 3143TIP3   OH233623   4.849   1.225   9.371  0.1074 -0.4333  0.5388
 3143TIP3    H133624   4.772   1.265   9.412  1.0372  1.1141  0.8778
 3143TIP3    H233625   4.904   1.198   9.445  0.9192  0.6068  0.3466
 3144TIP3   OH233626   5.674   2.099   9.917  0.3642 -0.0997  0.0629
 3144TIP3    H133627   5.706   2.013   9.946  0.3655  0.1337  0.7854
 3144TIP3    H233628   5.584   2.082   9.888 -0.3951 -0.0217  2.1508
 3145TIP3   OH233629   4.618   2.223  10.152 -0.1845 -0.7088 -0.2339
 3145TIP3    H133630   4.597   2.315  10.164  0.2963 -0.6056 -0.1469
 3145TIP3    H233631   4.682   2.222  10.081  0.0334 -0.9483 -0.0336
 3146TIP3   OH233632   4.858   1.726  10.453 -0.4741  0.3523  0.3875
 3146TIP3    H133633   4.884   1.656  10.513 -0.3885 -0.2478 -0.3410
 3146TIP3    H233634   4.814   1.791  10.509 -0.8141 -0.4175  1.0219
 3147TIP3   OH233635   0.963   9.135  10.287  0.3819 -1.2301  0.4945
 3147TIP3    H133636   0.913   9.067  10.243 -0.5498 -0.6084  0.5745
 3147TIP3    H233637   1.034   9.155  10.226  0.9384 -2.5763  0.6744
 3148TIP3   OH233638   0.563   1.704   9.132  0.1269 -0.2340  0.4069
 3148TIP3    H133639   0.535   1.778   9.079 -0.8731 -0.3484  0.7499
 3148TIP3    H233640   0.501   1.634   9.111 -0.2644 -0.2971  1.6525
 3149TIP3   OH233641   8.600   2.784   9.149  0.0969  0.3117 -0.0311
 3149TIP3    H133642   8.546   2.752   9.220 -0.1771 -0.5675 -0.6155
 3149TIP3    H233643   8.559   2.748   9.070  1.6823 -0.6488 -0.4650
 3150TIP3   OH233644   3.642   3.475   9.998  0.2300  0.0567  0.3322
 3150TIP3    H133645   3.618   3.435  10.081  0.7921  2.9778  2.0850
 3150TIP3    H233646   3.566   3.464   9.942 -2.0275  1.7337  2.7937
 3151TIP3   OH233647   1.317   0.585  11.008 -0.8491 -0.5222  0.6063
 3151TIP3    H133648   1.404   0.553  10.982 -1.3023 -0.1589 -1.5733
 3151TIP3    H233649   1.257   0.543  10.946 -2.0236  0.6250  0.9345
 3152TIP3   OH233650   0.173   7.400  10.085 -0.5768  1.0594 -0.1575
 3152TIP3    H133651   0.230   7.449  10.144 -1.7698  2.5629 -0.1960
 3152TIP3    H233652   0.104   7.462  10.061 -2.4766 -0.7920  0.2178
 3153TIP3   OH233653   7.302   0.648   9.912  0.8188 -0.5848 -0.4157
 3153TIP3    H133654   7.209   0.627   9.923  0.6177  0.4307 -0.0385
 3153TIP3    H233655   7.339   0.641  10.000  1.1118 -1.0243 -0.5708
 3154TIP3   OH233656   8.748   1.722  10.905  0.1059  0.1396  0.3963
 3154TIP3    H133657   8.765   1.798  10.961 -2.0829  0.2380  1.0227
 3154TIP3    H233658   8.835   1.688  10.884  1.1046  2.0562  1.1350
 3155TIP3   OH233659   6.074   1.669  10.203 -0.3499  0.1854 -0.2803
 3155TIP3    H133660   6.008   1.677  10.135  0.5502 -0.4211 -1.2636
 3155TIP3    H233661   6.026   1.677  10.285 -1.2390  2.5613 -0.9675
 3156TIP3   OH233662   8.015   4.787  10.939  0.4118  0.5835  0.4017
 3156TIP3    H133663   7.939   4.836  10.969  0.5435  1.1858 -0.2282
 3156TIP3    H233664   8.005   4.782  10.844  0.4572 -0.5217  0.4456
 3157TIP3   OH233665   3.813   2.184  10.774  0.0390 -0.1065  0.6870
 3157TIP3    H133666   3.755   2.108  10.772 -0.2483  0.1276  0.1253
 3157TIP3    H233667   3.782   2.241  10.704  1.7895 -0.5805 -0.5277
 3158TIP3   OH233668   8.600   8.555  10.207  0.1146  0.0736  0.1721
 3158TIP3    H133669   8.642   8.585  10.127  0.1738  2.1351  0.8986
 3158TIP3    H233670   8.672   8.524  10.262  0.0568 -1.4882 -0.5786
 3159TIP3   OH233671   8.045   8.041   9.974 -0.0550  0.2368  0.7110
 3159TIP3    H133672   8.025   8.007  10.061 -2.2138 -0.4930  0.0008
 3159TIP3    H233673   8.044   8.136   9.985 -2.1547  0.2127  1.1958
 3160TIP3   OH233674   8.599   7.351  10.794 -1.0196 -0.0124  0.0612
 3160TIP3    H133675   8.510   7.346  10.759 -0.3497  1.0616 -1.9243
 3160TIP3    H233676   8.614   7.445  10.809  0.1442 -0.0495 -0.7140
 3161TIP3   OH233677   8.525   7.719   9.520  0.6406  0.2454 -0.2159
 3161TIP3    H133678   8.531   7.651   9.587  1.8984 -0.0701 -0.6256
 3161TIP3    H233679   8.609   7.764   9.524 -0.2376  1.9177  0.1664
 3162TIP3   OH233680   0.880   7.551  10.340  0.0146  0.4150  0.2229
 3162TIP3    H133681   0.860   7.511  10.255 -0.8957  1.8537 -0.2857
 3162TIP3    H233682   0.799   7.541  10.391  0.2251  0.4227  0.5575
 3163TIP3   OH233683   0.937   2.059  10.077 -0.1453 -0.1375 -0.3356
 3163TIP3    H133684   0.980   2.048  10.162 -0.2587 -0.4795 -0.3216
 3163TIP3    H233685   0.916   2.152  10.072  0.6085  0.0348 -0.3465
 3164TIP3   OH233686   1.307   1.170  10.841 -0.1570  0.3050  0.4554
 3164TIP3    H133687   1.299   1.128  10.756  1.8056  0.1845  0.2831
 3164TIP3    H233688   1.231   1.228  10.847 -0.4858  0.0872 -1.2366
 3165TIP3   OH233689   0.835   9.040   9.448  0.4874  0.2458  0.0180
 3165TIP3    H133690   0.907   8.982   9.423 -1.0949 -0.6418 -2.9124
 3165TIP3    H233691   0.807   9.080   9.366 -2.1383  0.7968  1.1008
 3166TIP3   OH233692   3.644   6.037  11.023 -0.2298  0.3824  0.0048
 3166TIP3    H133693   3.708   6.043  11.094 -0.4580  0.4486  0.2071
 3166TIP3    H233694   3.659   5.952  10.983 -1.1392 -0.3361  1.1364
 3167TIP3   OH233695   1.883   0.089   9.882  0.0689 -0.0790 -0.0558
 3167TIP3    H133696   1.927   0.005   9.871  2.3471  1.0864 -0.5809
 3167TIP3    H233697   1.939   0.137   9.944 -1.6727  0.7489  0.9471
 3168TIP3   OH233698   1.952   2.401  10.653 -0.6442 -0.5066 -0.1243
 3168TIP3    H133699   1.865   2.411  10.614 -0.1917  1.8815 -0.6990
 3168TIP3    H233700   2.003   2.358  10.584 -0.5629  1.1429 -1.1482
 3169TIP3   OH233701   3.149   7.355  10.048  0.4943 -0.0200 -0.0148
 3169TIP3    H133702   3.215   7.350  10.116  0.2893 -0.7024  0.1408
 3169TIP3    H233703   3.092   7.280  10.064  0.3150 -0.0592 -0.7970
 3170TIP3   OH233704   7.935   0.080  10.010 -0.5652 -0.6172  0.0603
 3170TIP3    H133705   7.888   0.114   9.934  0.0859  1.8511  0.6701
 3170TIP3    H233706   8.027   0.098   9.992 -0.4690  0.9949  1.8183
 3171TIP3   OH233707   1.478   6.030  24.737 -0.0112  0.1550  0.4096
 3171TIP3    H133708   1.431   5.972  24.676 -1.2261  0.3861  1.0958
 3171TIP3    H233709   1.532   5.970  24.789  0.5476 -0.1078 -0.4550
 3172TIP3   OH233710   1.889   8.528   9.457  0.2915 -0.0067  0.5576
 3172TIP3    H133711   1.807   8.530   9.506  0.0391 -1.4702  0.2322
 3172TIP3    H233712   1.941   8.460   9.499  0.5967 -0.3727 -0.3745
 3173TIP3   OH233713   7.587   3.483   9.418  0.0465  0.0523 -0.2231
 3173TIP3    H133714   7.617   3.408   9.367 -0.1162  1.0347 -1.8369
 3173TIP3    H233715   7.665   3.535   9.433 -0.2557  0.9443 -1.5598
 3174TIP3   OH233716   0.262   7.764  10.826  0.1260  0.2838 -0.0063
 3174TIP3    H133717   0.231   7.682  10.787  0.9508  0.0099 -0.1189
 3174TIP3    H233718   0.260   7.827  10.754 -2.1141  0.8349  0.4708
 3175TIP3   OH233719   5.242   5.948   9.697 -0.1461  0.1981  0.1237
 3175TIP3    H133720   5.163   5.960   9.750  0.6458 -1.2707  1.7437
 3175TIP3    H233721   5.297   6.023   9.719 -1.7552  2.3195 -2.4928
 3176TIP3   OH233722   5.727   8.872  10.014 -0.2105 -0.1266 -0.0876
 3176TIP3    H133723   5.807   8.904   9.973  0.5337 -2.4236 -0.5396
 3176TIP3    H233724   5.752   8.852  10.104 -0.6808  0.4863  0.1967
 3177TIP3   OH233725   0.086   8.719   9.591  0.0925 -0.4251 -0.1205
 3177TIP3    H133726   0.102   8.664   9.515 -1.0945 -0.6445 -0.2311
 3177TIP3    H233727   0.173   8.735   9.628  0.8042  0.4828 -2.0513
 3178TIP3   OH233728   3.952   5.938  10.479 -0.3534 -0.5621 -0.2313
 3178TIP3    H133729   3.937   5.889  10.399 -1.1170 -1.5919  0.5169
 3178TIP3    H233730   3.904   6.020  10.466  1.2056  0.1872 -1.6219
 3179TIP3   OH233731   0.114   7.501   9.551 -0.2624 -0.4140 -0.2389
 3179TIP3    H133732   0.131   7.531   9.462 -1.7010 -0.7221 -0.6377
 3179TIP3    H233733   0.024   7.469   9.549  0.4463 -2.7017  0.7125
 3180TIP3   OH233734   7.199   1.684   9.903  0.2153 -0.4826 -0.1801
 3180TIP3    H133735   7.203   1.780   9.899 -1.5575 -0.1803  2.4003
 3180TIP3    H233736   7.161   1.659   9.819  1.3308  0.9817 -1.1829
 3181TIP3   OH233737   4.014   8.817   9.654  0.7627 -0.5653  0.1173
 3181TIP3    H133738   3.951   8.840   9.586 -0.2395  0.3640  1.3161
 3181TIP3    H233739   4.014   8.891   9.714  4.1063  0.1681 -0.5441
 3182TIP3   OH233740   5.449   8.539  10.689  0.8369  0.2287  0.2347
 3182TIP3    H133741   5.374   8.598  10.700  1.5967  1.6325 -1.4597
 3182TIP3    H233742   5.412   8.460  10.649  0.0682  0.3646  0.6714
 3183TIP3   OH233743   5.544   6.524  11.591  0.3749 -0.2126 -0.6347
 3183TIP3    H133744   5.578   6.610  11.569 -2.0999  0.8954 -0.4855
 3183TIP3    H233745   5.473   6.509  11.529 -0.2068 -1.4806  0.2769
 3184TIP3   OH233746   3.093   1.070  10.561 -0.6356  0.0985  0.5302
 3184TIP3    H133747   3.094   1.146  10.619  2.0332 -0.2006  1.0137
 3184TIP3    H233748   3.009   1.075  10.516 -0.7163  3.1129  0.8212
 3185TIP3   OH233749   0.478   1.430  11.194  0.2321  0.4412 -0.0752
 3185TIP3    H133750   0.434   1.512  11.216  0.0531  0.1064  0.8463
 3185TIP3    H233751   0.454   1.369  11.264  0.2442 -0.4500 -0.8216
 3186TIP3   OH233752   2.442   8.091   9.477 -0.6272 -0.1436 -0.7701
 3186TIP3    H133753   2.424   8.038   9.400 -0.6733  1.9306 -2.2520
 3186TIP3    H233754   2.359   8.091   9.526 -1.4516  0.7149 -2.1224
 3187TIP3   OH233755   1.788   5.668  10.035  0.4907  0.1391  0.1758
 3187TIP3    H133756   1.872   5.631  10.007  0.4211  0.5471 -0.5937
 3187TIP3    H233757   1.739   5.680   9.954  0.4527  1.7881  0.4082
 3188TIP3   OH233758   4.352   2.371  11.055  0.2605 -0.4721 -0.0520
 3188TIP3    H133759   4.321   2.461  11.048  0.3089 -0.5052 -0.7536
 3188TIP3    H233760   4.273   2.320  11.070 -0.2221 -0.6637 -2.7204
 3189TIP3   OH233761   3.711   2.054  10.487 -0.2005  0.3328  0.5866
 3189TIP3    H133762   3.717   2.149  10.473  0.0109  0.3126  0.5415
 3189TIP3    H233763   3.661   2.022  10.413  0.2291  0.3333  0.2930
 3190TIP3   OH233764   7.020   4.792   9.749  0.2990  0.1776 -0.1866
 3190TIP3    H133765   7.028   4.867   9.808  0.7807 -2.0827  2.8659
 3190TIP3    H233766   6.926   4.773   9.748  0.4517 -1.0325  1.7541
 3191TIP3   OH233767   4.519   2.510  10.135  0.3426 -0.0047  0.3853
 3191TIP3    H133768   4.528   2.584  10.075 -0.8133  1.0467  1.4420
 3191TIP3    H233769   4.439   2.466  10.108 -1.0620  1.3928  2.0184
 3192TIP3   OH233770   4.970   1.732  10.217  0.0443 -0.0583  0.3189
 3192TIP3    H133771   5.064   1.737  10.235  0.2719 -2.3057  0.0865
 3192TIP3    H233772   4.929   1.750  10.302  0.6614  0.9548  0.4204
 3193TIP3   OH233773   3.341   6.370  10.722 -0.2760  0.0108 -0.4637
 3193TIP3    H133774   3.368   6.311  10.792 -0.5088  0.7229  0.2478
 3193TIP3    H233775   3.330   6.314  10.645 -2.0973 -1.1658  0.5801
 3194TIP3   OH233776   7.949   6.762  10.578  0.2443 -0.1847 -0.2101
 3194TIP3    H133777   7.881   6.798  10.635 -0.1611 -2.1202  0.5886
 3194TIP3    H233778   7.909   6.685  10.538  0.4024  1.2743 -3.4485
 3195TIP3   OH233779   7.641   3.330  10.063 -0.1932 -0.3012  0.5412
 3195TIP3    H133780   7.698   3.330   9.986  1.1493  0.6085  1.4910
 3195TIP3    H233781   7.552   3.332  10.027  0.3695  3.2805 -1.1051
 3196TIP3   OH233782   6.700   4.940   9.364 -0.0761 -0.3852 -0.0379
 3196TIP3    H133783   6.604   4.941   9.362 -0.1170 -0.1631  1.3049
 3196TIP3    H233784   6.726   4.992   9.289 -0.9961 -1.1969 -0.9494
 3197TIP3   OH233785   8.269   9.091  10.086 -0.3940  0.5181  0.1267
 3197TIP3    H133786   8.291   9.167  10.140 -0.0614  0.6955 -0.2529
 3197TIP3    H233787   8.251   9.129   9.999 -0.9477  0.2417  0.1188
 3198TIP3   OH233788   0.076   3.807  11.059 -0.4296 -0.2338  0.3461
 3198TIP3    H133789   0.160   3.830  11.100 -0.1171 -1.2517  0.3004
 3198TIP3    H233790   0.065   3.871  10.989  0.0934  0.1764  0.6300
 3199TIP3   OH233791   2.407   1.614   9.864 -0.2621  0.0321 -0.2772
 3199TIP3    H133792   2.346   1.581   9.929 -0.7568  1.6644  0.1347
 3199TIP3    H233793   2.356   1.618   9.783  0.0624 -1.0341 -0.5489
 3200TIP3   OH233794   0.210   6.784  10.607  0.9189 -0.2863 -0.1317
 3200TIP3    H133795   0.144   6.717  10.627 -0.5446  0.9635 -0.5033
 3200TIP3    H233796   0.281   6.737  10.564  0.1772 -1.6594  0.0820
 3201TIP3   OH233797   8.686   3.619  10.221 -0.1933  0.2371  0.1015
 3201TIP3    H133798   8.635   3.679  10.276  0.1445  1.4464 -0.8728
 3201TIP3    H233799   8.769   3.664  10.207  0.5766 -1.0377  0.3957
 3202TIP3   OH233800   2.870   2.691  10.080 -0.3204 -0.4852 -0.0549
 3202TIP3    H133801   2.955   2.717  10.116 -0.4360 -2.1226  1.5276
 3202TIP3    H233802   2.811   2.688  10.155 -1.8217  0.5755 -1.1198
 3203TIP3   OH233803   3.592   0.450  11.178 -0.3065 -0.0230 -0.6475
 3203TIP3    H133804   3.684   0.423  11.171 -0.5825 -1.1332 -0.2424
 3203TIP3    H233805   3.562   0.410  11.260 -1.3101 -0.1511 -1.0655
 3204TIP3   OH233806   0.508   0.265  10.296 -0.2285  0.2905 -0.4081
 3204TIP3    H133807   0.502   0.176  10.262  1.1115  0.6798 -1.7824
 3204TIP3    H233808   0.419   0.301  10.284 -0.5774 -0.6072 -0.5839
 3205TIP3   OH233809   5.588   2.805   9.594  0.2133  0.3132 -0.1091
 3205TIP3    H133810   5.641   2.879   9.565  0.5635 -0.1386 -0.6414
 3205TIP3    H233811   5.604   2.799   9.688  1.6067 -0.2050 -0.3536
 3206TIP3   OH233812   5.852   1.328  10.594 -0.7810 -0.4341  1.0881
 3206TIP3    H133813   5.807   1.244  10.605 -2.0872  0.2067  0.8676
 3206TIP3    H233814   5.862   1.338  10.499  0.4473 -0.8602  1.1497
 3207TIP3   OH233815   5.422   0.396  10.015  0.3174 -0.2903 -0.3207
 3207TIP3    H133816   5.471   0.462  10.064  0.6201 -1.0760  0.4552
 3207TIP3    H233817   5.340   0.440   9.991  0.7420  0.5371 -0.2833
 3208TIP3   OH233818   4.872   5.421  10.401  0.1076 -1.2991 -0.9128
 3208TIP3    H133819   4.951   5.473  10.415 -0.2528 -1.0364  0.2707
 3208TIP3    H233820   4.801   5.485  10.399 -0.1589 -1.5997 -1.1795
 3209TIP3   OH233821   3.434   4.921   9.505 -0.0407  0.0924  0.4136
 3209TIP3    H133822   3.358   4.962   9.464  0.7060  0.0924 -1.0089
 3209TIP3    H233823   3.431   4.830   9.478  1.0593  0.3282 -0.6140
 3210TIP3   OH233824   8.092   1.803  10.998  0.3682  0.3491 -0.1124
 3210TIP3    H133825   8.169   1.747  11.006  2.1001  2.5457 -0.3664
 3210TIP3    H233826   8.027   1.762  11.055  1.8263 -1.3841  0.4175
 3211TIP3   OH233827   1.658   1.054  10.061 -0.3882  0.0238 -0.1854
 3211TIP3    H133828   1.685   1.063  10.153 -1.3479 -0.2631  0.1365
 3211TIP3    H233829   1.740   1.059  10.012  0.2240 -0.5201  0.7336
 3212TIP3   OH233830   0.151   8.363   9.585 -0.0968  0.4590  0.4891
 3212TIP3    H133831   0.124   8.412   9.507  0.3140  0.1935  0.1737
 3212TIP3    H233832   0.158   8.273   9.554 -0.9220  0.1806  1.0814
 3213TIP3   OH233833   3.839   1.508   9.690  0.6593  0.3397  0.4723
 3213TIP3    H133834   3.758   1.559   9.682  0.6579  0.2857  0.1386
 3213TIP3    H233835   3.820   1.444   9.759  0.0563 -0.3498 -0.3140
 3214TIP3   OH233836   0.769   2.778  10.654 -0.1372  0.1323  0.0549
 3214TIP3    H133837   0.700   2.844  10.643 -0.6608 -0.5830 -1.1467
 3214TIP3    H233838   0.723   2.700  10.686  0.0574 -0.4172 -0.9649
 3215TIP3   OH233839   7.307   4.680  11.020 -0.0223  0.4276 -0.3405
 3215TIP3    H133840   7.372   4.687  10.951 -0.0534 -1.1991 -0.5750
 3215TIP3    H233841   7.254   4.603  10.996 -0.5513  0.3173  1.0492
 3216TIP3   OH233842   4.836   3.243  10.322  0.1059 -0.2698  0.5688
 3216TIP3    H133843   4.915   3.191  10.337 -1.9443 -3.2637  1.9096
 3216TIP3    H233844   4.811   3.273  10.409 -0.1030  0.9622  0.1076
 3217TIP3   OH233845   5.146   5.657  10.951 -0.4774 -0.1765 -0.0692
 3217TIP3    H133846   5.178   5.702  11.029 -0.4226 -1.1138  0.4557
 3217TIP3    H233847   5.060   5.696  10.935  0.1601  1.1129 -0.4645
 3218TIP3   OH233848   2.028   3.440  11.430  0.1788 -0.3105  0.0114
 3218TIP3    H133849   2.071   3.368  11.383  2.9018 -0.0477  1.8244
 3218TIP3    H233850   2.046   3.422  11.522 -1.1815  1.4608  0.6754
 3219TIP3   OH233851   7.444   5.749  10.812  0.1489  0.0304  0.4856
 3219TIP3    H133852   7.499   5.733  10.735 -0.0423  2.6061 -0.3052
 3219TIP3    H233853   7.472   5.685  10.876  1.5389 -1.0715 -1.1418
 3220TIP3   OH233854   5.595   3.017   9.295 -0.5005 -0.6185 -0.1844
 3220TIP3    H133855   5.613   3.100   9.339 -0.5270 -0.7980  0.1673
 3220TIP3    H233856   5.660   2.956   9.332  0.1947 -0.5100 -1.1835
 3221TIP3   OH233857   4.722   6.492  11.561 -0.7108  0.8980  0.0511
 3221TIP3    H133858   4.716   6.460  11.471  1.6025  1.0209 -0.2156
 3221TIP3    H233859   4.645   6.549  11.572 -1.8714 -0.3406 -1.2968
 3222TIP3   OH233860   5.905   3.977  10.921  0.2552  0.9828  0.0950
 3222TIP3    H133861   5.850   4.007  10.993 -1.1946 -0.2222 -0.4610
 3222TIP3    H233862   5.886   4.037  10.849 -0.5393  0.4408 -0.1634
 3223TIP3   OH233863   0.018   5.731   9.842  0.1669  0.4281 -0.1192
 3223TIP3    H133864   0.052   5.645   9.818 -0.9028 -0.2216  0.5868
 3223TIP3    H233865  -0.054   5.712   9.902  1.2219  1.8665  1.7513
 3224TIP3   OH233866   9.198   4.511  10.626 -0.0291 -0.4779  0.2193
 3224TIP3    H133867   9.219   4.563  10.549  1.6018 -1.1716  0.1706
 3224TIP3    H233868   9.102   4.515  10.632 -0.0494  1.3526 -0.5768
 3225TIP3   OH233869   9.055   3.881   9.575 -0.0528  0.4122 -1.0975
 3225TIP3    H133870   9.080   3.964   9.536  3.8831 -0.9846 -2.1201
 3225TIP3    H233871   9.050   3.820   9.501 -2.5037 -0.3903 -0.3527
 3226TIP3   OH233872   1.448   0.699   9.165 -0.5022  0.1490  0.4648
 3226TIP3    H133873   1.397   0.778   9.146  1.8543  1.7817  0.3685
 3226TIP3    H233874   1.524   0.732   9.214  0.4717 -2.1063  0.5855
 3227TIP3   OH233875   0.973   7.310  10.690  0.3028  0.0025  0.0906
 3227TIP3    H133876   0.961   7.254  10.766  1.0797 -0.1834  0.0875
 3227TIP3    H233877   0.909   7.380  10.701 -1.0846 -1.1802 -0.2059
 3228TIP3   OH233878   5.978   2.774  11.119  0.3100  0.3804 -0.2528
 3228TIP3    H133879   5.890   2.786  11.083  0.8969  3.0109 -1.0146
 3228TIP3    H233880   5.982   2.834  11.193  1.6060  0.6345 -0.5047
 3229TIP3   OH233881   1.799   2.652  10.902 -0.1528  0.2738  0.1779
 3229TIP3    H133882   1.734   2.586  10.925 -0.6603  0.3139 -1.0509
 3229TIP3    H233883   1.751   2.735  10.906  0.1929  0.4594  0.6121
 3230TIP3   OH233884   3.440   3.857  10.233  0.0854 -0.5454 -0.3138
 3230TIP3    H133885   3.468   3.801  10.161 -0.1787  0.5422 -1.2982
 3230TIP3    H233886   3.414   3.796  10.303 -0.4306 -1.6476 -1.4357
 3231TIP3   OH233887   4.653   7.589  10.655 -0.5485  0.0504  0.2761
 3231TIP3    H133888   4.578   7.565  10.709  0.4669 -0.2396  1.6203
 3231TIP3    H233889   4.656   7.521  10.587 -1.1105 -0.3067  0.5930
 3232TIP3   OH233890   1.188   0.738   9.453  0.7151  0.0359 -0.8499
 3232TIP3    H133891   1.167   0.744   9.546 -1.3783 -1.0408 -1.1922
 3232TIP3    H233892   1.267   0.790   9.443  1.5369 -0.5834  1.6855
 3233TIP3   OH233893   5.341   4.973  11.207 -0.7186 -0.2189  0.1353
 3233TIP3    H133894   5.289   4.896  11.227 -1.9833  0.7892  0.8804
 3233TIP3    H233895   5.312   4.999  11.119 -0.9250 -0.1095  0.2338
 3234TIP3   OH233896   5.204   3.115   9.814  0.2630 -0.2598 -0.3091
 3234TIP3    H133897   5.162   3.058   9.750 -1.9072  0.7085  0.1482
 3234TIP3    H233898   5.160   3.199   9.803  3.5950  1.5445 -1.2261
 3235TIP3   OH233899   0.253   5.230  10.634  0.0939  0.3728 -0.1105
 3235TIP3    H133900   0.294   5.315  10.616  1.6107 -0.1497  0.6578
 3235TIP3    H233901   0.321   5.181  10.681 -0.6825 -1.3276 -0.6992
 3236TIP3   OH233902   7.198   4.205   9.833 -0.3980 -0.1800 -0.7608
 3236TIP3    H133903   7.287   4.227   9.804  0.2906 -3.2910 -1.3245
 3236TIP3    H233904   7.142   4.230   9.760  0.2762 -0.0793 -1.2486
 3237TIP3   OH233905   3.040   2.171   9.613 -0.5893 -0.0503 -0.4455
 3237TIP3    H133906   3.083   2.254   9.591  1.1371 -0.8825 -0.4288
 3237TIP3    H233907   3.043   2.121   9.531  0.7927 -1.0516  0.1699
 3238TIP3   OH233908   4.566   1.403  10.905 -0.2410 -0.0163 -0.1158
 3238TIP3    H133909   4.501   1.346  10.946  0.2694  0.4217  1.3412
 3238TIP3    H233910   4.563   1.484  10.956 -0.9210  1.2905 -2.1118
 3239TIP3   OH233911   8.886   6.008  10.556  0.2388  0.3282  0.3705
 3239TIP3    H133912   8.893   5.990  10.462 -1.9628  0.9527  0.0270
 3239TIP3    H233913   8.974   5.992  10.590  0.7327 -1.3632 -1.5277
 3240TIP3   OH233914   3.589   7.273  10.825 -0.3961 -0.1354  0.7278
 3240TIP3    H133915   3.555   7.363  10.825 -1.7644 -0.6005 -0.9957
 3240TIP3    H233916   3.511   7.218  10.835 -0.0726 -1.1988 -1.8058
 3241TIP3   OH233917   8.364   4.601  11.165 -0.0806 -0.0270 -0.0012
 3241TIP3    H133918   8.403   4.672  11.115  0.4307  0.7784  1.4964
 3241TIP3    H233919   8.429   4.579  11.232 -1.8230  0.8931  2.1302
 3242TIP3   OH233920   5.459   7.520  10.415 -0.0987 -0.2893  0.2080
 3242TIP3    H133921   5.413   7.578  10.476 -1.2577 -0.0041 -0.8762
 3242TIP3    H233922   5.509   7.461  10.470 -1.9563 -0.7477  1.4830
 3243TIP3   OH233923   5.181   0.147   9.502  0.3456  0.1385 -0.2275
 3243TIP3    H133924   5.140   0.089   9.438 -2.0462  1.0514  0.3918
 3243TIP3    H233925   5.244   0.198   9.450  0.8719 -1.4111 -1.1818
 3244TIP3   OH233926   1.085   6.864  10.588 -0.3774 -0.2628 -0.6865
 3244TIP3    H133927   1.003   6.883  10.541 -1.0703  3.0451  1.5197
 3244TIP3    H233928   1.057   6.819  10.667 -0.6355  3.3255  1.4787
 3245TIP3   OH233929   6.151   5.806  11.208 -0.9667  0.5615 -0.3194
 3245TIP3    H133930   6.173   5.898  11.220 -1.8979  0.6837  0.5213
 3245TIP3    H233931   6.201   5.760  11.276 -1.3193  0.5605 -0.0604
 3246TIP3   OH233932   4.350   3.912  10.366  0.4036  0.5897 -0.7092
 3246TIP3    H133933   4.411   3.986  10.360 -2.1103  2.7176 -2.0840
 3246TIP3    H233934   4.334   3.901  10.459  2.7322 -0.0256 -0.2976
 3247TIP3   OH233935   7.016   1.898  11.046  0.0586 -0.1479  0.9143
 3247TIP3    H133936   7.078   1.879  10.975 -2.0311 -3.2157 -0.3144
 3247TIP3    H233937   6.990   1.812  11.079 -2.4335  1.0373  2.3544
 3248TIP3   OH233938   3.780   5.944   9.779 -0.2266  0.2480  0.3962
 3248TIP3    H133939   3.711   5.958   9.843 -0.9103  0.1558 -0.2951
 3248TIP3    H233940   3.753   5.996   9.703 -0.1321 -0.6727 -0.2939
 3249TIP3   OH233941   3.032   5.743   9.635 -0.6910 -0.0859  0.0328
 3249TIP3    H133942   3.045   5.831   9.670  2.7481 -0.4003 -0.1541
 3249TIP3    H233943   3.076   5.685   9.697 -0.1348 -1.3406 -1.4763
 3250TIP3   OH233944   1.960   7.483   9.778  0.4880 -0.1408 -0.0142
 3250TIP3    H133945   2.024   7.497   9.709 -0.0080  1.1109 -0.2436
 3250TIP3    H233946   1.996   7.411   9.830  3.7374  2.4930  1.7915
 3251TIP3   OH233947   7.183   3.939  10.657  0.0615  0.2904  0.0560
 3251TIP3    H133948   7.132   3.931  10.737 -0.6724 -0.1159 -0.4454
 3251TIP3    H233949   7.127   3.903  10.589  0.4696  1.0986 -0.7330
 3252TIP3   OH233950   4.823   2.106   9.644  0.2836 -0.0967 -0.2642
 3252TIP3    H133951   4.869   2.132   9.564  0.8000 -2.1059 -0.6695
 3252TIP3    H233952   4.735   2.084   9.616 -0.0097  0.6915  0.0018
 3253TIP3   OH233953   0.517   4.386  10.867  0.0559  0.2144  0.0996
 3253TIP3    H133954   0.595   4.397  10.813 -0.2743  0.3009 -0.3640
 3253TIP3    H233955   0.465   4.465  10.852 -0.6335 -0.3357 -0.4488
 3254TIP3   OH233956   1.237   5.491  10.922 -0.2069  0.5682  0.3257
 3254TIP3    H133957   1.307   5.545  10.885  0.5277  1.1918  2.4570
 3254TIP3    H233958   1.280   5.408  10.944 -0.4645  0.4553  0.4109
 3255TIP3   OH233959   1.558   4.906   9.407  0.1040  0.2607  0.4781
 3255TIP3    H133960   1.467   4.875   9.407  0.5324 -1.0545 -0.0766
 3255TIP3    H233961   1.550   5.002   9.403 -1.2586  0.1501 -0.5274
 3256TIP3   OH233962   2.786   0.676  10.713  0.2706 -0.1819  0.1147
 3256TIP3    H133963   2.868   0.663  10.761  0.0975 -0.8360  0.2379
 3256TIP3    H233964   2.719   0.633  10.766 -0.0015 -0.4841 -0.4582
 3257TIP3   OH233965   3.328   2.393   9.221  0.0005  0.7267  0.0917
 3257TIP3    H133966   3.279   2.472   9.197  0.5741  0.3301 -2.7481
 3257TIP3    H233967   3.327   2.340   9.141  1.2800 -1.2733  1.3436
 3258TIP3   OH233968   1.753   7.137  10.301 -0.2143 -0.4727 -0.3167
 3258TIP3    H133969   1.810   7.158  10.227  0.8210  0.8687  0.8029
 3258TIP3    H233970   1.720   7.222  10.331 -0.2765 -0.9298  1.0047
 3259TIP3   OH233971   8.424   0.470  10.225  1.0024 -0.0085 -0.0336
 3259TIP3    H133972   8.493   0.417  10.264  1.7159 -0.1305 -1.4087
 3259TIP3    H233973   8.347   0.413  10.227  0.2706  0.8626  3.4722
 3260TIP3   OH233974   4.026   2.559  11.165 -0.0981 -1.2015 -0.3802
 3260TIP3    H133975   4.047   2.467  11.179  2.2425 -0.6975 -0.1036
 3260TIP3    H233976   4.077   2.584  11.088  0.3186  0.1343  0.2860
 3261TIP3   OH233977   1.752   5.383  10.323 -0.2341  0.3033 -0.0968
 3261TIP3    H133978   1.738   5.474  10.296 -1.8417  0.5845  1.5041
 3261TIP3    H233979   1.689   5.369  10.393 -0.4310 -2.2424 -0.6875
 3262TIP3   OH233980   5.130   8.806  10.260  0.0573 -0.1017  0.1913
 3262TIP3    H133981   5.156   8.754  10.336  0.5882  1.2908  1.0079
 3262TIP3    H233982   5.146   8.896  10.287 -2.3275  0.6349 -0.5445
 3263TIP3   OH233983   7.838   4.966   9.713 -0.0571 -0.4601 -0.5986
 3263TIP3    H133984   7.857   4.921   9.631 -1.7308  1.3400 -2.0503
 3263TIP3    H233985   7.758   4.923   9.746 -0.1742 -0.2666 -0.6303
 3264TIP3   OH233986   7.985   2.904  10.157  0.2556 -0.1123  0.4916
 3264TIP3    H133987   7.908   2.952  10.125  0.4091  0.0257  0.3301
 3264TIP3    H233988   8.059   2.959  10.134  0.5024 -0.8226 -0.4388
 3265TIP3   OH233989   6.545   4.090  10.261 -0.2224  0.1651 -0.0450
 3265TIP3    H133990   6.533   4.062  10.351 -1.3867 -2.6862 -0.9855
 3265TIP3    H233991   6.456   4.094  10.225  0.2807  0.3080 -1.3117
 3266TIP3   OH233992   6.543   2.376   9.264  0.7193  0.0558  0.0183
 3266TIP3    H133993   6.581   2.409   9.182  1.1319  1.8480  0.8774
 3266TIP3    H233994   6.520   2.456   9.313 -0.3618 -0.9788  1.2673
 3267TIP3   OH233995   3.705   2.239  11.021  0.0113  0.1378 -0.1038
 3267TIP3    H133996   3.622   2.263  10.981  1.1140  0.2360 -2.4844
 3267TIP3    H233997   3.764   2.222  10.947  1.8480 -0.8942  1.4938
 3268TIP3   OH233998   5.751   0.608   9.189  0.2256  0.7397 -0.4825
 3268TIP3    H133999   5.788   0.660   9.261 -0.4472  0.3108  0.1915
 3268TIP3    H234000   5.702   0.672   9.137 -0.9943  0.7417  0.6093
 3269TIP3   OH234001   6.460   5.872  10.023  0.4163 -0.5944 -0.0454
 3269TIP3    H134002   6.490   5.810   9.956 -0.7904 -0.9275 -0.3020
 3269TIP3    H234003   6.491   5.834  10.106  0.8786 -0.8098 -0.3122
 3270TIP3   OH234004   8.203   5.180   9.854  0.2053  0.1020  0.2094
 3270TIP3    H134005   8.165   5.093   9.867  0.4460  0.2116  1.8517
 3270TIP3    H234006   8.127   5.238   9.844  0.0409 -0.3948 -2.0466
 3271TIP3   OH234007   8.552   8.142  10.742  0.3560  0.4531  0.0286
 3271TIP3    H134008   8.488   8.088  10.788  0.9257 -0.4216 -0.1800
 3271TIP3    H234009   8.588   8.200  10.809 -1.1831  1.4872 -0.0023
 3272TIP3   OH234010   8.839   3.275   9.191 -0.0568  0.2905 -0.1831
 3272TIP3    H134011   8.813   3.191   9.153 -0.0964  0.3026 -0.1825
 3272TIP3    H234012   8.802   3.275   9.279  0.2503  0.1547 -0.0497
 3273TIP3   OH234013   1.296   4.017  10.811  0.4111  0.2330  0.0140
 3273TIP3    H134014   1.318   3.928  10.837  1.8379  0.6404  0.2733
 3273TIP3    H234015   1.217   4.038  10.862 -0.3817 -1.1210 -0.6154
 3274TIP3   OH234016   6.738   8.329  10.118  0.0809  0.0729 -0.2990
 3274TIP3    H134017   6.646   8.312  10.138 -0.2132  0.9434 -0.8722
 3274TIP3    H234018   6.754   8.417  10.152  0.7972 -0.1957  0.0820
 3275TIP3   OH234019   6.670   7.508  10.952 -0.4750  0.0877 -0.4443
 3275TIP3    H134020   6.739   7.495  11.016  0.4964  0.4109 -1.4103
 3275TIP3    H234021   6.715   7.537  10.873 -1.7723  0.9743 -0.8956
 3276TIP3   OH234022   2.697   8.083   9.202  0.1163 -0.5417  0.5384
 3276TIP3    H134023   2.609   8.084   9.163  0.6659 -0.5218 -0.7655
 3276TIP3    H234024   2.702   8.000   9.249  0.1661 -1.6600 -1.3095
 3277TIP3   OH234025   7.391   1.088   9.029  0.4055 -0.1954 -0.0761
 3277TIP3    H134026   7.426   1.000   9.047  2.4117  0.8182  1.4492
 3277TIP3    H234027   7.466   1.137   8.996 -0.7167  0.9395 -1.0327
 3278TIP3   OH234028   4.870   2.761   9.785  0.0094  0.3507  0.1483
 3278TIP3    H134029   4.900   2.673   9.761 -0.5756 -0.3931  2.0277
 3278TIP3    H234030   4.828   2.794   9.705  1.2577 -0.5944 -0.9445
 3279TIP3   OH234031   3.134   0.565  10.534  0.1096  0.2528 -0.4616
 3279TIP3    H134032   3.161   0.645  10.581  0.7825 -0.8390  1.0938
 3279TIP3    H234033   3.214   0.535  10.491  0.2080 -0.3229  0.1066
 3280TIP3   OH234034   4.272   0.787  10.386 -0.0654  0.0371  0.6864
 3280TIP3    H134035   4.307   0.836  10.312 -1.5419  0.4639  0.2285
 3280TIP3    H234036   4.291   0.842  10.462  1.6763 -0.5191  0.6960
 3281TIP3   OH234037   3.757   7.193  10.275 -0.0292 -0.0567 -0.4167
 3281TIP3    H134038   3.670   7.222  10.304 -0.1186  1.0570 -1.6941
 3281TIP3    H234039   3.801   7.274  10.248  0.2836 -0.9228 -2.6681
 3282TIP3   OH234040   1.622   8.462   9.639  0.2658  0.8193  0.6105
 3282TIP3    H134041   1.567   8.529   9.598 -0.8606  0.6604  1.8128
 3282TIP3    H234042   1.676   8.510   9.702  0.0888  0.7224  0.8384
 3283TIP3   OH234043   4.511   2.540   9.211  0.5290 -0.8931 -0.1704
 3283TIP3    H134044   4.534   2.447   9.208  1.2143 -0.7287 -0.2395
 3283TIP3    H234045   4.583   2.580   9.260  0.1303 -0.4294  0.0368
 3284TIP3   OH234046   5.211   1.634  10.010 -0.4553  0.4135 -0.4724
 3284TIP3    H134047   5.142   1.571  10.027  0.0313 -0.6188 -2.1197
 3284TIP3    H234048   5.277   1.586   9.961  3.6741 -0.0052  4.5620
 3285TIP3   OH234049   3.800   8.450   9.676  0.1325 -0.6525  0.2611
 3285TIP3    H134050   3.869   8.508   9.642 -1.0753  0.8231  0.2129
 3285TIP3    H234051   3.767   8.404   9.599 -1.5815  1.5834 -0.4449
 3286TIP3   OH234052   5.655   0.557   9.479  0.0058  0.4183  0.1755
 3286TIP3    H134053   5.583   0.518   9.430 -0.5028  1.8204 -0.2348
 3286TIP3    H234054   5.726   0.566   9.415  0.1668  0.0844  0.3011
 3287TIP3   OH234055   2.978   1.713  10.317 -0.3383 -0.2751  0.2235
 3287TIP3    H134056   3.009   1.752  10.399  2.1133 -0.1390 -0.6830
 3287TIP3    H234057   2.908   1.653  10.344  1.0320 -0.9632  2.5294
 3288TIP3   OH234058   7.692   1.534  10.162 -0.1465 -0.1785 -0.7994
 3288TIP3    H134059   7.684   1.622  10.200  0.7099  0.2111 -1.4979
 3288TIP3    H234060   7.738   1.483  10.229 -0.1354  0.0544 -0.6282
 3289TIP3   OH234061   4.624   3.524   9.883 -0.2680 -0.1323 -0.3339
 3289TIP3    H134062   4.612   3.505   9.976  0.4735 -1.1659 -0.4362
 3289TIP3    H234063   4.572   3.603   9.868 -0.4845 -0.0139  0.9292
 3290TIP3   OH234064   0.658   5.095  10.028 -0.2985  0.0393 -0.3828
 3290TIP3    H134065   0.733   5.148   9.999 -0.0167 -0.3790 -0.4244
 3290TIP3    H234066   0.614   5.069   9.947 -0.5405  0.3530 -0.3548
 3291TIP3   OH234067   4.541   1.073   9.308  0.1521  0.1558  0.0810
 3291TIP3    H134068   4.451   1.042   9.315 -0.0305  0.4496 -0.7454
 3291TIP3    H234069   4.584   1.041   9.387 -0.7559  0.2907  0.6456
 3292TIP3   OH234070   4.089   9.151  10.722 -0.1376  0.2568 -0.8719
 3292TIP3    H134071   4.070   9.222  10.660 -1.3956 -0.3831 -1.2612
 3292TIP3    H234072   4.003   9.124  10.755  0.1309 -2.0389 -1.8377
 3293TIP3   OH234073   7.092   0.229  11.033 -0.5856  0.0019 -0.4624
 3293TIP3    H134074   7.085   0.296  10.965  0.1633 -2.4535 -3.1271
 3293TIP3    H234075   7.183   0.202  11.032 -0.9813 -1.4762  0.0996
 3294TIP3   OH234076   6.606   1.779   9.947  0.8071  0.7262 -0.2041
 3294TIP3    H134077   6.515   1.809   9.952  1.5672  3.2784 -0.1509
 3294TIP3    H234078   6.614   1.712  10.015 -1.2389 -0.2579 -0.8644
 3295TIP3   OH234079   3.373   2.852   9.923  0.0784 -0.1824 -0.1255
 3295TIP3    H134080   3.443   2.912   9.894 -0.8261  0.9001 -0.1443
 3295TIP3    H234081   3.418   2.770   9.942  1.1710  0.0741 -1.4347
 3296TIP3   OH234082   2.719   2.082  11.075 -0.1902  0.2092  0.4540
 3296TIP3    H134083   2.677   2.000  11.051  1.1972 -0.4841  0.2571
 3296TIP3    H234084   2.653   2.150  11.059 -1.3838 -0.8674  0.6969
 3297TIP3   OH234085   8.551   4.795  10.988  0.0223  0.3770 -0.2980
 3297TIP3    H134086   8.524   4.817  10.898  0.5741  2.0369 -0.0944
 3297TIP3    H234087   8.642   4.769  10.979 -0.4413 -1.3132 -0.4411
 3298TIP3   OH234088   2.259   9.155   9.817  0.1945 -0.1973  0.4372
 3298TIP3    H134089   2.197   9.166   9.889  0.4909  0.8681  0.5544
 3298TIP3    H234090   2.208   9.171   9.738  0.3504  0.9188  0.5456
 3299TIP3   OH234091   3.034   2.849  11.283  0.3466  0.5989 -0.4044
 3299TIP3    H134092   3.112   2.799  11.310  0.1727 -0.1566 -1.2410
 3299TIP3    H234093   3.007   2.896  11.362  0.3992 -0.7951  0.4840
 3300TIP3   OH234094   7.814   6.276   9.983  0.3997 -0.8421  0.0500
 3300TIP3    H134095   7.779   6.362   9.962 -1.7891 -1.8708 -0.7981
 3300TIP3    H234096   7.885   6.263   9.920 -0.7550 -0.5668 -1.3473
 3301TIP3   OH234097   5.991   0.485   9.426  0.2104 -0.3860  0.6342
 3301TIP3    H134098   6.027   0.572   9.446  0.5665  0.1834 -2.1755
 3301TIP3    H234099   6.048   0.424   9.472  2.0311  0.7193 -0.0699
 3302TIP3   OH234100   8.455   7.034   9.420  0.2668  0.6027 -0.2075
 3302TIP3    H134101   8.466   6.939   9.424  2.8252  0.7893 -1.0180
 3302TIP3    H234102   8.544   7.068   9.410 -0.5764  3.1020  0.0980
 3303TIP3   OH234103   1.422   5.568  10.301 -0.1729 -0.1521 -0.3537
 3303TIP3    H134104   1.463   5.652  10.278 -2.0740  0.4831 -1.6057
 3303TIP3    H234105   1.444   5.556  10.393  1.7047  0.7763 -0.6278
 3304TIP3   OH234106   8.871   6.630  10.194  0.3890 -0.6818  0.2153
 3304TIP3    H134107   8.883   6.535  10.191 -1.2120 -0.8754 -1.5434
 3304TIP3    H234108   8.831   6.652  10.110 -1.3718  1.2558  1.4656
 3305TIP3   OH234109   6.846   2.872   9.581  0.2689  0.3203 -0.5499
 3305TIP3    H134110   6.836   2.828   9.665  1.8253 -0.3211 -0.6701
 3305TIP3    H234111   6.884   2.957   9.603  1.1205 -0.0311 -0.6172
 3306TIP3   OH234112   4.471   1.208   9.892 -0.4025 -0.1975 -0.9463
 3306TIP3    H134113   4.491   1.292   9.850 -1.1641  0.7711  0.5572
 3306TIP3    H234114   4.441   1.232   9.980 -1.1447 -2.0200 -0.6745
 3307TIP3   OH234115   5.040   3.481  10.349 -0.0363  0.4524 -0.6982
 3307TIP3    H134116   5.073   3.434  10.425  0.0381  1.3271 -0.1751
 3307TIP3    H234117   5.106   3.466  10.281  0.3268  0.3723 -0.3325
 3308TIP3   OH234118   2.817   7.460  10.150  0.4847 -0.0656  0.2105
 3308TIP3    H134119   2.834   7.368  10.133  0.6861  0.2803 -1.6469
 3308TIP3    H234120   2.903   7.502  10.145  0.5334  0.1229  1.9939
 3309TIP3   OH234121   3.385   4.303  10.445  0.7119  0.2336 -0.3905
 3309TIP3    H134122   3.446   4.233  10.420 -0.4411 -1.1701  0.5828
 3309TIP3    H234123   3.382   4.298  10.541  0.5576  1.6068 -0.3070
 3310TIP3   OH234124   7.751   0.969  10.434  0.0481  0.1212  0.7623
 3310TIP3    H134125   7.827   1.001  10.387 -0.5335  0.3730 -0.0239
 3310TIP3    H234126   7.765   0.998  10.524 -0.1084  2.0033  0.2237
 3311TIP3   OH234127   3.411   1.201   9.401 -0.3967 -0.7279 -0.0683
 3311TIP3    H134128   3.384   1.272   9.344  1.9020  0.6711  0.4383
 3311TIP3    H234129   3.339   1.191   9.463 -0.9805  0.8303 -0.4554
 3312TIP3   OH234130   1.898   8.977   9.829  0.2399 -0.0405  0.2424
 3312TIP3    H134131   1.826   8.937   9.877  1.2034 -0.5760  1.2871
 3312TIP3    H234132   1.916   8.916   9.757  1.2803 -1.2366  1.4560
 3313TIP3   OH234133   6.667   2.081  10.047  0.0044  0.6310  1.2165
 3313TIP3    H134134   6.698   2.046  10.131 -0.1286  1.3387  1.5668
 3313TIP3    H234135   6.587   2.129  10.069  0.4077  1.5064  0.8182
 3314TIP3   OH234136   8.322   4.138   9.479  0.0246 -0.7588  0.0759
 3314TIP3    H134137   8.315   4.215   9.423  2.4069  2.4226  3.5907
 3314TIP3    H234138   8.408   4.101   9.459  0.0802 -0.7333  0.2548
 3315TIP3   OH234139   4.621   1.667   9.333  0.3087 -0.6853 -0.1723
 3315TIP3    H134140   4.538   1.659   9.380 -0.3549  0.4049 -1.1235
 3315TIP3    H234141   4.635   1.580   9.295 -0.3857 -0.8793  0.0001
 3316TIP3   OH234142   3.234   0.517   9.204  0.5404  0.5793  0.3998
 3316TIP3    H134143   3.151   0.564   9.204  0.0469 -0.2591  1.7055
 3316TIP3    H234144   3.300   0.586   9.200 -0.1833  1.3627  1.3422
 3317TIP3   OH234145   3.539   1.502  10.592  0.0882 -0.2333 -0.0643
 3317TIP3    H134146   3.613   1.493  10.652  1.6598 -0.7458 -1.9443
 3317TIP3    H234147   3.548   1.591  10.556  0.7412 -0.8087 -1.4023
 3318TIP3   OH234148   6.679   3.669  10.447 -0.2188 -0.9192  0.0129
 3318TIP3    H134149   6.612   3.675  10.514  0.2108  2.2871  0.3166
 3318TIP3    H234150   6.650   3.729  10.378  0.8555 -1.7961 -1.2622
 3319TIP3   OH234151   2.593   1.197  11.020  0.3732 -0.1939 -0.1718
 3319TIP3    H134152   2.532   1.141  11.068  0.2376  0.1109  0.0188
 3319TIP3    H234153   2.669   1.205  11.078 -0.0901  0.7638  0.3166
 3320TIP3   OH234154   7.698   8.494  10.094 -0.0883 -0.4019 -0.3852
 3320TIP3    H134155   7.700   8.581  10.133 -0.4382 -0.0952 -1.0437
 3320TIP3    H234156   7.639   8.443  10.151  1.7478 -0.8435  1.2554
 3321TIP3   OH234157   3.561   4.986  10.830  0.2457 -0.0942 -0.0019
 3321TIP3    H134158   3.516   4.903  10.812  0.6637 -0.5301  0.8932
 3321TIP3    H234159   3.558   4.994  10.925  2.0446 -0.1305  0.0864
 3322TIP3   OH234160   0.573   8.989  10.830 -0.0993 -0.4915 -0.4507
 3322TIP3    H134161   0.625   8.918  10.792  1.5270  0.4232 -0.0296
 3322TIP3    H234162   0.631   9.064  10.829 -1.7267  0.8318 -0.7412
 3323TIP3   OH234163   2.945   3.193  10.529 -0.3620  0.2783  1.3281
 3323TIP3    H134164   2.909   3.111  10.495  1.5201 -0.3690  0.7390
 3323TIP3    H234165   3.007   3.222  10.462  0.8514  0.8319  2.6316
 3324TIP3   OH234166   3.039   1.222  11.220 -0.2118 -0.2863 -0.1614
 3324TIP3    H134167   3.023   1.315  11.205 -0.0445 -0.5556 -2.3922
 3324TIP3    H234168   3.122   1.205  11.175 -0.0923 -1.4720  0.4675
 3325TIP3   OH234169   3.687   7.673  10.502  0.0056  0.2255  0.4036
 3325TIP3    H134170   3.603   7.634  10.476 -0.0973  0.4519  0.3952
 3325TIP3    H234171   3.685   7.761  10.464  1.2070 -0.5363 -1.5409
 3326TIP3   OH234172   3.095   7.586  10.886  0.2839  0.1652  0.1209
 3326TIP3    H134173   3.008   7.625  10.892  0.0039 -0.4889  0.5705
 3326TIP3    H234174   3.093   7.514  10.950  1.4010  0.5967  0.6756
 3327TIP3   OH234175   8.257   3.696  10.007 -0.3636  0.8927 -0.3808
 3327TIP3    H134176   8.205   3.715  10.084 -2.8667 -2.0424 -1.1439
 3327TIP3    H234177   8.294   3.609  10.023 -0.1805  0.6113 -2.0746
 3328TIP3   OH234178   1.420   3.448   9.649  0.1817  0.5225 -0.1224
 3328TIP3    H134179   1.377   3.402   9.577  0.2474 -1.8637  1.2739
 3328TIP3    H234180   1.491   3.497   9.606 -0.4157  0.0157 -1.7890
 3329TIP3   OH234181   6.975   9.083  10.919 -0.2256 -0.4611  0.5806
 3329TIP3    H134182   7.040   9.110  10.853 -0.3828  1.7818  1.2345
 3329TIP3    H234183   7.027   9.045  10.990  0.3040  0.3682  0.6505
 3330TIP3   OH234184   7.756   3.050  10.108 -0.0582 -0.2251 -0.2600
 3330TIP3    H134185   7.687   3.069  10.171 -1.2993  0.1825 -1.6961
 3330TIP3    H234186   7.773   3.134  10.066 -0.1164 -0.7330 -1.3186
 3331TIP3   OH234187   7.933   7.430  10.656  0.2283  0.7154  0.5432
 3331TIP3    H134188   7.912   7.438  10.749 -1.0815 -1.3151  0.5104
 3331TIP3    H234189   7.994   7.357  10.652 -0.0436  0.5185 -0.2078
 3332TIP3   OH234190   4.142   0.088  28.852  0.6023  0.1322  0.0719
 3332TIP3    H134191   4.130   0.167  28.799  1.0245 -1.8554 -3.3501
 3332TIP3    H234192   4.235   0.070  28.848  1.0079  0.8904  3.3201
 3333TIP3   OH234193   3.508   2.678  10.123 -0.2136 -0.0608 -0.0445
 3333TIP3    H134194   3.517   2.649  10.214 -1.8592  0.2253  0.2456
 3333TIP3    H234195   3.414   2.690  10.112 -0.3817 -2.7217 -2.6237
 3334TIP3   OH234196   2.879   8.965  10.804  0.3358 -0.4579  0.0478
 3334TIP3    H134197   2.900   9.057  10.818  0.4610 -0.6115  0.8799
 3334TIP3    H234198   2.954   8.931  10.755  0.5655 -0.2553  0.2546
 3335TIP3   OH234199   7.886   0.399  10.502 -0.1726  0.5822  0.1448
 3335TIP3    H134200   7.973   0.359  10.498 -0.5186 -0.2552  0.8714
 3335TIP3    H234201   7.851   0.388  10.414  0.6232  1.3373 -0.2878
 3336TIP3   OH234202   0.347   0.556  10.429 -0.2939  0.0350 -0.1486
 3336TIP3    H134203   0.401   0.514  10.496 -0.2412  1.1095  0.5170
 3336TIP3    H234204   0.396   0.636  10.406 -1.2178  0.6310 -0.1027
 3337TIP3   OH234205   7.725   1.522   9.487 -0.0256  0.1311  0.1618
 3337TIP3    H134206   7.739   1.600   9.433  1.2965 -0.6420 -0.6807
 3337TIP3    H234207   7.705   1.453   9.424  0.1519 -0.4901  0.7771
 3338TIP3   OH234208   4.879   6.448   9.500 -0.1918 -0.1116 -0.1193
 3338TIP3    H134209   4.861   6.372   9.445 -0.2331 -0.3268  0.1920
 3338TIP3    H234210   4.795   6.493   9.507 -0.5959 -1.0453  1.2268
 3339TIP3   OH234211   2.884   3.538   9.785 -0.2284  0.1940 -0.1987
 3339TIP3    H134212   2.948   3.605   9.811  0.8649 -0.0793 -1.9512
 3339TIP3    H234213   2.814   3.545   9.849  0.9192  1.4715  0.9897
 3340TIP3   OH234214   8.300   0.666   8.788  0.6332  0.2797 -0.4937
 3340TIP3    H134215   8.307   0.616   8.870  0.9370  0.5947 -0.3247
 3340TIP3    H234216   8.384   0.653   8.745  0.9653  1.1744 -0.1383
 3341TIP3   OH234217   1.824   2.543  10.353 -0.0383 -0.0093  0.4995
 3341TIP3    H134218   1.779   2.490  10.419  0.0212  1.1430  1.5209
 3341TIP3    H234219   1.781   2.629  10.359 -0.3326 -0.0070 -1.2997
 3342TIP3   OH234220   2.271   8.855   9.384  1.1420  0.2470 -0.2023
 3342TIP3    H134221   2.332   8.923   9.354 -0.1067  1.8171  0.6480
 3342TIP3    H234222   2.290   8.779   9.329  3.0581  1.0514 -0.7279
 3343TIP3   OH234223   4.145   4.404  10.691 -0.1264  0.0595  0.9922
 3343TIP3    H134224   4.071   4.403  10.630 -0.2172  0.6281  1.0792
 3343TIP3    H234225   4.211   4.348  10.651 -0.7385 -0.7509  1.0833
 3344TIP3   OH234226   2.168   6.301   9.828  0.0638  0.3964  0.0277
 3344TIP3    H134227   2.075   6.323   9.838 -0.1615 -0.4038 -0.2608
 3344TIP3    H234228   2.179   6.284   9.735 -0.1954 -2.4509  0.4286
 3345TIP3   OH234229   4.660   1.809  10.799  0.3566 -0.1378  0.5543
 3345TIP3    H134230   4.628   1.729  10.840  1.7099 -1.8292 -1.4379
 3345TIP3    H234231   4.755   1.797  10.793  0.5086  1.2571 -0.5269
 3346TIP3   OH234232   5.611   5.048  11.221  0.0108  0.2004 -0.3570
 3346TIP3    H134233   5.522   5.024  11.195 -0.5297 -0.1032  1.6126
 3346TIP3    H234234   5.637   5.115  11.157 -1.6048  0.2655 -1.0037
 3347TIP3   OH234235   3.252   1.390  10.644 -0.5004  0.2333  0.0543
 3347TIP3    H134236   3.266   1.373  10.737 -0.6109  1.0751  0.2274
 3347TIP3    H234237   3.339   1.387  10.606 -0.6193 -2.0025 -0.1578
 3348TIP3   OH234238   5.325   5.988  11.071 -0.4516 -0.0113 -0.3498
 3348TIP3    H134239   5.325   6.084  11.066 -1.5078 -0.0014 -0.4240
 3348TIP3    H234240   5.401   5.961  11.019 -1.2398  0.7274 -1.9570
 3349TIP3   OH234241   3.377   7.027  10.640  0.4589 -0.3191  0.5745
 3349TIP3    H134242   3.430   6.947  10.644  0.5538 -0.2159  1.3644
 3349TIP3    H234243   3.354   7.046  10.730 -1.0845 -0.4511  0.2404
 3350TIP3   OH234244   0.179   5.515  10.434  0.2189  0.1156 -0.6661
 3350TIP3    H134245   0.178   5.421  10.418 -1.5365 -0.0296  0.0983
 3350TIP3    H234246   0.243   5.549  10.371  0.8751 -1.5665 -0.9645
 3351TIP3   OH234247   4.899   0.594  10.926 -0.1772 -0.1378  0.6032
 3351TIP3    H134248   4.887   0.666  10.864 -1.2368 -0.1175  0.8037
 3351TIP3    H234249   4.947   0.527  10.877  0.8422  0.7054  0.4202
 3352TIP3   OH234250   2.077   7.477  10.819  0.2720 -0.4517 -0.2506
 3352TIP3    H134251   2.108   7.444  10.903  3.1888  1.3118 -0.5027
 3352TIP3    H234252   2.120   7.422  10.754 -2.0764 -1.9031 -0.7157
 3353TIP3   OH234253   7.216   2.286  10.775 -0.3292 -0.1393  0.3196
 3353TIP3    H134254   7.277   2.358  10.763 -1.5949  1.4182  2.4802
 3353TIP3    H234255   7.241   2.247  10.859 -0.7580 -1.0807  0.0249
 3354TIP3   OH234256   7.042   5.302  11.382 -0.2435 -0.0894  0.4898
 3354TIP3    H134257   7.036   5.283  11.475  0.7501 -0.5761  0.4686
 3354TIP3    H234258   6.957   5.276  11.347 -1.1030  1.3364  1.4485
 3355TIP3   OH234259   1.821   5.256   9.942 -0.4224  0.3804  0.5197
 3355TIP3    H134260   1.769   5.221  10.015 -0.7938  0.0701  0.1065
 3355TIP3    H234261   1.774   5.229   9.863  2.3884 -3.5073 -0.1382
 3356TIP3   OH234262   0.782   4.180   9.620 -0.4451  0.5795 -0.3568
 3356TIP3    H134263   0.838   4.220   9.686  0.6039  0.0906 -0.9284
 3356TIP3    H234264   0.833   4.184   9.539 -0.1231 -2.1444 -0.3816
 3357TIP3   OH234265   5.656   3.191  10.858 -0.0431 -0.3235  0.3253
 3357TIP3    H134266   5.708   3.270  10.842  0.4296 -0.6279  0.3245
 3357TIP3    H234267   5.573   3.207  10.813 -0.2227  0.4613  0.9172
 3358TIP3   OH234268   5.185   8.330  10.846  0.1778  0.0904 -0.3565
 3358TIP3    H134269   5.256   8.268  10.857  0.1418  0.3412  1.5607
 3358TIP3    H234270   5.148   8.341  10.934 -0.9599  1.4527 -0.9585
 3359TIP3   OH234271   0.666   2.546  10.768  0.1428 -0.3405 -0.7475
 3359TIP3    H134272   0.589   2.530  10.713 -1.0964  0.0902  0.7748
 3359TIP3    H234273   0.690   2.460  10.802  1.0616 -0.6458 -2.0898
 3360TIP3   OH234274   8.433   3.501  10.919 -0.5447  0.5493  0.2310
 3360TIP3    H134275   8.471   3.436  10.859 -1.5765  0.7578 -0.6967
 3360TIP3    H234276   8.506   3.529  10.974  0.2268 -0.3618 -0.2951
 3361TIP3   OH234277   8.721   3.965   9.621 -0.3786 -0.3457  0.1386
 3361TIP3    H134278   8.773   3.896   9.663 -0.7751  0.3983  1.9565
 3361TIP3    H234279   8.637   3.922   9.602 -0.8772 -0.2524  1.9026
 3362TIP3   OH234280   4.567   3.673  10.411 -0.1044  0.1512 -0.0303
 3362TIP3    H134281   4.479   3.639  10.424 -0.2109  0.3787 -0.1556
 3362TIP3    H234282   4.604   3.678  10.499  0.2526 -1.1806 -0.0805
 3363TIP3   OH234283   1.012   3.899  10.433  0.1737 -0.2011 -0.3042
 3363TIP3    H134284   1.050   3.986  10.445  0.4970 -0.3404 -0.3005
 3363TIP3    H234285   1.085   3.845  10.402 -0.3181 -0.1584 -1.5932
 3364TIP3   OH234286   5.759   6.512   9.599  0.6692 -0.5713 -0.3606
 3364TIP3    H134287   5.736   6.459   9.524 -1.2815  0.4392 -0.5674
 3364TIP3    H234288   5.780   6.449   9.668 -1.8025 -1.6918 -0.5146
 3365TIP3   OH234289   8.694   4.911  10.708  0.0572 -0.2097  0.1107
 3365TIP3    H134290   8.766   4.964  10.742 -0.2318  0.0676  0.2973
 3365TIP3    H234291   8.625   4.975  10.686  0.3822 -0.3381 -1.3949
 3366TIP3   OH234292   4.428   3.110  10.931 -0.5176  0.8478  0.1742
 3366TIP3    H134293   4.443   3.191  10.980 -0.2052  1.4885 -0.9243
 3366TIP3    H234294   4.422   3.042  10.997 -0.8048  1.7753  1.1303
 3367TIP3   OH234295   7.371   2.209  10.513  0.3716 -0.2302  0.3014
 3367TIP3    H134296   7.328   2.135  10.472  0.3450  0.3297 -0.6924
 3367TIP3    H234297   7.307   2.244  10.575 -0.4176  0.2766 -0.7875
 3368TIP3   OH234298   0.936   8.467  11.059 -0.0392 -0.1415 -0.5659
 3368TIP3    H134299   0.903   8.430  10.977  0.4762  1.1123 -1.3676
 3368TIP3    H234300   0.970   8.391  11.108 -2.5196 -1.2350 -0.4218
 3369TIP3   OH234301   5.741   5.762  11.448  0.1388  0.0764  0.0247
 3369TIP3    H134302   5.710   5.672  11.442 -0.9076  0.4624 -0.5820
 3369TIP3    H234303   5.712   5.791  11.535 -2.0908  0.7180 -0.8668
 3370TIP3   OH234304   1.233   1.568  10.242 -0.0060 -0.2967  0.1751
 3370TIP3    H134305   1.327   1.563  10.229 -0.0749 -0.0469 -0.4981
 3370TIP3    H234306   1.222   1.586  10.335  0.5928 -0.7352  0.3397
 3371TIP3   OH234307   7.787   8.354   9.222  0.5762 -0.0024 -0.3428
 3371TIP3    H134308   7.727   8.296   9.175 -0.3917  0.2169  0.5873
 3371TIP3    H234309   7.846   8.295   9.267 -1.2800 -0.3851  1.7528
 3372TIP3   OH234310   8.797   4.529  10.308  0.0333  0.4333  0.1268
 3372TIP3    H134311   8.886   4.557  10.286  0.0965  0.6824  0.6830
 3372TIP3    H234312   8.782   4.565  10.395 -0.3295 -0.2689  0.3559
 3373TIP3   OH234313   0.609   8.540   9.710 -0.2064  0.1682 -0.3359
 3373TIP3    H134314   0.581   8.559   9.620 -1.4755 -0.9448 -0.2055
 3373TIP3    H234315   0.650   8.454   9.705 -1.0851 -0.2937  0.2928
 3374TIP3   OH234316   4.221   0.342  11.150 -0.0601  0.0933  0.0885
 3374TIP3    H134317   4.278   0.264  11.148 -0.3773 -0.1398 -1.2943
 3374TIP3    H234318   4.154   0.323  11.085 -2.0965  0.1171  2.0927
 3375TIP3   OH234319   4.734   8.661  10.906 -0.5300 -0.0138 -0.0975
 3375TIP3    H134320   4.674   8.595  10.873 -1.4016  0.8851 -0.3595
 3375TIP3    H234321   4.685   8.743  10.903  0.3764  0.5924  0.6159
 3376TIP3   OH234322   7.637   3.255   9.273 -0.0017 -0.5716 -0.1627
 3376TIP3    H134323   7.583   3.202   9.332 -0.3144 -1.1493 -0.9550
 3376TIP3    H234324   7.655   3.198   9.199  2.1267 -0.5638  0.2973
 3377TIP3   OH234325   5.090   8.275   9.946 -0.0434  0.3050 -0.7394
 3377TIP3    H134326   5.082   8.362   9.906  2.8894  1.0407  0.1118
 3377TIP3    H234327   5.169   8.279   9.998 -1.1731 -2.1523  1.3658
 3378TIP3   OH234328   8.922   7.766  10.875 -0.1604  0.4750 -0.0355
 3378TIP3    H134329   8.994   7.719  10.917  0.5347  1.2863 -0.2965
 3378TIP3    H234330   8.953   7.856  10.867 -1.6369  1.1041  0.8648
 3379TIP3   OH234331   2.537   4.667  10.961 -0.2101 -0.0240  0.2721
 3379TIP3    H134332   2.556   4.737  11.024  0.9451  0.8548 -1.0054
 3379TIP3    H234333   2.442   4.672  10.948 -0.0898  1.6590 -0.1711
 3380TIP3   OH234334   1.764   1.583  10.329 -0.0355  0.2364  0.0332
 3380TIP3    H134335   1.854   1.554  10.343  0.6149  1.1338 -1.9830
 3380TIP3    H234336   1.748   1.646  10.400  0.7313 -0.2607  0.6646
 3381TIP3   OH234337   8.232   5.813  11.033  0.0061  0.1312  0.3764
 3381TIP3    H134338   8.203   5.746  11.095  1.4910 -2.1590 -1.2558
 3381TIP3    H234339   8.325   5.825  11.052  0.5225 -0.6916 -1.3939
 3382TIP3   OH234340   4.840   3.551  10.619 -0.1041  0.3725 -0.1269
 3382TIP3    H134341   4.872   3.564  10.530  3.0828 -0.9888  0.6930
 3382TIP3    H234342   4.823   3.457  10.626  0.0861  0.3953  0.8210
 3383TIP3   OH234343   5.471   8.981   9.581 -0.2880  0.2082 -0.0903
 3383TIP3    H134344   5.459   9.072   9.609  0.9319 -0.0111  1.2891
 3383TIP3    H234345   5.536   8.946   9.642  0.9096 -0.9651 -1.9655
 3384TIP3   OH234346   3.872   5.408  10.908 -0.4577  0.0499  0.3757
 3384TIP3    H134347   3.860   5.328  10.856  0.0685  0.6819 -0.7526
 3384TIP3    H234348   3.961   5.400  10.944  0.8580  1.5057 -2.3018
 3385TIP3   OH234349   7.048   8.416  10.870 -0.0149 -0.3936 -0.0991
 3385TIP3    H134350   7.008   8.361  10.937 -0.9148 -1.1513 -1.2157
 3385TIP3    H234351   7.034   8.368  10.788 -1.1266  1.6180 -1.1756
 3386TIP3   OH234352   4.544   0.767  10.834 -0.6115 -0.2176  0.4344
 3386TIP3    H134353   4.613   0.701  10.825 -1.4077 -1.1513  1.0177
 3386TIP3    H234354   4.502   0.747  10.918  0.4862  2.3432  1.7139
 3387TIP3   OH234355   0.969   7.264  10.134 -0.0291  0.2733  0.1438
 3387TIP3    H134356   1.028   7.286  10.062  0.0303  1.8924  0.6465
 3387TIP3    H234357   0.882   7.285  10.100 -0.0287  0.7521  0.4394
 3388TIP3   OH234358   0.399   6.264  11.033 -0.4623 -0.2624 -0.7722
 3388TIP3    H134359   0.481   6.215  11.024  0.5192  0.7188  1.8996
 3388TIP3    H234360   0.331   6.197  11.039  0.4620 -1.1923 -0.3923
 3389TIP3   OH234361   6.678   3.627   9.070 -0.2551  0.2082  0.0628
 3389TIP3    H134362   6.755   3.588   9.110 -0.0847 -1.3113 -1.5881
 3389TIP3    H234363   6.711   3.673   8.993 -0.8741  0.5453 -0.0107
 3390TIP3   OH234364   4.388   4.985   9.384 -0.0534  0.0081 -0.6123
 3390TIP3    H134365   4.331   5.062   9.381 -0.2734 -0.1748 -1.1188
 3390TIP3    H234366   4.339   4.917   9.337  0.9453  0.0824 -1.7891
 3391TIP3   OH234367   8.872   3.498  10.971 -0.1694  0.0058 -0.3730
 3391TIP3    H134368   8.889   3.574  10.916  1.7766 -0.3043 -0.2572
 3391TIP3    H234369   8.943   3.497  11.035 -1.0127 -1.0425  0.6034
 3392TIP3   OH234370   2.450   0.763  10.663  0.1496 -0.5854  0.3940
 3392TIP3    H134371   2.438   0.688  10.721  0.1359 -0.9103 -0.0316
 3392TIP3    H234372   2.540   0.755  10.631  0.0109 -0.6576  0.0165
 3393TIP3   OH234373   4.054   5.015   9.659 -0.0485  0.5775 -0.0047
 3393TIP3    H134374   4.115   5.025   9.586  0.5055  0.4764  0.4349
 3393TIP3    H234375   4.064   4.925   9.688 -2.1885 -0.2014 -1.4602
 3394TIP3   OH234376   4.067   0.161  10.012 -0.1659  0.1774 -0.6531
 3394TIP3    H134377   4.144   0.178   9.958  0.5597 -2.3825 -0.5301
 3394TIP3    H234378   4.092   0.088  10.069 -1.0854  2.2626  2.7857
 3395TIP3   OH234379   5.244   7.499   9.873 -0.5677 -0.3585  0.1448
 3395TIP3    H134380   5.271   7.586   9.843  0.2384 -1.2547 -1.8780
 3395TIP3    H234381   5.170   7.476   9.817 -2.5578  0.0417  2.4233
 3396TIP3   OH234382   4.334   5.020   9.997 -0.1720  0.2108  0.1110
 3396TIP3    H134383   4.379   5.083   9.940  0.0635  0.1842  0.2649
 3396TIP3    H234384   4.373   5.033  10.083  0.0142 -0.2744  0.1056
 3397TIP3   OH234385   6.236   3.409  11.252  0.4658  0.3557  0.0894
 3397TIP3    H134386   6.148   3.400  11.215  0.5195  0.5345 -0.0807
 3397TIP3    H234387   6.243   3.337  11.315  1.4012 -1.7101 -2.2203
 3398TIP3   OH234388   5.021   8.765  11.290 -0.6850 -0.4287 -0.0074
 3398TIP3    H134389   4.988   8.681  11.322  0.1259 -0.5488  0.5402
 3398TIP3    H234390   4.950   8.799  11.236 -1.4853 -0.9353  0.6849
 3399TIP3   OH234391   7.853   3.708   9.910  0.0223  0.3133 -0.0847
 3399TIP3    H134392   7.915   3.777   9.883 -1.1686  1.7939  0.8365
 3399TIP3    H234393   7.821   3.736   9.995 -1.2220 -0.9198 -0.1129
 3400TIP3   OH234394   7.683   1.185   9.624 -0.2162 -0.1124 -0.4914
 3400TIP3    H134395   7.612   1.249   9.635  0.0351  0.6052 -2.6077
 3400TIP3    H234396   7.638   1.101   9.614 -0.5289 -0.5582  3.1793
 3401TIP3   OH234397   8.539   5.076  11.078  0.0950 -0.2230 -0.7715
 3401TIP3    H134398   8.581   4.990  11.080  0.3037 -0.1972 -2.5755
 3401TIP3    H234399   8.445   5.057  11.078  0.1367 -0.4272 -0.6153
 3402TIP3   OH234400   7.473   1.760  10.827 -0.6452 -0.0015 -0.5503
 3402TIP3    H134401   7.489   1.784  10.736 -1.5770  1.9199 -0.2496
 3402TIP3    H234402   7.462   1.665  10.825  2.5304 -0.4353 -1.9128
 3403TIP3   OH234403   5.939   0.937  10.272  0.3282  0.2866 -0.0664
 3403TIP3    H134404   5.848   0.965  10.281  0.8194  1.8781  0.1178
 3403TIP3    H234405   5.938   0.845  10.300 -1.2152  0.2734 -0.0899
 3404TIP3   OH234406   2.260   3.708  11.012 -0.0508 -0.5191  0.2140
 3404TIP3    H134407   2.320   3.690  10.940 -1.6898 -0.4675 -1.2386
 3404TIP3    H234408   2.307   3.771  11.067  0.6673  0.6886 -1.6615
 3405TIP3   OH234409   5.225   0.814   9.026 -0.4706 -0.2551  0.3828
 3405TIP3    H134410   5.167   0.749   9.066 -0.7448 -0.9394 -1.0759
 3405TIP3    H234411   5.166   0.882   8.994 -0.4257 -0.6807 -0.6142
 3406TIP3   OH234412   3.100   4.324  10.365  0.5605  0.2171 -0.0659
 3406TIP3    H134413   3.189   4.291  10.375  0.7906  0.7766 -0.1904
 3406TIP3    H234414   3.057   4.303  10.447  1.5399  2.0993  0.9886
 3407TIP3   OH234415   3.443   0.680   9.170  0.1390 -0.2248  0.9737
 3407TIP3    H134416   3.528   0.651   9.203  0.4424  0.8067  1.1373
 3407TIP3    H234417   3.439   0.773   9.194 -1.2713 -0.3895  1.4496
 3408TIP3   OH234418   8.275   6.754   9.159  0.3795  0.1542  0.0791
 3408TIP3    H134419   8.214   6.711   9.099 -0.2711  1.7084 -0.4258
 3408TIP3    H234420   8.321   6.682   9.202 -0.7103 -1.0322 -0.6656
 3409TIP3   OH234421   8.693   2.471   9.617  0.3592  0.2040  0.4736
 3409TIP3    H134422   8.751   2.476   9.542  3.1635 -1.1722  2.3829
 3409TIP3    H234423   8.738   2.413   9.679 -2.8261 -0.5182  2.3465
 3410TIP3   OH234424   2.891   7.347  10.994 -0.1221  0.3763 -0.3977
 3410TIP3    H134425   2.871   7.412  11.061 -0.5650  0.7521 -0.8834
 3410TIP3    H234426   2.809   7.298  10.984  0.0138  0.1685 -0.4913
 3411TIP3   OH234427   4.178   1.876   9.955 -0.3394 -0.1946  0.4531
 3411TIP3    H134428   4.256   1.854  10.005 -1.1437  0.2774  1.9940
 3411TIP3    H234429   4.136   1.792   9.936 -2.0995 -0.3395  4.1270
 3412TIP3   OH234430   3.376   1.789  11.314 -0.3896 -0.0495  0.0936
 3412TIP3    H134431   3.385   1.884  11.305  0.4613 -0.2521 -1.7806
 3412TIP3    H234432   3.432   1.766  11.388  2.4491  0.5620 -1.6912
 3413TIP3   OH234433   7.420   0.921  11.095  0.4548  0.2287 -0.3064
 3413TIP3    H134434   7.421   1.013  11.120  1.5401  0.6810 -1.8930
 3413TIP3    H234435   7.329   0.895  11.102  0.3055  1.0625  1.3637
 3414TIP3   OH234436   5.419   4.777  10.858 -0.7063  0.2754  0.3182
 3414TIP3    H134437   5.446   4.692  10.891 -1.6597 -0.8238 -1.5273
 3414TIP3    H234438   5.500   4.818  10.827 -0.2337  0.0924  1.2798
 3415TIP3   OH234439   1.344   0.416  11.263 -0.1039  0.2023  0.3781
 3415TIP3    H134440   1.299   0.495  11.294  0.1172  0.7248 -0.6216
 3415TIP3    H234441   1.381   0.440  11.179 -2.2413 -1.7105 -1.2524
 3416TIP3   OH234442   5.964   8.090  11.253 -0.1372 -0.1469  0.0838
 3416TIP3    H134443   5.997   8.080  11.342  3.2590 -0.8632 -1.1012
 3416TIP3    H234444   5.909   8.013  11.239 -1.6007  0.5308  1.8534
 3417TIP3   OH234445   3.744   3.880  10.086  0.3621 -0.0440 -0.2156
 3417TIP3    H134446   3.719   3.851  10.174 -0.9118  1.7298  0.0698
 3417TIP3    H234447   3.820   3.937  10.101  0.0444  0.3909 -0.2151
 3418TIP3   OH234448   6.534   5.291  11.445  0.2865 -0.2570 -0.4046
 3418TIP3    H134449   6.616   5.307  11.491  1.0706 -0.2183 -1.7443
 3418TIP3    H234450   6.555   5.307  11.353 -1.3957  0.3848 -0.7209
 3419TIP3   OH234451   8.228   2.988  10.151  0.0312 -0.0969 -0.0292
 3419TIP3    H134452   8.266   2.901  10.133  0.1594 -0.7940  3.0808
 3419TIP3    H234453   8.279   3.022  10.224 -1.2815  1.7545  0.0900
 3420TIP3   OH234454   7.918   0.910   9.670  0.5747 -0.3526  0.8430
 3420TIP3    H134455   7.919   0.818   9.646 -0.0482 -0.6824  2.0014
 3420TIP3    H234456   7.848   0.917   9.735  0.1937  1.0528  0.3241
 3421TIP3   OH234457   8.337   2.229   9.337 -0.0175 -0.1318 -0.1039
 3421TIP3    H134458   8.338   2.282   9.416 -0.6969  0.7744 -0.6855
 3421TIP3    H234459   8.427   2.198   9.328  0.2251  0.3388  0.6403
 3422TIP3   OH234460   8.174   0.296  10.493  0.1813 -0.3253 -0.2837
 3422TIP3    H134461   8.251   0.342  10.525 -1.2854  2.3793 -0.3676
 3422TIP3    H234462   8.151   0.235  10.563  2.4630 -1.3673 -0.3596
 3423TIP3   OH234463   6.801   5.700   9.435 -0.2443  0.5650 -0.6375
 3423TIP3    H134464   6.843   5.654   9.363 -1.4713 -1.2643 -0.2338
 3423TIP3    H234465   6.727   5.744   9.395  0.4072  1.4944 -0.8615
 3424TIP3   OH234466   5.005   7.203   9.725  0.1209  0.8030 -0.1434
 3424TIP3    H134467   5.076   7.157   9.681  0.1853 -1.5102  2.1398
 3424TIP3    H234468   4.925   7.169   9.684  0.2303  1.6935 -1.1431
 3425TIP3   OH234469   7.129   8.944  11.134 -0.0283 -0.4073  0.0662
 3425TIP3    H134470   7.096   8.859  11.105 -0.7256  0.4413 -1.7846
 3425TIP3    H234471   7.084   8.959  11.217 -1.6652 -0.8689 -0.6840
 3426TIP3   OH234472   1.243   3.172  10.726 -0.1762  0.2705 -0.5623
 3426TIP3    H134473   1.226   3.125  10.645 -1.5524  0.7356 -0.5759
 3426TIP3    H234474   1.236   3.105  10.795  0.9604 -0.1159 -0.8094
 3427TIP3   OH234475   7.626   8.023   9.708 -0.0004 -0.0954  0.3928
 3427TIP3    H134476   7.628   7.934   9.673  0.1274  0.3955 -0.9023
 3427TIP3    H234477   7.580   8.074   9.641  0.7505  0.9884  0.6817
 3428TIP3   OH234478   0.854   2.723   9.760 -0.1988  0.4918  0.0759
 3428TIP3    H134479   0.785   2.726   9.826  1.6666  1.4462  2.0784
 3428TIP3    H234480   0.909   2.649   9.785  0.6038  0.9362 -0.3361
 3429TIP3   OH234481   0.117   7.596  11.138 -0.0971  0.4986  0.3407
 3429TIP3    H134482   0.117   7.621  11.231  0.0965  0.0333  0.4680
 3429TIP3    H234483   0.210   7.583  11.118 -0.1986 -0.0933  0.2672
 3430TIP3   OH234484   3.555   2.594  10.673 -0.2626 -0.3555  0.7077
 3430TIP3    H134485   3.611   2.591  10.750  0.6480  0.9499  0.1261
 3430TIP3    H234486   3.486   2.656  10.695  1.1282  1.6349 -0.1829
 3431TIP3   OH234487   5.840   2.300  10.347 -0.0243 -0.6036  0.2711
 3431TIP3    H134488   5.838   2.386  10.306  0.0266  1.5924  4.3362
 3431TIP3    H234489   5.750   2.269  10.341 -0.1553 -0.0574 -0.8203
 3432TIP3   OH234490   5.921   4.200   9.818 -0.2248  0.0838  0.8783
 3432TIP3    H134491   5.945   4.112   9.787 -1.7931 -0.2181  0.4584
 3432TIP3    H234492   5.943   4.258   9.745 -1.0404 -0.2304  0.3732
 3433TIP3   OH234493   5.732   4.700  11.325 -0.1347  0.2329  0.0245
 3433TIP3    H134494   5.646   4.682  11.364 -0.7850  2.3752 -0.3058
 3433TIP3    H234495   5.726   4.665  11.236 -0.3862 -0.2958  0.2440
 3434TIP3   OH234496   3.770   7.841  10.750  0.0604  0.1011 -0.2337
 3434TIP3    H134497   3.751   7.794  10.669 -1.6917  0.5160 -0.0987
 3434TIP3    H234498   3.697   7.820  10.808  1.0750  0.1524  1.0994
 3435TIP3   OH234499   4.544   4.447  11.235 -0.1365 -0.3602  0.7296
 3435TIP3    H134500   4.617   4.463  11.295  0.7480 -0.0716 -0.3994
 3435TIP3    H234501   4.533   4.530  11.188 -0.4459 -0.7527  0.0970
 3436TIP3   OH234502   5.037   3.955  11.120 -0.6679 -0.7375  0.0575
 3436TIP3    H134503   4.957   4.006  11.137 -0.2034  0.0411 -0.0643
 3436TIP3    H234504   5.108   4.010  11.152 -0.2729 -2.1506  1.7550
 3437TIP3   OH234505   0.407   7.990   9.714 -0.4423  0.2293 -0.0536
 3437TIP3    H134506   0.499   8.016   9.715  0.1439 -1.5140 -1.8044
 3437TIP3    H234507   0.398   7.928   9.786  0.1071 -0.5332 -0.6183
 3438TIP3   OH234508   6.658   5.683  11.259  0.3764 -0.5855  0.3410
 3438TIP3    H134509   6.673   5.776  11.243  0.5757 -0.3906  1.5535
 3438TIP3    H234510   6.746   5.646  11.269  0.2645 -0.5057  1.8543
 3439TIP3   OH234511   9.198   2.206  10.642  0.1285  0.2524 -0.4673
 3439TIP3    H134512   9.169   2.143  10.575  0.3287  0.6767 -0.9572
 3439TIP3    H234513   9.289   2.225  10.619 -0.6161  2.5647 -1.7784
 3440TIP3   OH234514   7.516   5.374  10.171  0.0492  0.3152  0.1238
 3440TIP3    H134515   7.573   5.364  10.096 -0.0373  0.5207  0.0296
 3440TIP3    H234516   7.433   5.406  10.135 -0.0877  0.1363  0.2715
 3441TIP3   OH234517   8.424   1.807   9.806  0.3066 -0.4847  0.7635
 3441TIP3    H134518   8.377   1.742   9.858 -0.7810 -0.6545 -0.3762
 3441TIP3    H234519   8.460   1.756   9.732  0.9845 -0.0846  0.8048
 3442TIP3   OH234520   9.134   8.255  10.385  0.5132 -0.1261 -0.0183
 3442TIP3    H134521   9.115   8.258  10.292  0.1497 -0.3750  0.0457
 3442TIP3    H234522   9.048   8.254  10.427  0.6570 -1.1675  0.2801
 3443TIP3   OH234523   0.291   3.468   9.444 -0.1674 -0.2232  0.0237
 3443TIP3    H134524   0.371   3.427   9.409  0.0414 -0.3468  0.6322
 3443TIP3    H234525   0.322   3.529   9.511 -0.4853  0.9249 -0.8478
 3444TIP3   OH234526   0.412   5.415  11.193  0.5818  0.4562 -0.0636
 3444TIP3    H134527   0.368   5.402  11.277 -0.7744  1.9603 -0.5089
 3444TIP3    H234528   0.361   5.362  11.131  2.0007 -1.2329  0.1142
 3445TIP3   OH234529   6.595   1.006  10.011 -0.3896  0.8575  0.2929
 3445TIP3    H134530   6.557   1.093   9.997 -0.5528  0.6394 -0.6929
 3445TIP3    H234531   6.524   0.945   9.994  0.2910  0.4532 -1.2689
 3446TIP3   OH234532   1.484   1.866  10.477  0.0576  0.0836  0.0216
 3446TIP3    H134533   1.401   1.840  10.517 -0.3398 -0.6573 -1.2061
 3446TIP3    H234534   1.542   1.792  10.492  0.2245  0.2367  0.1268
 3447TIP3   OH234535   9.154   5.895   9.235 -0.9271 -0.5210 -0.3971
 3447TIP3    H134536   9.116   5.938   9.158  1.6112  0.0402 -1.4635
 3447TIP3    H234537   9.187   5.968   9.288 -1.0942 -0.9741  0.3310
 3448TIP3   OH234538   0.249   0.927  10.284  0.2071 -0.4678 -0.6101
 3448TIP3    H134539   0.169   0.962  10.323  0.2878  0.1173 -0.9597
 3448TIP3    H234540   0.227   0.836  10.263 -0.6274 -0.0991 -1.4136
 3449TIP3   OH234541   2.327   8.991  10.846 -0.2300  0.3184 -0.2865
 3449TIP3    H134542   2.388   9.004  10.919 -1.9482  1.5775  1.0116
 3449TIP3    H234543   2.379   8.945  10.780  1.5141 -0.5690  1.5646
 3450TIP3   OH234544   7.638   8.765   9.568 -0.3949  0.2008  0.0968
 3450TIP3    H134545   7.594   8.811   9.497 -1.2408  0.9607  1.0749
 3450TIP3    H234546   7.723   8.740   9.532 -0.4025  1.4680 -0.8498
 3451TIP3   OH234547   7.521   1.300  10.113 -0.0564  0.1110  0.1702
 3451TIP3    H134548   7.581   1.368  10.142 -0.8681  1.5059 -1.3020
 3451TIP3    H234549   7.448   1.304  10.175  0.0920  0.2667  0.3364
 3452TIP3   OH234550   4.466   8.513   9.371  0.5890  0.1462  0.1197
 3452TIP3    H134551   4.518   8.558   9.437  0.0680  0.4868  0.2975
 3452TIP3    H234552   4.531   8.467   9.318  1.1111  0.9287  0.0617
 3453TIP3   OH234553   6.481   2.397  10.526 -0.1211 -0.4623  0.1017
 3453TIP3    H134554   6.398   2.398  10.575 -0.8499  1.0635 -1.0991
 3453TIP3    H234555   6.524   2.316  10.555 -0.7774  0.0482  2.7822
 3454TIP3   OH234556   8.770   3.238   9.457  0.5286  0.0106 -0.1722
 3454TIP3    H134557   8.832   3.165   9.450 -0.0388 -0.6599  1.4204
 3454TIP3    H234558   8.728   3.226   9.542 -1.7433  0.4902 -1.1589
 3455TIP3   OH234559   5.470   9.037  10.256 -0.2585 -0.0510  0.0185
 3455TIP3    H134560   5.518   9.060  10.177  1.5587  1.6172  1.4918
 3455TIP3    H234561   5.537   9.001  10.315 -0.7388  2.1701  2.0719
 3456TIP3   OH234562   8.462   2.092  10.757  0.1241  0.0721  0.8561
 3456TIP3    H134563   8.535   2.118  10.814 -0.0129  1.0227  0.6154
 3456TIP3    H234564   8.435   2.173  10.714 -0.2270 -0.5067 -0.0459
 3457TIP3   OH234565   3.695   8.731  10.536  0.2767  0.1726 -0.6074
 3457TIP3    H134566   3.751   8.799  10.499  1.0213  0.5736  1.1715
 3457TIP3    H234567   3.631   8.779  10.589  1.4245 -0.4738  1.4897
 3458TIP3   OH234568   1.445   5.253  10.568  0.0528  0.3372 -0.7955
 3458TIP3    H134569   1.438   5.345  10.541  0.8586  0.4041 -0.8265
 3458TIP3    H234570   1.453   5.257  10.663  1.2873  0.4033 -0.8796
 3459TIP3   OH234571   8.080   0.520  10.032 -0.0487  0.5904  1.1003
 3459TIP3    H134572   8.129   0.471  10.098 -0.5980  0.6070  1.5249
 3459TIP3    H234573   8.028   0.584  10.083 -1.0106  0.1342  0.7166
 3460TIP3   OH234574   8.459   7.092  10.884 -0.1745  0.5772  0.4861
 3460TIP3    H134575   8.512   7.035  10.828  0.0601 -1.0155  2.2225
 3460TIP3    H234576   8.498   7.179  10.874 -0.1591  0.3750 -1.7694
 3461TIP3   OH234577   1.329   2.345  10.401 -0.1180  0.1421 -0.1078
 3461TIP3    H134578   1.292   2.274  10.453  0.3054  1.7600  2.6430
 3461TIP3    H234579   1.255   2.383  10.355 -0.7185 -0.7082  0.1325
 3462TIP3   OH234580   2.072   5.259  10.031 -0.0523 -0.0918  0.2529
 3462TIP3    H134581   1.985   5.252   9.990  0.2780 -0.1112 -0.4483
 3462TIP3    H234582   2.134   5.250   9.959  0.5192  1.1585  0.5592
 3463TIP3   OH234583   7.678   7.971   9.413  0.0397  0.0816  0.0342
 3463TIP3    H134584   7.587   7.942   9.415 -0.1369  0.6506  1.2702
 3463TIP3    H234585   7.730   7.891   9.410 -0.4509 -0.4231  2.6837
 3464TIP3   OH234586   1.245   2.683  10.584 -0.5578  0.0597  0.1859
 3464TIP3    H134587   1.261   2.702  10.676  0.5901 -1.9903  0.4777
 3464TIP3    H234588   1.185   2.751  10.555  1.7830  2.8884  1.4844
 3465TIP3   OH234589   6.480   2.520  10.282  0.6796 -0.3530  0.3410
 3465TIP3    H134590   6.479   2.490  10.373  0.5703 -1.2874  0.0468
 3465TIP3    H234591   6.453   2.443  10.231  0.5271  0.2185 -0.4652
 3466TIP3   OH234592   4.938   4.538  10.419  0.7069  0.3082 -0.6262
 3466TIP3    H134593   4.904   4.453  10.391 -0.1268  0.7493 -0.9978
 3466TIP3    H234594   4.879   4.602  10.379  0.2082  1.0139  1.1323
 3467TIP3   OH234595   5.005   7.750  10.877  0.1112 -0.9235 -0.1526
 3467TIP3    H134596   4.920   7.715  10.904  0.6684 -1.3511  1.1710
 3467TIP3    H234597   5.031   7.807  10.949  1.4291 -1.6581 -0.0010
 3468TIP3   OH234598   7.225   7.633  10.244 -0.5865 -0.3265  0.1992
 3468TIP3    H134599   7.295   7.567  10.246 -0.4916 -0.2470  2.6183
 3468TIP3    H234600   7.229   7.670  10.155  1.2589 -1.5613 -0.2854
 3469TIP3   OH234601   7.772   2.363  10.504  1.0657  0.0783 -0.2509
 3469TIP3    H134602   7.838   2.316  10.555  0.7067  0.2261  0.3621
 3469TIP3    H234603   7.822   2.418  10.445  1.4958 -0.7752 -0.7075
 3470TIP3   OH234604   2.255   4.376  10.303 -0.6440 -0.8021  0.1977
 3470TIP3    H134605   2.306   4.414  10.232  0.5180  0.0541  1.4478
 3470TIP3    H234606   2.288   4.287  10.312 -2.2622 -1.6612 -1.6784
 3471TIP3   OH234607   0.870   8.704   9.515  0.0807 -0.6761 -0.2026
 3471TIP3    H134608   0.938   8.772   9.510  0.3374 -0.8287  0.9443
 3471TIP3    H234609   0.915   8.629   9.553 -0.7220 -0.7841  0.5554
 3472TIP3   OH234610   5.438   5.904  10.003  0.6195  0.5668  0.0108
 3472TIP3    H134611   5.479   5.861  10.078  0.5828 -0.1935 -0.3960
 3472TIP3    H234612   5.509   5.955   9.963  0.6629  0.8927  0.4921
 3473TIP3   OH234613   0.904   5.253   9.669 -0.0553 -0.3529 -0.2767
 3473TIP3    H134614   0.925   5.160   9.661 -0.8123 -0.6008  0.5087
 3473TIP3    H234615   0.904   5.270   9.763  0.0557  0.4496 -0.4104
 3474TIP3   OH234616   1.109   2.292  10.618 -0.3887  0.2274 -0.1464
 3474TIP3    H134617   1.171   2.256  10.681  1.1108  0.1324 -1.6147
 3474TIP3    H234618   1.032   2.314  10.671  1.1634  1.1012  1.8888
 3475TIP3   OH234619   3.637   4.893   9.858  0.3204 -0.2367 -0.2224
 3475TIP3    H134620   3.700   4.927   9.795  0.8226  0.0919  0.4373
 3475TIP3    H234621   3.557   4.942   9.841  0.3044 -0.5099 -0.9349
 3476TIP3   OH234622   0.541   1.051   9.423  0.8420  0.6574 -0.1630
 3476TIP3    H134623   0.521   1.106   9.347  1.8215 -0.0476 -0.9647
 3476TIP3    H234624   0.612   1.097   9.468 -0.7484  1.8573  1.2345
 3477TIP3   OH234625   6.948   6.197  10.113 -0.9356 -0.8644 -0.0411
 3477TIP3    H134626   6.930   6.253  10.037 -0.0701 -2.1787 -1.2747
 3477TIP3    H234627   6.871   6.207  10.169 -1.2386  0.7677 -0.6894
 3478TIP3   OH234628   6.360   7.757  10.026  0.3696 -0.4870  0.1956
 3478TIP3    H134629   6.448   7.784  10.002 -0.8968  2.4940 -1.7468
 3478TIP3    H234630   6.314   7.839  10.045 -2.1977 -1.8591  0.4247
 3479TIP3   OH234631   6.532   7.075  11.206 -0.0922 -0.1395 -0.5840
 3479TIP3    H134632   6.504   6.985  11.189  2.2165 -0.8162 -1.2300
 3479TIP3    H234633   6.587   7.098  11.131  0.9517  1.0861  0.4947
 3480TIP3   OH234634   6.221   3.595  10.489  0.8599 -0.2527  0.1167
 3480TIP3    H134635   6.141   3.547  10.469  0.7494 -0.0010 -0.0527
 3480TIP3    H234636   6.224   3.664  10.423 -1.1873  2.6050  2.7189
 3481TIP3   OH234637   3.338   9.073  10.684 -0.3885  0.0929  0.2220
 3481TIP3    H134638   3.416   9.122  10.709 -2.2323  3.1060  0.5434
 3481TIP3    H234639   3.352   9.052  10.591  1.6490 -1.3685  0.7717
 3482TIP3   OH234640   5.219   4.530  11.210  0.0061 -0.2357 -0.4111
 3482TIP3    H134641   5.213   4.466  11.139 -0.7236  0.6545 -1.1985
 3482TIP3    H234642   5.247   4.611  11.166 -1.7161  0.6712  0.0653
 3483TIP3   OH234643   6.060   6.313  11.585 -0.0399 -0.3147 -0.2146
 3483TIP3    H134644   6.065   6.391  11.530  1.2421  0.9960  1.6140
 3483TIP3    H234645   5.989   6.331  11.646  0.7014 -0.2544  0.6496
 3484TIP3   OH234646   9.088   2.446   9.394  0.4208  0.6814  0.1650
 3484TIP3    H134647   9.130   2.444   9.480 -1.5584 -1.7523  1.2291
 3484TIP3    H234648   9.012   2.388   9.404 -0.8956  1.7265 -2.7444
 3485TIP3   OH234649   1.951   7.743   9.898 -0.0557  0.4960  0.1377
 3485TIP3    H134650   1.936   7.652   9.872  0.1963  0.1867  1.0437
 3485TIP3    H234651   2.018   7.775   9.837 -2.6884  1.2500 -2.5972
 3486TIP3   OH234652   3.359   0.560  10.353  0.7989 -0.2381 -0.2057
 3486TIP3    H134653   3.434   0.544  10.409 -1.2631 -1.1055  2.5431
 3486TIP3    H234654   3.363   0.654  10.333  0.9251  0.4307  2.6225
 3487TIP3   OH234655   7.993   5.290  11.038 -0.1783  0.5436 -0.0967
 3487TIP3    H134656   7.986   5.242  10.956  1.6576  1.2417 -0.7155
 3487TIP3    H234657   7.974   5.224  11.106 -0.7000 -0.2833 -1.0213
 3488TIP3   OH234658   6.367   1.810  10.331  0.1397  0.0779  0.8065
 3488TIP3    H134659   6.351   1.904  10.341  0.5412  0.1658  0.6690
 3488TIP3    H234660   6.363   1.795  10.236 -1.6250 -0.3699  0.9114
 3489TIP3   OH234661   4.651   1.796  10.242  0.2697 -0.4795 -0.0072
 3489TIP3    H134662   4.736   1.836  10.257  1.8258 -2.4189 -2.7223
 3489TIP3    H234663   4.630   1.754  10.325  2.5595 -0.9310  0.4194
 3490TIP3   OH234664   2.478   0.958  10.890 -0.1671  0.6449 -0.2467
 3490TIP3    H134665   2.515   1.009  10.818  0.3403 -0.3925 -0.7475
 3490TIP3    H234666   2.409   0.905  10.849  2.0868 -2.2231 -0.6916
 3491TIP3   OH234667   3.779   3.697   9.878  0.6010 -0.5151  0.3416
 3491TIP3    H134668   3.767   3.780   9.924  1.5115 -0.6217  0.7920
 3491TIP3    H234669   3.735   3.632   9.933 -0.1849 -0.3291 -0.0534
 3492TIP3   OH234670   4.181   0.497   9.453 -0.8140 -0.4547 -0.8689
 3492TIP3    H134671   4.097   0.455   9.434  0.2204 -2.4097 -1.4094
 3492TIP3    H234672   4.225   0.437   9.514 -0.3395  1.2272  0.5406
 3493TIP3   OH234673   3.246   1.257  11.055 -0.2873 -0.3741  0.6554
 3493TIP3    H134674   3.339   1.278  11.050  0.0292 -1.6552  0.8032
 3493TIP3    H234675   3.201   1.342  11.045  0.8948  0.3379  1.1955
 3494TIP3   OH234676   0.308   3.857   9.840  0.2155  0.0369  0.0603
 3494TIP3    H134677   0.401   3.878   9.850 -0.0447  0.5815  1.5635
 3494TIP3    H234678   0.293   3.783   9.898 -1.3681  3.3465  4.4220
 3495TIP3   OH234679   2.737   5.509  10.634  0.2968  0.0982 -0.3062
 3495TIP3    H134680   2.717   5.600  10.613  1.5795  0.1603 -1.4094
 3495TIP3    H234681   2.788   5.513  10.714  0.9023  0.4197 -0.6979
 3496TIP3   OH234682   2.766   3.396  10.862 -0.1125  0.5807 -0.2073
 3496TIP3    H134683   2.687   3.368  10.908  0.1723  1.7849  1.0766
 3496TIP3    H234684   2.755   3.362  10.773 -1.9082  0.4461  0.0280
 3497TIP3   OH234685   8.753   5.582  11.255  0.1761  0.2354 -0.0412
 3497TIP3    H134686   8.756   5.586  11.160  0.2005 -1.4087 -0.1251
 3497TIP3    H234687   8.713   5.666  11.281 -1.4669 -0.0223 -1.5845
 3498TIP3   OH234688   1.947   8.667   8.929  0.2933  0.3611  0.3368
 3498TIP3    H134689   1.982   8.741   8.978 -0.3600  0.5565  0.5154
 3498TIP3    H234690   1.897   8.707   8.858  2.2815  0.0972 -1.2940
 3499TIP3   OH234691   4.345   2.809  10.161 -0.3735  0.1595  0.1098
 3499TIP3    H134692   4.331   2.716  10.148  0.2526 -0.1148  1.2685
 3499TIP3    H234693   4.311   2.850  10.082 -1.0200 -1.0145 -0.2353
 3500TIP3   OH234694   6.728   5.475  10.977  0.7039  0.6073 -0.0391
 3500TIP3    H134695   6.806   5.421  10.964 -0.8489 -1.7092 -0.4966
 3500TIP3    H234696   6.698   5.453  11.065 -0.9812 -0.8215 -0.9103
 3501TIP3   OH234697   2.926   3.795   9.601  0.1765 -0.0238  0.2123
 3501TIP3    H134698   2.967   3.792   9.687 -1.9037 -3.6810  1.3038
 3501TIP3    H234699   2.832   3.784   9.619 -0.2370 -1.9397 -2.4883
 3502TIP3   OH234700   4.770   6.869  11.138  0.5473  0.4025 -0.3288
 3502TIP3    H134701   4.855   6.843  11.175  0.3749  1.5338  0.9267
 3502TIP3    H234702   4.791   6.939  11.076  0.7487 -0.9346 -1.8300
 3503TIP3   OH234703   4.351   8.455  10.207 -0.1225 -0.1334  0.5084
 3503TIP3    H134704   4.423   8.471  10.268  0.9074  0.7735 -0.8969
 3503TIP3    H234705   4.347   8.534  10.153 -1.1131 -0.8377 -0.4842
 3504TIP3   OH234706   6.447   0.756  10.303 -0.0551  0.3745  0.4331
 3504TIP3    H134707   6.492   0.674  10.281 -1.4277 -0.4478  0.5501
 3504TIP3    H234708   6.412   0.740  10.391 -2.9250 -0.1012 -0.7149
 3505TIP3   OH234709   7.490   1.048   9.990  0.0304 -0.0578 -0.1287
 3505TIP3    H134710   7.480   1.141  10.009  1.9112  0.0263  0.6691
 3505TIP3    H234711   7.413   1.007  10.028 -0.9473  1.1896 -0.7106
 3506TIP3   OH234712   2.024   1.541  10.355 -0.3977 -0.6153  0.0092
 3506TIP3    H134713   2.071   1.482  10.295  0.1098  0.0188 -0.2246
 3506TIP3    H234714   2.088   1.565  10.421 -1.0656 -1.6344  1.0796
 3507TIP3   OH234715   8.184   3.017  11.147  0.0962 -0.0165 -0.3382
 3507TIP3    H134716   8.122   2.944  11.143 -0.2437  0.1703  1.0376
 3507TIP3    H234717   8.131   3.095  11.131 -0.0753  0.1562  0.9853
 3508TIP3   OH234718   4.623   8.430  10.317 -0.4406 -0.5511  0.4151
 3508TIP3    H134719   4.695   8.389  10.269  1.6181  1.5337  1.5307
 3508TIP3    H234720   4.642   8.413  10.409 -1.5691 -0.2458  0.7211
 3509TIP3   OH234721   6.044   6.912  10.637  0.5785 -0.1843  0.1310
 3509TIP3    H134722   6.052   6.828  10.683 -1.7182 -1.5855 -1.8037
 3509TIP3    H234723   6.088   6.898  10.554  1.9661  1.2839  0.5644
 3510TIP3   OH234724   7.054   4.083   9.244  0.3345 -0.1788 -0.5411
 3510TIP3    H134725   7.071   4.172   9.213  0.5330 -0.3922 -1.0586
 3510TIP3    H234726   7.013   4.040   9.169 -0.6561 -0.2529  0.0217
 3511TIP3   OH234727   0.276   8.630  10.240  0.5968  0.2279 -0.1579
 3511TIP3    H134728   0.337   8.611  10.312 -0.7310  0.5068  1.0796
 3511TIP3    H234729   0.261   8.545  10.199 -2.2302 -0.9776  2.8745
 3512TIP3   OH234730   5.359   7.180  10.395 -0.0278  0.1659  0.0894
 3512TIP3    H134731   5.341   7.086  10.385 -0.1586  0.0816  1.0315
 3512TIP3    H234732   5.391   7.207  10.309 -0.0768 -0.7222 -0.2237
 3513TIP3   OH234733   4.276   4.914  10.327  0.9613 -0.5195 -0.5478
 3513TIP3    H134734   4.357   4.920  10.276  1.3505  0.1367  0.1338
 3513TIP3    H234735   4.303   4.932  10.417 -0.4201  3.2083 -0.7104
 3514TIP3   OH234736   8.941   7.967   9.777  0.0806 -0.0101  0.2904
 3514TIP3    H134737   8.984   8.045   9.744 -1.0981  0.3108 -0.5526
 3514TIP3    H234738   9.009   7.919   9.824  1.2026  0.7299 -0.5548
 3515TIP3   OH234739   3.625   6.156  10.722 -0.4641  0.0805  0.2166
 3515TIP3    H134740   3.604   6.195  10.807 -0.9277  0.1888  0.0577
 3515TIP3    H234741   3.630   6.230  10.662  0.2716  0.0444  0.2214
 3516TIP3   OH234742   4.865   2.875  11.092  0.2360  0.0341 -0.7554
 3516TIP3    H134743   4.821   2.820  11.156 -0.0540  0.7200 -0.3582
 3516TIP3    H234744   4.799   2.892  11.025 -0.1599  1.1470 -0.1079
 3517TIP3   OH234745   4.868   5.683  10.954 -0.3441  0.0282  0.1727
 3517TIP3    H134746   4.828   5.769  10.944  0.5747  0.3954 -0.5032
 3517TIP3    H234747   4.847   5.637  10.873  1.3271  0.5528 -0.6022
 3518TIP3   OH234748   4.698   3.405  11.023  0.2102  0.4029  0.7538
 3518TIP3    H134749   4.699   3.501  11.015 -1.9582  0.3519 -1.0976
 3518TIP3    H234750   4.766   3.376  10.961 -0.6811  0.7284 -0.4182
 3519TIP3   OH234751   6.488   9.199  10.181  0.1959  0.0550  0.5454
 3519TIP3    H134752   6.480   9.294  10.180  1.1947  0.2277  2.8137
 3519TIP3    H234753   6.409   9.169  10.225 -1.6318 -0.4956 -2.7851
 3520TIP3   OH234754   6.725   3.898   9.582 -0.2911  0.4475  0.7810
 3520TIP3    H134755   6.774   3.930   9.506 -0.4579  1.3415  1.0320
 3520TIP3    H234756   6.706   3.977   9.632  0.4411 -0.1974  2.1324
 3521TIP3   OH234757   6.263   3.961  10.755  0.1703 -0.0185  0.1498
 3521TIP3    H134758   6.230   4.028  10.814  0.8004  1.0818 -0.7210
 3521TIP3    H234759   6.265   3.881  10.808 -0.7788  0.5912  1.1413
 3522TIP3   OH234760   2.063   3.112   9.578 -0.1321  0.1219  0.1002
 3522TIP3    H134761   2.046   3.191   9.629 -0.0573  0.4445 -0.3678
 3522TIP3    H234762   2.113   3.143   9.503  1.2599 -0.5874  0.6915
 3523TIP3   OH234763   8.877   2.994   9.369 -0.1607 -0.0118  0.2805
 3523TIP3    H134764   8.966   2.998   9.334 -0.3162  0.3587 -0.0821
 3523TIP3    H234765   8.824   2.962   9.295 -0.2916 -0.4574  0.5645
 3524TIP3   OH234766   5.795   3.073  10.368  0.5850 -1.2100 -0.5502
 3524TIP3    H134767   5.799   3.022  10.449  0.0302  1.3336  1.1737
 3524TIP3    H234768   5.883   3.065  10.331  1.2278 -1.4650  0.9524
 3525TIP3   OH234769   8.507   0.087  10.842 -0.1033 -0.1870 -0.1366
 3525TIP3    H134770   8.486   0.176  10.872  0.1188  0.3892 -1.6163
 3525TIP3    H234771   8.422   0.046  10.827 -0.2104 -0.3126  0.7207
 3526TIP3   OH234772   8.844   0.789  10.398  0.1472 -0.2352  0.6824
 3526TIP3    H134773   8.783   0.749  10.336 -0.0757  0.3335  0.5261
 3526TIP3    H234774   8.900   0.845  10.344 -0.4836  0.7876  1.0611
 3527TIP3   OH234775   7.161   5.174  10.549  0.0025  0.0103 -0.0145
 3527TIP3    H134776   7.159   5.262  10.587 -0.9733  0.1808 -0.4427
 3527TIP3    H234777   7.251   5.165  10.516  0.1256  0.8319  0.0607
 3528TIP3   OH234778   3.694   1.251   9.746 -0.4533 -0.0780  0.2401
 3528TIP3    H134779   3.658   1.169   9.711 -0.3361 -0.0129 -0.0355
 3528TIP3    H234780   3.639   1.319   9.707 -0.4440 -0.0176  0.3346
 3529TIP3   OH234781   4.214   6.939  11.144  0.0806 -0.1780  0.0007
 3529TIP3    H134782   4.175   6.982  11.068  0.5172 -0.8424 -0.6152
 3529TIP3    H234783   4.301   6.977  11.151 -0.5170  1.0498  1.1625
 3530TIP3   OH234784   4.565   3.653   9.528 -0.1313 -0.3798  0.1157
 3530TIP3    H134785   4.646   3.603   9.516  1.5426  1.4389  2.6736
 3530TIP3    H234786   4.504   3.592   9.568  0.6666 -1.2679  0.0137
 3531TIP3   OH234787   7.815   2.953  11.228  0.1485 -0.2041  0.3261
 3531TIP3    H134788   7.754   2.948  11.154 -3.6173 -1.6001  3.1837
 3531TIP3    H234789   7.771   3.011  11.291  4.0233  2.4319  0.9697
 3532TIP3   OH234790   5.216   6.699   9.930  0.3536 -0.2215 -0.0719
 3532TIP3    H134791   5.205   6.625   9.990  2.9976  0.7923  1.8735
 3532TIP3    H234792   5.225   6.659   9.843  2.3234 -2.2995  0.9877
 3533TIP3   OH234793   9.060   0.004   9.481 -0.1153  0.4762 -0.2662
 3533TIP3    H134794   9.001  -0.068   9.503  0.2989  0.0470 -0.5342
 3533TIP3    H234795   9.136  -0.038   9.441  1.1071  0.8511  1.4901
 3534TIP3   OH234796   7.491   2.416  10.750  0.4837  0.1733  0.2764
 3534TIP3    H134797   7.489   2.471  10.829  0.0963  0.3563  0.1389
 3534TIP3    H234798   7.492   2.478  10.677  1.4604  0.0155  0.1350
 3535TIP3   OH234799   3.479   5.470  10.841  0.1623 -0.0008  0.3816
 3535TIP3    H134800   3.500   5.563  10.833  1.4344 -0.2938  0.0559
 3535TIP3    H234801   3.526   5.441  10.919  0.5592 -0.5682 -0.0586
 3536TIP3   OH234802   3.259   5.616   9.767  0.3383  0.1329 -0.1766
 3536TIP3    H134803   3.300   5.678   9.827  1.6713  0.3167 -1.2463
 3536TIP3    H234804   3.257   5.533   9.816  1.2247  0.3258  0.2076
 3537TIP3   OH234805   7.789   5.833  10.142  0.3080  0.6369 -0.4063
 3537TIP3    H134806   7.729   5.882  10.197  1.1122  1.1210  0.0637
 3537TIP3    H234807   7.745   5.827  10.057 -0.2422  1.2999 -0.1745
 3538TIP3   OH234808   2.525   4.941  10.162  0.6795 -0.2029 -0.8187
 3538TIP3    H134809   2.483   4.982  10.237  1.0417 -1.5912  0.1909
 3538TIP3    H234810   2.585   5.008  10.128 -1.1497  1.2526 -1.3430
 3539TIP3   OH234811   4.060   2.349  10.575 -0.5549 -0.4598  0.2209
 3539TIP3    H134812   3.988   2.287  10.576 -0.2266 -0.8739  2.0255
 3539TIP3    H234813   4.020   2.432  10.550 -1.5295 -0.8334  0.5049
 3540TIP3   OH234814   1.470   8.008  10.814 -0.2322 -0.3826  0.1898
 3540TIP3    H134815   1.505   7.938  10.759 -0.1257 -0.8892  0.8905
 3540TIP3    H234816   1.547   8.048  10.855 -0.0992  1.4414 -1.6675
 3541TIP3   OH234817   8.960   2.587  10.291  0.0937  0.1204  0.3079
 3541TIP3    H134818   8.970   2.498  10.322 -0.7844 -0.4383 -0.9156
 3541TIP3    H234819   8.872   2.612  10.319  0.7079  0.9963  1.5386
 3542TIP3   OH234820   0.335   1.343  10.885 -0.0743  0.1902  0.1957
 3542TIP3    H134821   0.410   1.323  10.829 -0.4931  0.6769 -0.5565
 3542TIP3    H234822   0.373   1.368  10.969  0.5567 -0.7221  0.1890
 3543TIP3   OH234823   4.993   5.539  11.209 -0.7291 -0.5564 -0.0799
 3543TIP3    H134824   5.011   5.605  11.276 -1.3885 -0.1434 -0.2867
 3543TIP3    H234825   4.999   5.587  11.126  0.3515 -1.1229 -0.3421
 3544TIP3   OH234826   9.049   7.892   9.389  0.1456 -0.1131 -0.0433
 3544TIP3    H134827   9.111   7.964   9.377  1.3067 -0.9552  0.6678
 3544TIP3    H234828   8.970   7.921   9.343 -0.2673  2.6378  2.1253
 3545TIP3   OH234829   3.267   5.610  10.622  0.2967 -0.5027  0.3888
 3545TIP3    H134830   3.192   5.645  10.573  0.9340 -0.2456 -0.4265
 3545TIP3    H234831   3.307   5.547  10.562  2.0283  0.9771 -0.0551
 3546TIP3   OH234832   2.313   5.757  10.427  0.1049  0.1107  0.8000
 3546TIP3    H134833   2.313   5.787  10.336  2.7927 -2.8944 -0.4063
 3546TIP3    H234834   2.257   5.679  10.427  1.3250 -0.8023  1.2992
 3547TIP3   OH234835   0.188   1.503  10.011 -0.8097  0.1555 -0.5912
 3547TIP3    H134836   0.224   1.579   9.965  0.5300 -0.4120 -0.5394
 3547TIP3    H234837   0.159   1.444   9.941 -0.2774 -0.0001 -0.6916
 3548TIP3   OH234838   3.985   1.360  10.359 -0.0361  0.1260  0.6099
 3548TIP3    H134839   3.895   1.353  10.327  0.3708 -1.1039 -0.3472
 3548TIP3    H234840   3.985   1.438  10.415 -1.5097  0.5803  0.0173
 3549TIP3   OH234841   4.210   0.826  10.747  0.9424 -0.3243  0.6641
 3549TIP3    H134842   4.136   0.812  10.688  0.2268  0.4248  1.3564
 3549TIP3    H234843   4.281   0.857  10.690  0.7282 -1.0565 -0.0044
 3550TIP3   OH234844   0.086   8.937  10.943 -0.3907 -0.2237  0.6033
 3550TIP3    H134845   0.064   8.856  10.898  0.5628  0.7047 -1.7226
 3550TIP3    H234846   0.180   8.929  10.963 -0.5874 -0.2143  1.5883
 3551TIP3   OH234847   1.279   7.274  10.426  0.6042  0.2148  0.2110
 3551TIP3    H134848   1.229   7.355  10.435  2.9630  1.6801  1.2509
 3551TIP3    H234849   1.245   7.216  10.494 -0.2083  0.8511  0.3562
 3552TIP3   OH234850   1.243   1.605  11.222 -0.1340  0.3560  0.0712
 3552TIP3    H134851   1.250   1.509  11.224  0.4088  0.3995  1.2180
 3552TIP3    H234852   1.231   1.630  11.313 -1.3510  1.3254 -0.3328
 3553TIP3   OH234853   8.670   3.722   9.131  1.0417  0.6101 -0.1107
 3553TIP3    H134854   8.745   3.662   9.132  0.5481 -0.0230 -0.5178
 3553TIP3    H234855   8.620   3.698   9.209  0.3295 -0.1827 -0.7952
 3554TIP3   OH234856   4.387   8.037  10.530 -0.5336  0.1476 -0.1831
 3554TIP3    H134857   4.456   8.098  10.504  0.0252 -0.9940 -1.4881
 3554TIP3    H234858   4.433   7.962  10.567 -1.2211  0.5681  1.6124
 3555TIP3   OH234859   5.941   8.205  10.332 -0.1791  0.5306 -0.0903
 3555TIP3    H134860   5.987   8.228  10.251 -0.8220 -1.1745 -0.9945
 3555TIP3    H234861   5.988   8.129  10.365 -1.2665 -0.1641 -0.0982
 3556TIP3   OH234862   3.910   2.071  10.042  0.2422  0.2409 -0.1437
 3556TIP3    H134863   3.932   2.162  10.062 -1.5556  0.4299  1.2692
 3556TIP3    H234864   3.989   2.022  10.066  0.0818  1.0972  2.5049
 3557TIP3   OH234865   3.858   7.831  10.228 -0.5160 -0.9750 -0.2663
 3557TIP3    H134866   3.809   7.775  10.168  0.1090 -0.3056 -1.4549
 3557TIP3    H234867   3.930   7.865  10.175  0.3745 -0.7644  1.0232
 3558TIP3   OH234868   8.702   4.447  10.844 -0.1377 -0.4079  0.5199
 3558TIP3    H134869   8.608   4.456  10.857 -0.0526 -0.7230  1.4191
 3558TIP3    H234870   8.740   4.513  10.902  0.2348 -1.2583  1.2511
 3559TIP3   OH234871   3.984   4.025  10.132  0.5193  0.2440  0.4131
 3559TIP3    H134872   4.068   3.989  10.105 -1.2760 -1.7651 -3.3944
 3559TIP3    H234873   3.972   3.995  10.222  3.6415  0.3197  0.9491
 3560TIP3   OH234874   8.742   2.580   9.980 -0.3714  0.1270 -0.2260
 3560TIP3    H134875   8.734   2.649   9.914  0.8462 -0.2735 -0.8070
 3560TIP3    H234876   8.712   2.622  10.061  1.8610  1.8679 -0.2150
 3561TIP3   OH234877   2.239   8.166   9.108  0.1771  0.0528  0.1578
 3561TIP3    H134878   2.179   8.182   9.181 -0.4048 -0.4245 -0.2023
 3561TIP3    H234879   2.203   8.217   9.035  0.7084  0.4610  0.1708
 3562TIP3   OH234880   5.463   5.047   9.908  0.3989 -0.3961  0.3917
 3562TIP3    H134881   5.483   5.071   9.999 -0.1211 -1.4623  0.8030
 3562TIP3    H234882   5.373   5.074   9.895 -0.5403 -2.8936  1.1860
 3563TIP3   OH234883   4.082   2.637   9.330 -0.3705 -0.5645 -0.1631
 3563TIP3    H134884   4.035   2.619   9.411  0.2797  0.0079  0.3597
 3563TIP3    H234885   4.066   2.561   9.274 -2.5438 -0.0487 -0.3219
 3564TIP3   OH234886   2.438   0.164  10.204 -0.0217 -0.0494 -0.1379
 3564TIP3    H134887   2.525   0.125  10.197  0.1911  0.6420 -1.9490
 3564TIP3    H234888   2.379   0.089  10.219  0.7937 -0.6055  0.3334
 3565TIP3   OH234889   5.260   8.549  10.170 -0.6374  0.1033 -0.1112
 3565TIP3    H134890   5.229   8.637  10.147  0.3427  0.3716 -0.4345
 3565TIP3    H234891   5.355   8.553  10.159 -0.4917 -0.7575  0.6985
 3566TIP3   OH234892   2.303   6.544  10.412  0.0763  0.0558 -0.1900
 3566TIP3    H134893   2.278   6.581  10.496 -0.7749  2.7966 -1.5431
 3566TIP3    H234894   2.387   6.585  10.392  1.2079 -2.0015  0.0929
 3567TIP3   OH234895   5.482   0.794  10.389  0.3862  0.3152  0.3281
 3567TIP3    H134896   5.461   0.781  10.481 -1.3091 -1.6298 -0.2423
 3567TIP3    H234897   5.511   0.708  10.359 -0.3133  0.5851 -1.2285
 3568TIP3   OH234898   3.380   0.658   9.804  0.2187  0.2048  0.0234
 3568TIP3    H134899   3.335   0.573   9.805  0.0481  0.2709  1.8012
 3568TIP3    H234900   3.440   0.653   9.730  0.9386 -1.8741  0.6765
 3569TIP3   OH234901   3.729   5.798  10.937 -0.5358 -0.4703  0.3747
 3569TIP3    H134902   3.688   5.713  10.954  3.3139 -2.7823 -0.4467
 3569TIP3    H234903   3.753   5.795  10.844  2.4420  0.0075  1.0186
 3570TIP3   OH234904   4.437   4.634   9.473 -0.2536  0.5899 -0.7338
 3570TIP3    H134905   4.502   4.698   9.502  0.4760  0.2780 -1.6422
 3570TIP3    H234906   4.367   4.686   9.435 -0.7511  0.9518  0.6315
 3571TIP3   OH234907   0.183   1.116  10.702  0.2413  0.4171 -0.1503
 3571TIP3    H134908   0.120   1.121  10.773  1.2193  3.8620  0.6492
 3571TIP3    H234909   0.194   1.206  10.672  0.9916 -0.6711 -3.7562
 3572TIP3   OH234910   2.327   2.021  10.256 -0.1523  0.9429 -0.5451
 3572TIP3    H134911   2.277   1.979  10.187  0.2771 -1.7818  0.6687
 3572TIP3    H234912   2.278   2.002  10.336  1.4437  0.4353  0.3563
 3573TIP3   OH234913   8.531   1.599  11.096  0.0095  0.2462  0.4157
 3573TIP3    H134914   8.620   1.628  11.079 -0.0253 -0.4835 -1.1988
 3573TIP3    H234915   8.541   1.524  11.154  0.4343  0.2252  0.3178
 3574TIP3   OH234916   1.510   7.587  10.529 -0.2845 -0.1305 -0.2488
 3574TIP3    H134917   1.574   7.576  10.599 -1.0566  0.4734  0.5611
 3574TIP3    H234918   1.504   7.501  10.489  0.2111 -0.4655  0.3743
 3575TIP3   OH234919   8.636   7.756   9.168 -0.1269  0.0802  0.4696
 3575TIP3    H134920   8.577   7.819   9.127  0.2501 -0.0186 -0.2444
 3575TIP3    H234921   8.586   7.674   9.167  0.1773 -0.1164 -0.5760
 3576TIP3   OH234922   3.197   8.082   9.745 -0.1816 -0.6065 -0.1652
 3576TIP3    H134923   3.163   8.007   9.696  0.1677 -1.0148  0.2022
 3576TIP3    H234924   3.210   8.150   9.679  0.8261 -1.3329 -0.7516
 3577TIP3   OH234925   7.140   3.653   9.216  0.2207 -0.1458  0.3222
 3577TIP3    H134926   7.206   3.722   9.205  0.4261 -0.4011 -0.0625
 3577TIP3    H234927   7.191   3.573   9.229 -0.0013 -0.4518 -0.6118
 3578TIP3   OH234928   7.473   3.021  10.803  0.1405 -0.1292 -0.2136
 3578TIP3    H134929   7.393   3.040  10.753 -0.3700  0.5530  0.8337
 3578TIP3    H234930   7.523   3.103  10.798  0.4214 -0.3005 -0.2104
 3579TIP3   OH234931   0.016   6.628  10.763 -0.5250 -0.1450  0.3567
 3579TIP3    H134932   0.035   6.585  10.847  0.4694 -0.8502 -0.2128
 3579TIP3    H234933  -0.030   6.561  10.712  2.1422 -1.0465 -1.0009
 3580TIP3   OH234934   5.369   4.679  10.450  0.3007  0.3843 -0.4488
 3580TIP3    H134935   5.280   4.647  10.439 -0.0917  1.1526  0.3661
 3580TIP3    H234936   5.411   4.661  10.366 -0.3292 -0.8501 -0.5278
 3581TIP3   OH234937   4.484   3.787  10.022 -0.5738  0.2754 -0.0347
 3581TIP3    H134938   4.532   3.800  10.104  1.4731 -1.6111 -0.8396
 3581TIP3    H234939   4.516   3.856   9.964 -1.2288  0.9590  0.4070
 3582TIP3   OH234940   3.036   3.489  10.897  0.2845 -0.0806 -0.5442
 3582TIP3    H134941   2.945   3.466  10.912  0.1193 -0.0388 -1.4647
 3582TIP3    H234942   3.051   3.565  10.953 -0.2974  0.0389 -0.5486
 3583TIP3   OH234943   3.695   3.599  10.302  0.2431  0.9419  0.1499
 3583TIP3    H134944   3.676   3.641  10.386  2.6181  0.9672  0.7575
 3583TIP3    H234945   3.787   3.619  10.286 -0.0638  0.6691 -2.3381
 3584TIP3   OH234946   7.985   0.705  10.752  0.9015 -0.3718  0.0490
 3584TIP3    H134947   7.965   0.704  10.845  0.2837  1.7639 -0.0276
 3584TIP3    H234948   8.054   0.771  10.742 -0.8736  1.3803 -1.3015
 3585TIP3   OH234949   6.204   8.867   9.692  0.1542  0.1938 -0.1741
 3585TIP3    H134950   6.297   8.876   9.713  0.2713  0.8282 -0.9087
 3585TIP3    H234951   6.164   8.837   9.774  1.2543 -1.8484 -0.3212
 3586TIP3   OH234952   1.089   6.940   9.677 -0.1986 -0.2325 -0.2944
 3586TIP3    H134953   1.061   6.966   9.590 -1.2716  0.0809  0.1339
 3586TIP3    H234954   1.037   6.863   9.698 -0.1800 -0.1214  0.1930
 3587TIP3   OH234955   4.329   4.875   9.653 -0.1959  0.2105 -0.2636
 3587TIP3    H134956   4.341   4.903   9.563 -1.2389  1.4713 -0.0392
 3587TIP3    H234957   4.251   4.821   9.651 -0.7761  1.0133  0.0094
 3588TIP3   OH234958   4.716   7.683  10.916  0.2067  0.0827  0.1683
 3588TIP3    H134959   4.720   7.677  10.820  0.6222 -2.2825  0.2670
 3588TIP3    H234960   4.632   7.725  10.934  0.4654  1.2736 -1.2271
 3589TIP3   OH234961   3.929   5.072  11.127  0.3646  0.3632 -0.3535
 3589TIP3    H134962   3.867   4.999  11.132  0.1415  0.6051  1.0180
 3589TIP3    H234963   3.876   5.149  11.148  0.8486  0.7592 -0.5709
 3590TIP3   OH234964   2.173   2.828  10.828 -0.0625 -0.4099 -0.1020
 3590TIP3    H134965   2.146   2.736  10.828 -1.3664 -0.1004 -2.7376
 3590TIP3    H234966   2.251   2.829  10.884 -1.0398 -2.7441  1.4901
 3591TIP3   OH234967   5.103   1.221  10.693 -0.5088 -0.0036 -0.4791
 3591TIP3    H134968   5.123   1.152  10.755 -0.5084  0.3280 -0.1084
 3591TIP3    H234969   5.047   1.179  10.627  0.2273 -0.5763 -0.7525
 3592TIP3   OH234970   0.871   0.692   9.810  0.0100  0.0517  0.3406
 3592TIP3    H134971   0.903   0.723   9.894 -1.0897 -0.3072  0.9054
 3592TIP3    H234972   0.898   0.600   9.806 -0.1122  0.0138  0.3888
 3593TIP3   OH234973   4.043   7.330  10.639  0.5055  0.1778  0.4546
 3593TIP3    H134974   3.949   7.321  10.658  0.1070  1.4092 -0.8338
 3593TIP3    H234975   4.075   7.393  10.704  0.1618  0.7594  0.0609
 3594TIP3   OH234976   6.850   0.106  10.994 -0.1675  0.4423  0.1871
 3594TIP3    H134977   6.898   0.029  10.965  0.0222 -0.1709  2.0091
 3594TIP3    H234978   6.906   0.146  11.060 -1.4383  0.6214  1.1960
 3595TIP3   OH234979   5.547   7.297  10.545 -0.4294 -0.1887  0.2018
 3595TIP3    H134980   5.521   7.275  10.635  1.2357 -0.6929  0.5971
 3595TIP3    H234981   5.483   7.253  10.490 -1.7028  0.4414  1.1337
 3596TIP3   OH234982   2.812   4.971  10.846 -0.3284  0.1807 -0.4901
 3596TIP3    H134983   2.884   4.911  10.824 -0.5804 -0.6208  0.7571
 3596TIP3    H234984   2.733   4.920  10.828 -0.5859  0.7509 -1.0168
 3597TIP3   OH234985   3.598   1.019   9.596 -0.4087 -0.2728 -0.1261
 3597TIP3    H134986   3.504   1.015   9.578 -0.5018  0.9121 -0.0017
 3597TIP3    H234987   3.620   0.932   9.628 -1.7259 -0.2037  1.0766
 3598TIP3   OH234988   9.170   1.341  10.064  0.1904  0.2418 -0.3921
 3598TIP3    H134989   9.233   1.413  10.069 -0.4939  0.8130  0.1704
 3598TIP3    H234990   9.200   1.288   9.990 -0.7202  2.4535 -2.4562
 3599TIP3   OH234991   7.197   5.832  10.944 -0.1554  0.2277  0.2114
 3599TIP3    H134992   7.197   5.763  11.011 -1.6854 -1.2153 -1.1692
 3599TIP3    H234993   7.281   5.823  10.900  0.8124  1.1047  1.7775
 3600TIP3   OH234994   7.039   0.144  10.627  0.0647 -0.0308  0.3118
 3600TIP3    H134995   7.123   0.107  10.598 -0.4373 -1.0725  0.1601
 3600TIP3    H234996   6.974   0.077  10.606 -0.8185  0.7713  0.4141
 3601TIP3   OH234997   6.394   8.684   9.523  0.0480  0.2925  0.2200
 3601TIP3    H134998   6.420   8.776   9.515  0.2694  0.1307 -1.0616
 3601TIP3    H234999   6.466   8.635   9.482  0.2433 -0.5122  1.4597
 3602TIP3   OH235000   6.299   6.244  11.492  0.2008 -0.4727  0.1891
 3602TIP3    H135001   6.345   6.314  11.539  1.3325 -1.5393  0.7490
 3602TIP3    H235002   6.207   6.256  11.515  0.2621  1.2137 -0.2691
 3603TIP3   OH235003   2.224   1.616  10.530 -0.0103 -0.2925 -0.1474
 3603TIP3    H135004   2.318   1.598  10.528  0.4473  1.8913 -1.1881
 3603TIP3    H235005   2.194   1.577  10.612  1.7056 -1.4363 -0.0187
 3604TIP3   OH235006   7.048   4.813  11.090  0.1455  0.4886 -0.6201
 3604TIP3    H135007   7.042   4.718  11.090 -1.2804  0.5445 -1.7660
 3604TIP3    H235008   7.128   4.832  11.041  1.0380 -0.1061  0.5526
 3605TIP3   OH235009   4.765   9.118  10.346 -0.1817  0.3128  0.2978
 3605TIP3    H135010   4.821   9.089  10.274 -0.6725 -1.2460  0.5018
 3605TIP3    H235011   4.714   9.190  10.309  1.4163  1.2872 -0.1003
 3606TIP3   OH235012   8.419   1.721  10.221  0.3288  0.0799  0.1565
 3606TIP3    H135013   8.326   1.707  10.204  0.8659 -1.8502 -1.6685
 3606TIP3    H235014   8.426   1.815  10.237 -1.8889  0.3207  0.0892
 3607TIP3   OH235015   0.721   4.574   9.177 -0.2727 -0.2657  0.2550
 3607TIP3    H135016   0.723   4.668   9.164  0.4879  0.1646  2.8441
 3607TIP3    H235017   0.647   4.543   9.125  2.7350  0.7687 -5.5309
 3608TIP3   OH235018   0.757   4.706  10.571 -0.1646 -0.3300 -0.1087
 3608TIP3    H135019   0.663   4.717  10.555  0.2453  0.9534 -1.9486
 3608TIP3    H235020   0.780   4.628  10.521  0.0165  0.2690 -0.9828
 3609TIP3   OH235021   8.568   8.623  10.523 -0.7145 -0.0434 -0.6573
 3609TIP3    H135022   8.497   8.627  10.587  1.6029 -0.1701  2.0988
 3609TIP3    H235023   8.533   8.567  10.453 -3.2105 -0.3056  0.6664
 3610TIP3   OH235024   2.526   8.654  10.809 -0.3466 -0.4294 -0.5777
 3610TIP3    H135025   2.433   8.655  10.831 -0.0219 -0.3920  0.9449
 3610TIP3    H235026   2.544   8.564  10.782 -0.5137 -0.8819  0.7182
 3611TIP3   OH235027   3.953   6.550  10.523 -0.3028  0.1086 -0.1699
 3611TIP3    H135028   4.036   6.596  10.517 -1.2675  2.2040  1.2312
 3611TIP3    H235029   3.909   6.567  10.440  0.0947  0.1461 -0.3741
 3612TIP3   OH235030   8.378   6.576   9.345  0.2345  0.4756 -0.4268
 3612TIP3    H135031   8.412   6.487   9.356 -1.2331 -0.2055 -1.1719
 3612TIP3    H235032   8.455   6.632   9.356  1.3347 -0.9179 -0.6920
 3613TIP3   OH235033   3.152   4.649  10.037  0.0716  0.1122 -0.8452
 3613TIP3    H135034   3.075   4.595  10.019 -0.6154  0.5792  0.6053
 3613TIP3    H235035   3.163   4.702   9.958 -0.5332 -0.5957 -1.4239
 3614TIP3   OH235036   8.092   1.275   9.048  0.7196  0.1069  0.2136
 3614TIP3    H135037   8.118   1.308   8.962  3.2814  0.4535  1.0371
 3614TIP3    H235038   8.053   1.351   9.092 -0.9993 -0.1770 -0.7176
 3615TIP3   OH235039   7.921   5.140   9.915  0.1072  0.3181  0.6032
 3615TIP3    H135040   7.859   5.125   9.987 -0.3980  0.1284  0.1289
 3615TIP3    H235041   7.886   5.090   9.842 -0.1790  1.6736 -0.2131
 3616TIP3   OH235042   8.939   9.176  10.468 -0.2428  0.1820  0.3815
 3616TIP3    H135043   8.889   9.236  10.523 -1.0987  1.0633 -1.2858
 3616TIP3    H235044   9.009   9.230  10.431 -0.2921 -0.1229 -0.1789
 3617TIP3   OH235045   8.395   2.352   9.634  0.0562  0.5260 -0.1451
 3617TIP3    H135046   8.407   2.261   9.659 -1.0166  0.0946 -1.0826
 3617TIP3    H235047   8.480   2.393   9.649  0.1164 -0.2185  1.8605
 3618TIP3   OH235048   9.118   4.942  10.116 -0.7184 -0.6278  0.7547
 3618TIP3    H135049   9.025   4.934  10.140 -1.9477  1.9846 -2.4539
 3618TIP3    H235050   9.131   4.874  10.050 -0.5385 -0.5995  0.7625
 3619TIP3   OH235051   4.547   4.673  10.362 -0.7745 -0.1282 -0.1929
 3619TIP3    H135052   4.635   4.686  10.326  1.3306 -0.7759  4.1592
 3619TIP3    H235053   4.516   4.761  10.383 -1.3370  0.1114 -1.8534
 3620TIP3   OH235054   5.034   6.635   9.419 -0.0099  0.6130  0.5813
 3620TIP3    H135055   5.121   6.596   9.409 -0.0569 -0.1109  2.5937
 3620TIP3    H235056   4.983   6.568   9.465 -2.0402  0.5316 -1.5901
 3621TIP3   OH235057   0.540   1.014  11.328 -0.2262  0.2234 -0.3240
 3621TIP3    H135058   0.584   1.026  11.244 -0.3711  1.0266 -0.2908
 3621TIP3    H235059   0.593   0.949  11.374  1.0274  1.2753 -0.2274
 3622TIP3   OH235060   1.672   8.439  10.349 -0.0455  0.1722 -0.1246
 3622TIP3    H135061   1.740   8.506  10.350 -0.1801  0.3106 -0.2011
 3622TIP3    H235062   1.711   8.364  10.395 -0.0487  0.4571  0.3483
 3623TIP3   OH235063   8.181   8.634  10.208  0.1781  0.2484  0.2074
 3623TIP3    H135064   8.233   8.581  10.148  0.7602  0.1318  0.8041
 3623TIP3    H235065   8.185   8.586  10.291 -2.3589 -0.7217 -0.1507
 3624TIP3   OH235066   5.772   6.842  10.039 -0.3029 -0.1873  0.1209
 3624TIP3    H135067   5.859   6.824  10.075  1.3985  0.6368 -3.1609
 3624TIP3    H235068   5.719   6.766  10.064  1.9082 -1.6672  0.6005
 3625TIP3   OH235069   8.476   1.860  10.996  0.2051  0.1196 -0.2332
 3625TIP3    H135070   8.468   1.778  11.044 -1.2411  0.3244 -0.0646
 3625TIP3    H235071   8.569   1.868  10.975  0.9137  0.0637  2.5835
 3626TIP3   OH235072   4.762   8.401   9.355 -0.6210  0.2621 -0.1321
 3626TIP3    H135073   4.806   8.388   9.271  0.5280 -0.6682  0.5835
 3626TIP3    H235074   4.812   8.471   9.398 -1.1288  0.6511 -0.1639
 3627TIP3   OH235075   0.214   6.040  10.958 -0.5210 -0.0872  0.2390
 3627TIP3    H135076   0.247   5.950  10.957 -0.5689 -0.1687  2.1149
 3627TIP3    H235077   0.119   6.031  10.951 -0.6445 -0.3021  1.8863
 3628TIP3   OH235078   5.704   4.089  11.114  0.0450 -0.0896  0.1305
 3628TIP3    H135079   5.769   4.131  11.170  0.3332 -0.3676  0.0109
 3628TIP3    H235080   5.691   4.150  11.042 -0.8070  0.5645  0.8209
 3629TIP3   OH235081   2.896   5.587   9.915  0.4414 -0.1593  0.4926
 3629TIP3    H135082   2.926   5.618  10.000  0.0046  1.7977 -0.0121
 3629TIP3    H235083   2.806   5.621   9.908 -0.2725 -2.0202  0.0810
 3630TIP3   OH235084   8.546   5.656  10.531  0.7794 -0.0928 -0.0598
 3630TIP3    H135085   8.455   5.628  10.536  1.1470 -1.2033  0.8482
 3630TIP3    H235086   8.552   5.707  10.450 -1.0449  1.5240  0.7398
 3631TIP3   OH235087   7.146   3.388  10.824  0.0296  0.3226 -0.3478
 3631TIP3    H135088   7.223   3.441  10.842  0.1061  0.1461 -0.1538
 3631TIP3    H235089   7.138   3.389  10.729 -0.5435  1.4949 -0.2994
 3632TIP3   OH235090   0.447   1.775  11.543  0.6128  0.0578 -0.8545
 3632TIP3    H135091   0.465   1.753  11.452  1.8941 -1.3088 -0.3168
 3632TIP3    H235092   0.385   1.708  11.572  0.3203  0.4012 -0.6878
 3633TIP3   OH235093   8.592   2.719  10.149  0.0640  0.2861 -0.0159
 3633TIP3    H135094   8.605   2.678  10.235  0.2503 -1.6657 -0.9355
 3633TIP3    H235095   8.498   2.738  10.147  0.1714  1.0219  0.8800
 3634TIP3   OH235096   7.390   8.557   9.370 -0.5020 -0.5899  0.4032
 3634TIP3    H135097   7.462   8.613   9.342 -0.8130 -0.1722  0.4257
 3634TIP3    H235098   7.429   8.471   9.384 -0.4669 -1.0982 -2.2678
 3635TIP3   OH235099   0.510   3.886  11.477  0.8890 -0.4043  0.4162
 3635TIP3    H135100   0.521   3.836  11.396  0.7842  0.3410 -0.0613
 3635TIP3    H235101   0.599   3.902  11.508  0.9400 -0.3343  0.2311
 3636TIP3   OH235102   5.883   2.875   9.816 -0.1748 -0.1610 -0.3184
 3636TIP3    H135103   5.854   2.925   9.739  1.2268  0.2605 -0.6070
 3636TIP3    H235104   5.958   2.824   9.784  0.6304  0.2609  0.8375
 3637TIP3   OH235105   0.277   5.218  10.115  0.2491 -0.3288  0.1082
 3637TIP3    H135106   0.207   5.169  10.072  1.4064 -1.3160 -0.7486
 3637TIP3    H235107   0.256   5.216  10.208 -0.9301 -0.4619 -0.1557
 3638TIP3   OH235108   2.105   1.119  10.888  0.2542 -0.1933 -0.1569
 3638TIP3    H135109   2.127   1.027  10.898  1.7133 -0.0622 -1.5934
 3638TIP3    H235110   2.141   1.143  10.802  0.6018  1.8894  0.4984
 3639TIP3   OH235111   8.156   0.527  11.227 -0.4053 -0.3097 -0.0986
 3639TIP3    H135112   8.115   0.523  11.141 -1.3595  0.4538  0.2970
 3639TIP3    H235113   8.092   0.486  11.286  0.0424 -0.4255  0.3200
 3640TIP3   OH235114   8.704   1.158  10.026  0.1747  0.1768 -0.2250
 3640TIP3    H135115   8.663   1.238  10.059 -0.5183 -0.2959  0.0767
 3640TIP3    H235116   8.763   1.188   9.957  1.4551  1.1569  1.2347
 3641TIP3   OH235117   8.169   4.597  10.772 -0.3273  0.8449  0.1184
 3641TIP3    H135118   8.255   4.573  10.807  0.2738  2.6609 -0.0008
 3641TIP3    H235119   8.136   4.664  10.833 -1.7285  0.1037  0.2199
 3642TIP3   OH235120   7.923   7.554   9.938  0.1754  0.2980 -0.1176
 3642TIP3    H135121   7.903   7.520   9.851 -5.2012 -0.0462  0.9125
 3642TIP3    H235122   7.882   7.641   9.939 -1.3186 -0.3228  2.3792
 3643TIP3   OH235123   1.991   8.893   9.566  0.0049 -0.0829 -0.2613
 3643TIP3    H135124   2.022   8.928   9.483  1.2074 -0.2206  0.1180
 3643TIP3    H235125   2.062   8.838   9.597 -0.0732  0.6423  1.2776
 3644TIP3   OH235126   7.398   5.095   9.862  0.1108  0.2759  0.2655
 3644TIP3    H135127   7.358   5.036   9.925 -2.7895  0.8716 -0.8350
 3644TIP3    H235128   7.384   5.053   9.777  1.0846  0.9571 -0.2580
 3645TIP3   OH235129   6.611   6.056  10.408 -0.3068  0.2146  0.6011
 3645TIP3    H135130   6.681   6.042  10.471  0.7583 -1.7948 -0.9082
 3645TIP3    H235131   6.566   5.971  10.403  0.0026  0.1223 -1.7050
 3646TIP3   OH235132   1.757   3.850  10.458  0.0978  0.2906  0.1221
 3646TIP3    H135133   1.792   3.938  10.443 -0.9364  0.5143 -1.1016
 3646TIP3    H235134   1.832   3.792  10.443 -0.0259  0.7368 -2.8677
 3647TIP3   OH235135   1.123   7.505   9.538 -0.1865  0.3406  0.1492
 3647TIP3    H135136   1.163   7.456   9.610  0.8379  0.2428 -0.4696
 3647TIP3    H235137   1.035   7.467   9.529 -0.9451  1.4253  2.3655
 3648TIP3   OH235138   8.240   4.396  10.134  0.0205 -0.1873  0.1395
 3648TIP3    H135139   8.163   4.343  10.154  0.2257 -0.9542 -0.9884
 3648TIP3    H235140   8.223   4.431  10.046  0.3819  0.7309  0.4190
 3649TIP3   OH235141   6.311   6.490  10.452 -0.4557 -0.1169 -0.3653
 3649TIP3    H135142   6.349   6.578  10.462  2.4437 -1.2421 -0.4359
 3649TIP3    H235143   6.276   6.469  10.539  0.9054  0.2815  0.3219
 3650TIP3   OH235144   5.245   4.083  10.681  0.5809 -0.0113  0.0274
 3650TIP3    H135145   5.245   4.085  10.777  1.5922 -0.5917  0.0562
 3650TIP3    H235146   5.153   4.089  10.657  0.3024 -0.0005  1.0396
 3651TIP3   OH235147   8.098   7.217  10.665  0.2283 -0.0697 -0.5519
 3651TIP3    H135148   8.098   7.159  10.741  0.1089  0.0689 -0.4479
 3651TIP3    H235149   8.046   7.171  10.600  1.6736 -0.9574 -1.1279
 3652TIP3   OH235150   6.511   2.813  10.512  0.1134  0.4766  0.7996
 3652TIP3    H135151   6.585   2.847  10.563  1.0143  2.4701 -1.5947
 3652TIP3    H235152   6.521   2.855  10.426 -3.0987 -0.2230 -0.0255
 3653TIP3   OH235153   5.079   0.447  10.579 -0.3198  0.4822  0.7464
 3653TIP3    H135154   5.048   0.537  10.582 -0.2804  0.5241 -0.0238
 3653TIP3    H235155   5.151   0.448  10.515  0.9562  0.2917  2.1168
 3654TIP3   OH235156   1.710   4.765   9.972  0.1721  0.2374 -0.3024
 3654TIP3    H135157   1.790   4.805  10.007 -0.3112  0.9450  0.0303
 3654TIP3    H235158   1.651   4.839   9.959  0.0815 -0.0977 -1.9598
 3655TIP3   OH235159   3.857   4.171   9.934 -0.3914  0.5464 -0.1050
 3655TIP3    H135160   3.852   4.266   9.944  2.2992  0.9990 -1.8575
 3655TIP3    H235161   3.863   4.138  10.023 -0.5730  2.0811  0.5136
 3656TIP3   OH235162   2.937   2.103  10.882  0.8860  0.4893  0.7036
 3656TIP3    H135163   3.002   2.126  10.948  0.8938 -1.3933  1.4109
 3656TIP3    H235164   2.866   2.063  10.932  0.8626 -0.9281 -0.4093
 3657TIP3   OH235165   9.053   3.734   9.321 -0.1460 -0.2849 -0.1498
 3657TIP3    H135166   9.141   3.697   9.333  0.4424  1.1927  0.3923
 3657TIP3    H235167   8.994   3.659   9.332  1.0230 -1.2694 -0.2977
 3658TIP3   OH235168   0.633   0.614   9.135 -0.3177 -0.2032 -0.0765
 3658TIP3    H135169   0.668   0.673   9.201  1.5248 -0.4890 -0.7356
 3658TIP3    H235170   0.606   0.671   9.063  0.3283 -0.0682 -0.2163
 3659TIP3   OH235171   5.734   8.484  11.106  0.2981  0.2713 -0.4592
 3659TIP3    H135172   5.822   8.460  11.134  0.3026 -0.0076 -0.6993
 3659TIP3    H235173   5.747   8.564  11.055  0.2288  1.0565  0.7218
 3660TIP3   OH235174   5.229   3.673  11.206 -0.3521  0.7025  0.3749
 3660TIP3    H135175   5.232   3.702  11.297 -1.7886  1.1097  0.3055
 3660TIP3    H235176   5.170   3.598  11.206 -0.4107  0.7418 -0.2259
 3661TIP3   OH235177   0.224   2.289   9.710  0.0679 -0.3419  0.6367
 3661TIP3    H135178   0.210   2.371   9.757  0.0770 -0.6688  1.2150
 3661TIP3    H235179   0.142   2.274   9.663 -0.0066 -0.1068  0.6902
 3662TIP3   OH235180   8.400   9.121   8.861  0.4481 -0.2107  0.2396
 3662TIP3    H135181   8.370   9.031   8.874  0.2224 -0.1701  0.0142
 3662TIP3    H235182   8.484   9.113   8.815 -0.4595 -0.2711 -1.4818
 3663TIP3   OH235183   4.867   8.130  10.015  0.6188  0.1479 -0.3694
 3663TIP3    H135184   4.952   8.146   9.974  0.7776 -1.4390 -0.7301
 3663TIP3    H235185   4.804   8.150   9.946  0.7882 -0.2952 -0.6618
 3664TIP3   OH235186   8.624   3.330  11.279  0.3679 -0.0586 -0.0946
 3664TIP3    H135187   8.692   3.263  11.277  0.5861  0.1696 -1.5941
 3664TIP3    H235188   8.543   3.283  11.259  0.3363 -0.0616  0.0375
 3665TIP3   OH235189   6.358   8.265  10.739 -0.5446  0.3288  0.4730
 3665TIP3    H135190   6.441   8.219  10.744 -0.6248  0.3194  2.5009
 3665TIP3    H235191   6.295   8.199  10.711 -0.0381  0.1218 -0.1965
 3666TIP3   OH235192   1.393   8.195  10.607 -0.2697 -0.1560  0.4479
 3666TIP3    H135193   1.450   8.165  10.678  0.1678 -1.0564 -0.2650
 3666TIP3    H235194   1.350   8.115  10.577  1.5308 -0.2923 -2.0642
 3667TIP3   OH235195   5.423   3.580  10.318  0.1125 -0.4633 -0.0722
 3667TIP3    H135196   5.385   3.623  10.241 -0.5392 -0.8839  0.0076
 3667TIP3    H235197   5.514   3.561  10.293  0.9315  2.3499  0.4453
 3668TIP3   OH235198   1.374   8.376   9.712  0.3003  0.1944  0.4019
 3668TIP3    H135199   1.328   8.458   9.726  0.2276  0.4123 -1.0391
 3668TIP3    H235200   1.453   8.400   9.664 -1.9194 -0.9377 -4.4332
 3669TIP3   OH235201   4.565   6.462  10.234  0.2193  0.4588  0.0543
 3669TIP3    H135202   4.585   6.442  10.326  1.2312 -2.5338 -0.7018
 3669TIP3    H235203   4.481   6.508  10.237 -0.2016 -0.3272  2.4538
 3670TIP3   OH235204   7.513   2.369   9.676  0.5902 -0.3691 -0.2472
 3670TIP3    H135205   7.437   2.311   9.676 -0.2474  0.6994 -0.3831
 3670TIP3    H235206   7.544   2.368   9.586 -1.7280  2.2422 -1.2418
 3671TIP3   OH235207   7.547   0.405  10.803  0.0943 -0.0295 -0.0539
 3671TIP3    H135208   7.484   0.395  10.731 -1.2077 -1.0965  1.1634
 3671TIP3    H235209   7.623   0.446  10.762 -1.3365  1.2495 -1.6195
 3672TIP3   OH235210   1.174   6.154   9.575  0.4343 -0.0482 -0.5006
 3672TIP3    H135211   1.153   6.061   9.585 -0.8043  0.1512 -1.0476
 3672TIP3    H235212   1.119   6.198   9.641 -1.4459  0.5428 -2.3477
 3673TIP3   OH235213   1.878   9.165   9.487 -0.2021  0.3597  0.0680
 3673TIP3    H135214   1.830   9.091   9.449 -0.2345  0.8087 -0.7853
 3673TIP3    H235215   1.822   9.196   9.558 -0.2326 -0.3748  0.3728
 3674TIP3   OH235216   6.907   6.326  10.510  0.4773 -0.0289  0.1172
 3674TIP3    H135217   6.912   6.242  10.556 -2.4885 -0.2984  0.1481
 3674TIP3    H235218   6.961   6.314  10.432 -0.2945 -2.2267 -0.1709
 3675TIP3   OH235219   3.169   0.915   9.357 -0.1269  0.1328 -0.0438
 3675TIP3    H135220   3.258   0.899   9.389 -0.7028 -1.1884  0.9845
 3675TIP3    H235221   3.123   0.952   9.432 -0.2413  1.7250 -0.8459
 3676TIP3   OH235222   6.312   5.710  11.399 -0.3254  0.3587  0.1375
 3676TIP3    H135223   6.406   5.697  11.416 -0.5650 -2.5033 -0.2576
 3676TIP3    H235224   6.295   5.800  11.428  2.1907  0.4160  1.7927
 3677TIP3   OH235225   1.597   1.181   9.365 -0.5705  0.3147 -0.4227
 3677TIP3    H135226   1.671   1.238   9.344 -0.9689  0.9909 -0.0309
 3677TIP3    H235227   1.520   1.231   9.338 -1.0807  0.9600  1.9105
 3678TIP3   OH235228   4.365   0.590  10.675 -0.3841  0.0504  0.1127
 3678TIP3    H135229   4.351   0.673  10.721  2.9362  1.4232 -1.0082
 3678TIP3    H235230   4.447   0.557  10.711 -0.2631 -1.3623 -1.3795
 3679TIP3   OH235231   4.556   2.045   9.594 -0.2211 -0.2458 -0.4193
 3679TIP3    H135232   4.476   2.059   9.645 -0.9393 -0.0371 -1.5536
 3679TIP3    H235233   4.530   2.064   9.503  1.0264 -0.5280 -0.8596
 3680TIP3   OH235234   1.958   0.294  10.539 -0.0014  0.2127  0.8059
 3680TIP3    H135235   1.986   0.228  10.475 -0.8714 -0.9916  1.6147
 3680TIP3    H235236   2.037   0.343  10.560  0.9923 -1.4944  1.2170
 3681TIP3   OH235237   8.200   2.543  10.610 -0.2108  0.3547 -0.0001
 3681TIP3    H135238   8.146   2.479  10.563 -1.3741  0.5486  1.0348
 3681TIP3    H235239   8.184   2.524  10.702  1.2665  0.6295  0.3385
 3682TIP3   OH235240   4.534   4.998  10.236  0.0408 -0.8751 -0.3621
 3682TIP3    H135241   4.577   5.039  10.310 -2.2922 -0.4533  0.8727
 3682TIP3    H235242   4.586   5.024  10.160  0.3571  1.9485  0.6935
 3683TIP3   OH235243   7.679   4.451  11.038  0.2884 -0.9459  0.1731
 3683TIP3    H135244   7.653   4.387  11.104  0.6416 -2.0021 -0.6767
 3683TIP3    H235245   7.603   4.456  10.979 -0.2776  0.4653  0.9733
 3684TIP3   OH235246   1.601   3.626   9.809  0.5726 -0.1313 -0.2256
 3684TIP3    H135247   1.585   3.683   9.733 -1.1455  1.0359  0.9082
 3684TIP3    H235248   1.526   3.566   9.810 -0.5661  1.2026  1.6163
 3685TIP3   OH235249   7.496   8.682  10.485 -0.6812  0.1385 -0.0353
 3685TIP3    H135250   7.404   8.690  10.461 -0.4404  1.2590 -0.6828
 3685TIP3    H235251   7.514   8.759  10.540 -0.3354 -0.5259  0.8090
 3686TIP3   OH235252   4.467   3.034  10.593 -0.1987  0.0566 -0.6006
 3686TIP3    H135253   4.490   3.118  10.551  1.0089  0.0066 -0.0895
 3686TIP3    H235254   4.510   3.038  10.678 -1.3969 -0.4680  0.0444
 3687TIP3   OH235255   5.936   1.604  10.795 -0.5989 -0.3753  0.3896
 3687TIP3    H135256   5.938   1.569  10.884  2.4225 -0.6836  0.3011
 3687TIP3    H235257   5.940   1.699  10.806  3.1296 -0.4209  0.7426
 3688TIP3   OH235258   0.748   9.199   9.240 -0.0806 -0.3932 -0.3051
 3688TIP3    H135259   0.817   9.136   9.215  0.2122 -0.6530  1.0610
 3688TIP3    H235260   0.736   9.253   9.162  1.3034 -0.6820 -0.7532
 3689TIP3   OH235261   9.111   3.827   9.841 -0.3294  0.3703  0.3389
 3689TIP3    H135262   9.110   3.847   9.748 -0.5244  2.1171  0.6812
 3689TIP3    H235263   9.047   3.888   9.879 -0.8718 -0.8800  1.5130
 3690TIP3   OH235264   8.290   4.674   9.834 -0.2395  0.2494  0.1771
 3690TIP3    H135265   8.379   4.693   9.863  0.2636 -1.0474 -0.4489
 3690TIP3    H235266   8.257   4.758   9.801 -0.0292  1.2370  2.3003
 3691TIP3   OH235267   4.112   7.784  10.610  0.4940 -0.1420 -0.3289
 3691TIP3    H135268   4.108   7.814  10.520 -0.4880  1.0381  0.0925
 3691TIP3    H235269   4.054   7.842  10.659 -1.2959 -2.5165  0.5903
 3692TIP3   OH235270   6.990   2.443  11.289  0.1785  0.2521  0.5830
 3692TIP3    H135271   6.927   2.372  11.275  0.8462 -0.0860 -1.0436
 3692TIP3    H235272   6.944   2.521  11.260  0.9495 -0.2102 -2.1789
 3693TIP3   OH235273   2.330   5.928  10.645  0.6089 -0.7503  0.1542
 3693TIP3    H135274   2.366   5.868  10.710 -2.6592 -2.7245  0.3243
 3693TIP3    H235275   2.328   5.877  10.564 -0.9468 -0.4305 -0.0325
 3694TIP3   OH235276   1.411   0.979   9.958  0.2114 -0.1795 -0.2658
 3694TIP3    H135277   1.432   0.938   9.874  2.5734 -0.2429  0.3026
 3694TIP3    H235278   1.494   1.015   9.989 -1.1018  2.1543  0.8391
 3695TIP3   OH235279   0.285   5.070   9.806  0.3101  0.6176  0.7458
 3695TIP3    H135280   0.229   5.085   9.883  1.0222  1.4716  1.1144
 3695TIP3    H235281   0.224   5.057   9.734 -0.4021 -1.1176  1.5880
 3696TIP3   OH235282   2.694   8.912  10.486 -0.0358  0.1397  0.2862
 3696TIP3    H135283   2.654   8.980  10.541 -0.9968  0.3390 -0.6226
 3696TIP3    H235284   2.733   8.851  10.548 -1.2846  0.2340  1.2098
 3697TIP3   OH235285   6.679   1.403   9.340 -0.2940 -0.0795 -0.0842
 3697TIP3    H135286   6.733   1.473   9.303  1.1159 -0.7658  0.5778
 3697TIP3    H235287   6.727   1.375   9.418 -0.7206 -1.9040 -0.4378
 3698TIP3   OH235288   5.687   8.903   9.730 -0.3311  0.3377  0.4003
 3698TIP3    H135289   5.771   8.937   9.700 -0.1819 -1.5253 -1.6098
 3698TIP3    H235290   5.686   8.919   9.824  1.9986  0.9631  0.3729
 3699TIP3   OH235291   0.372   3.827  10.128  0.6368  0.3403 -0.3492
 3699TIP3    H135292   0.278   3.813  10.120  0.8136 -0.1926 -1.7364
 3699TIP3    H235293   0.412   3.752  10.083  1.7083  0.9333 -0.4212
 3700TIP3   OH235294   8.414   3.516  10.630 -1.0267  0.4953  0.2254
 3700TIP3    H135295   8.432   3.497  10.722 -0.0151  2.0913  0.3961
 3700TIP3    H235296   8.450   3.603  10.616 -2.3166  0.8310 -1.3634
 3701TIP3   OH235297   8.426   3.926  10.638  0.7443 -0.4241 -0.0010
 3701TIP3    H135298   8.346   3.973  10.661  0.3520 -0.4459 -1.2779
 3701TIP3    H235299   8.488   3.995  10.614  0.4071 -0.4905 -1.1292
 3702TIP3   OH235300   6.096   8.677  11.188  0.2271 -0.3967 -0.3375
 3702TIP3    H135301   6.045   8.757  11.196 -0.4583 -0.8022 -0.5977
 3702TIP3    H235302   6.049   8.624  11.124  0.8325 -0.8892 -0.3872
 3703TIP3   OH235303   5.894   3.403  10.786  0.0494 -0.3440  0.0540
 3703TIP3    H135304   5.893   3.482  10.732 -0.5530 -1.0440 -1.0083
 3703TIP3    H235305   5.917   3.332  10.726 -0.9437 -1.1982  0.6293
 3704TIP3   OH235306   7.432   0.468   9.760 -0.5002  0.2622  0.1423
 3704TIP3    H135307   7.378   0.543   9.782 -0.2445  0.2681  0.7774
 3704TIP3    H235308   7.422   0.457   9.666 -0.8642  0.8355  0.1136
 3705TIP3   OH235309   4.338   4.755  10.921  0.4287  1.0146  0.2217
 3705TIP3    H135310   4.322   4.810  10.997  0.5864 -0.0525  1.0604
 3705TIP3    H235311   4.251   4.734  10.888  0.3878  2.4490 -0.6356
 3706TIP3   OH235312   3.280   5.382   9.889  0.3553  0.0405  0.1541
 3706TIP3    H135313   3.204   5.324   9.883  2.0766 -2.1615 -1.9901
 3706TIP3    H235314   3.294   5.392   9.983 -1.3992 -1.1164  0.5991
 3707TIP3   OH235315   5.210   0.257   9.747 -0.4878 -0.2636 -0.9271
 3707TIP3    H135316   5.231   0.253   9.654  1.1653  1.5218 -0.6903
 3707TIP3    H235317   5.131   0.311   9.752 -1.0644 -1.0511 -1.3298
 3708TIP3   OH235318   5.383   2.388  10.449  0.7033  0.2237  0.3009
 3708TIP3    H135319   5.419   2.466  10.408  1.3679 -0.1256  0.1983
 3708TIP3    H235320   5.428   2.382  10.534  0.2420  0.2621  0.5538
 3709TIP3   OH235321   2.832   1.479  11.007  0.3374 -0.1777  0.1679
 3709TIP3    H135322   2.744   1.519  11.006  0.9505  1.2689  0.9967
 3709TIP3    H235323   2.866   1.500  11.094  1.3206 -1.1641  0.0302
 3710TIP3   OH235324   5.956   8.483   9.180  0.4817  0.1000  0.0254
 3710TIP3    H135325   5.878   8.480   9.236  0.9712 -1.3096  0.6532
 3710TIP3    H235326   6.028   8.462   9.238  1.3255  1.1076 -0.6181
 3711TIP3   OH235327   2.433   2.531   9.990 -0.8071  0.6040  0.1732
 3711TIP3    H135328   2.365   2.527   9.923 -0.8415 -0.9123  0.2714
 3711TIP3    H235329   2.391   2.575  10.064 -1.1582  1.1420 -0.3322
 3712TIP3   OH235330   4.325   1.573  10.309 -0.3161 -0.3170 -0.3726
 3712TIP3    H135331   4.322   1.655  10.261  1.2331 -0.9543 -1.6578
 3712TIP3    H235332   4.358   1.509  10.246  2.1383 -1.1515  1.5746
 3713TIP3   OH235333   6.177   4.227  10.373 -0.1305  0.6729  0.0368
 3713TIP3    H135334   6.251   4.270  10.416  0.6917 -0.8811  0.2440
 3713TIP3    H235335   6.177   4.263  10.284 -0.0322  1.7466  0.4576
 3714TIP3   OH235336   3.336   2.566   9.893 -0.6719 -0.3145 -0.3553
 3714TIP3    H135337   3.360   2.515   9.815  1.5281  1.2019 -0.8051
 3714TIP3    H235338   3.385   2.525   9.964 -1.8361 -1.0451  0.0443
 3715TIP3   OH235339   3.761   3.953  10.444 -0.5975  0.4737 -0.1002
 3715TIP3    H135340   3.749   3.890  10.516 -1.2598 -1.6788 -1.9749
 3715TIP3    H235341   3.854   3.978  10.449 -0.5179 -0.0058  1.1848
 3716TIP3   OH235342   9.215   3.443  10.073 -0.4931  0.4458  0.2577
 3716TIP3    H135343   9.148   3.485  10.019 -1.5293  0.7634  1.7031
 3716TIP3    H235344   9.168   3.415  10.152  0.2254 -3.0691 -0.3857
 3717TIP3   OH235345   1.463   5.636  10.817 -0.3179  0.0926  0.1735
 3717TIP3    H135346   1.511   5.717  10.831 -0.1632  0.1183 -0.5153
 3717TIP3    H235347   1.526   5.566  10.837  0.5648  0.0849 -2.3084
 3718TIP3   OH235348   4.834   6.974  10.335 -0.1186  0.0603  0.3258
 3718TIP3    H135349   4.905   6.912  10.318 -0.5512 -0.4765  0.4657
 3718TIP3    H235350   4.754   6.923  10.324 -0.4854  0.6285  0.3077
 3719TIP3   OH235351   6.510   8.212   9.292 -0.0217 -0.0122  0.2616
 3719TIP3    H135352   6.434   8.179   9.339  0.2869 -1.3886 -0.1700
 3719TIP3    H235353   6.541   8.138   9.240  1.1445  0.7450 -0.1756
 3720TIP3   OH235354   2.461   1.563  10.372 -0.1213  0.0887  0.0457
 3720TIP3    H135355   2.537   1.559  10.314 -0.2627  2.2462 -0.3504
 3720TIP3    H235356   2.386   1.560  10.313 -0.4056 -2.0663  0.4367
 3721TIP3   OH235357   5.533   2.322  10.688 -0.6481 -0.0678 -0.3225
 3721TIP3    H135358   5.497   2.262  10.753  0.6757 -0.2570  0.2747
 3721TIP3    H235359   5.602   2.370  10.734  0.5166 -0.3912 -1.6196
 3722TIP3   OH235360   4.478   1.806  10.567 -0.3494  0.3599 -0.1309
 3722TIP3    H135361   4.395   1.780  10.606 -0.0416 -0.2292  0.1460
 3722TIP3    H235362   4.538   1.814  10.641  0.1538 -0.4389 -0.4453
 3723TIP3   OH235363   7.918   7.690   9.553  0.1312 -0.2323 -0.6750
 3723TIP3    H135364   7.890   7.677   9.462 -2.3909  1.6904 -0.3136
 3723TIP3    H235365   7.862   7.631   9.603  0.8024 -0.5505 -0.3035
 3724TIP3   OH235366   7.429   5.470   9.862  0.0327  0.5256  0.3112
 3724TIP3    H135367   7.379   5.533   9.811  0.1370  0.1639 -0.2536
 3724TIP3    H235368   7.519   5.479   9.830 -0.0737 -0.3914 -0.2896
 3725TIP3   OH235369   3.258   3.058  10.877  0.4158 -0.2395  0.3973
 3725TIP3    H135370   3.316   3.125  10.913 -0.8428  0.2983  1.5551
 3725TIP3    H235371   3.239   3.000  10.951  0.0234 -0.7839 -0.1229
 3726TIP3   OH235372   6.065   4.023  10.566 -0.0158  0.1725  0.1866
 3726TIP3    H135373   6.102   4.087  10.503  1.5078  0.0232  0.8792
 3726TIP3    H235374   6.139   4.001  10.622 -0.7895 -1.4456  0.6028
 3727TIP3   OH235375   1.672   1.370   9.886 -0.6055  0.0169  0.3922
 3727TIP3    H135376   1.605   1.338   9.826  0.1165  0.7292 -0.8241
 3727TIP3    H235377   1.747   1.313   9.872  0.5777  1.8886 -1.5487
 3728TIP3   OH235378   0.199   2.888   9.694  0.5280 -0.0444  0.0835
 3728TIP3    H135379   0.251   2.919   9.767  0.6201  0.4442 -0.1856
 3728TIP3    H235380   0.123   2.947   9.691  1.0751  0.6306 -0.8819
 3729TIP3   OH235381   8.834   1.094   9.560  0.4750  0.3586  0.1040
 3729TIP3    H135382   8.748   1.135   9.568  0.1439 -0.3018 -0.0102
 3729TIP3    H235383   8.823   1.027   9.493  1.3446  0.9438 -0.6447
 3730TIP3   OH235384   0.722   0.243   9.114 -0.7176  0.7194  0.0981
 3730TIP3    H135385   0.742   0.302   9.187 -0.0902 -0.4349  0.8884
 3730TIP3    H235386   0.633   0.265   9.089 -1.8550 -0.4080  2.7874
 3731TIP3   OH235387   7.292   0.843   9.720  0.1718  0.2613 -0.0366
 3731TIP3    H135388   7.299   0.783   9.794  0.7970  1.1116  0.6138
 3731TIP3    H235389   7.340   0.800   9.649 -0.1495 -0.4071  0.1407
 3732TIP3   OH235390   1.056   3.867  10.080  0.2575 -0.0962  0.0969
 3732TIP3    H135391   1.128   3.825  10.033  0.5075  0.2037  0.2083
 3732TIP3    H235392   1.004   3.794  10.114 -0.9139 -0.3817 -2.0879
 3733TIP3   OH235393   2.315   2.559  10.563 -0.2314  0.1880  1.0318
 3733TIP3    H135394   2.334   2.534  10.654  0.7656 -1.4709  0.4020
 3733TIP3    H235395   2.370   2.502  10.510 -0.2196  1.6494 -0.6225
 3734TIP3   OH235396   7.986   5.382  11.367  0.4049  0.5471 -0.0613
 3734TIP3    H135397   8.036   5.301  11.379 -1.4651 -0.6500  0.1053
 3734TIP3    H235398   8.049   5.444  11.331  1.8346 -1.0653 -0.4749
 3735TIP3   OH235399   6.973   5.348  10.975 -0.0218 -0.4041 -0.0406
 3735TIP3    H135400   7.035   5.353  11.047 -0.3027 -1.2449  0.2767
 3735TIP3    H235401   7.002   5.274  10.922 -2.0987 -2.4237  1.4628
 3736TIP3   OH235402   1.841   8.040  10.307  0.0513  0.0328  0.8070
 3736TIP3    H135403   1.769   8.071  10.362  0.2073 -1.4385  1.8974
 3736TIP3    H235404   1.908   8.012  10.369  0.4776 -1.1028 -0.1438
 3737TIP3   OH235405   0.275   0.909  11.033  0.1782 -0.4708  0.2280
 3737TIP3    H135406   0.339   0.980  11.025  0.6818 -0.9618 -0.1800
 3737TIP3    H235407   0.228   0.929  11.114  0.3365  0.3065  0.1400
 3738TIP3   OH235408   2.006   7.259  10.412  0.1474 -0.5952  0.0181
 3738TIP3    H135409   2.046   7.311  10.482 -0.2458 -1.5604  0.9789
 3738TIP3    H235410   1.942   7.318  10.372  1.2242  0.3692 -0.3614
 3739TIP3   OH235411   2.541   6.666  10.319 -0.4663 -0.2942 -0.0723
 3739TIP3    H135412   2.510   6.644  10.231 -0.0933 -0.7317 -0.0988
 3739TIP3    H235413   2.627   6.705  10.305 -0.5814  0.0113  0.0713
 3740TIP3   OH235414   3.275   7.676  10.614 -0.0384  0.2406 -0.0931
 3740TIP3    H135415   3.252   7.758  10.656 -0.7911  0.5589 -1.0871
 3740TIP3    H235416   3.298   7.700  10.524 -0.2723 -0.6298 -0.3995
 3741TIP3   OH235417   5.307   8.793   9.967  0.5147  0.7199 -0.2146
 3741TIP3    H135418   5.307   8.886   9.991 -0.4771  1.0486 -1.3701
 3741TIP3    H235419   5.399   8.768   9.967  0.7771  1.6408  0.3230
 3742TIP3   OH235420   6.579   1.636  10.181  0.1486  0.1313  0.6821
 3742TIP3    H135421   6.511   1.569  10.183 -0.2625  0.5463  0.9340
 3742TIP3    H235422   6.544   1.706  10.236  1.5406 -0.3553  2.2487
 3743TIP3   OH235423   9.107   2.738   9.713  0.1307  0.1707  0.3413
 3743TIP3    H135424   9.022   2.752   9.671 -0.5298 -1.5334  1.0243
 3743TIP3    H235425   9.152   2.822   9.704 -0.5416  0.3308 -2.4334
 3744TIP3   OH235426   6.866   8.622  10.202  0.3268  0.1143  0.9099
 3744TIP3    H135427   6.847   8.687  10.135  1.2233 -0.0665  0.4616
 3744TIP3    H235428   6.788   8.620  10.257  0.1367  1.2909  0.7042
 3745TIP3   OH235429   6.228   1.239  11.024  0.3225  0.2896  0.2517
 3745TIP3    H135430   6.197   1.327  11.001 -1.9844 -1.3266 -3.6704
 3745TIP3    H235431   6.296   1.220  10.959  0.0048 -1.2544  0.3371
 3746TIP3   OH235432   2.052   3.654  11.258  0.1829  0.4800 -0.0970
 3746TIP3    H135433   2.147   3.650  11.251  0.3949 -0.1888  2.2888
 3746TIP3    H235434   2.028   3.575  11.307 -2.0181 -1.2375 -3.5874
 3747TIP3   OH235435   9.000   0.978  11.101  0.2306  0.2035 -0.5977
 3747TIP3    H135436   9.067   1.046  11.093  1.2808 -0.5523  1.1104
 3747TIP3    H235437   9.019   0.917  11.030  1.4940 -0.0797 -0.0434
 3748TIP3   OH235438   6.621   1.627  10.682 -0.1047  0.0413  0.2582
 3748TIP3    H135439   6.557   1.693  10.656 -0.1628  0.7216  1.9807
 3748TIP3    H235440   6.704   1.674  10.683  0.0923 -0.3016  0.0532
 3749TIP3   OH235441   8.178   3.166  10.579  0.4854  0.0535 -0.1909
 3749TIP3    H135442   8.131   3.152  10.661 -0.0479  1.5214 -0.2321
 3749TIP3    H235443   8.248   3.100  10.581 -0.3832 -0.8821  0.7572
 3750TIP3   OH235444   0.471   2.938   9.859 -0.0589  0.1645  0.7722
 3750TIP3    H135445   0.511   2.997   9.794 -0.0622  1.2121  1.6921
 3750TIP3    H235446   0.476   2.851   9.818 -0.1262  0.7984 -0.6625
 3751TIP3   OH235447   3.575   8.596  10.786 -0.4715  0.2610 -0.3496
 3751TIP3    H135448   3.645   8.583  10.722  0.8948  4.5285 -0.0457
 3751TIP3    H235449   3.611   8.564  10.868  1.4227  2.6007 -0.1502
 3752TIP3   OH235450   9.127   2.991   9.277  0.7102  0.2333 -0.0428
 3752TIP3    H135451   9.174   3.071   9.298  1.9489 -0.3775 -0.4143
 3752TIP3    H235452   9.189   2.921   9.295 -0.3372 -0.6509  0.2354
 3753TIP3   OH235453   7.398   4.795   9.932  0.0839 -0.2480  0.0984
 3753TIP3    H135454   7.416   4.825   9.843 -1.1255  0.8336  0.1962
 3753TIP3    H235455   7.429   4.704   9.933 -0.1053 -0.3574 -1.4852
 3754TIP3   OH235456   4.541   3.288  10.489  0.3968 -0.3447 -0.0967
 3754TIP3    H135457   4.485   3.362  10.513  1.9057  0.5065  0.9180
 3754TIP3    H235458   4.620   3.299  10.541  0.1168 -3.4754  1.2222
 3755TIP3   OH235459   4.699   5.064  11.001 -0.0381 -0.0305  0.3186
 3755TIP3    H135460   4.619   5.116  11.002  0.3630  0.6826  2.7008
 3755TIP3    H235461   4.686   4.998  11.069  1.0379 -0.4766  0.1204
 3756TIP3   OH235462   2.484   5.101   9.845 -0.2200 -0.1190  0.7042
 3756TIP3    H135463   2.513   5.016   9.813 -1.3544 -0.4965  0.6379
 3756TIP3    H235464   2.503   5.162   9.774  0.2314 -0.3904  0.5929
 3757TIP3   OH235465   6.626   0.713  10.633 -0.2523  0.1270 -0.2046
 3757TIP3    H135466   6.536   0.741  10.647 -0.4962 -0.9641  0.5403
 3757TIP3    H235467   6.669   0.788  10.592 -1.8377  0.1734 -1.8606
 3758TIP3   OH235468   1.599   8.094  10.139  0.2260  0.6107 -0.1775
 3758TIP3    H135469   1.616   8.157  10.208 -0.7395 -0.0763  0.7167
 3758TIP3    H235470   1.686   8.064  10.111  0.6338  1.2364  0.4066
 3759TIP3   OH235471   8.989   1.436   9.843  0.4460  0.3046 -0.6043
 3759TIP3    H135472   8.964   1.518   9.886  2.1125  0.7155 -0.3226
 3759TIP3    H235473   9.056   1.399   9.901 -0.7113 -1.6017 -0.4066
 3760TIP3   OH235474   6.224   4.189  10.915  0.0652  0.5152  0.0637
 3760TIP3    H135475   6.226   4.284  10.904  2.4200  0.9895  3.1181
 3760TIP3    H235476   6.192   4.175  11.004 -1.5058 -1.6905 -0.7574
 3761TIP3   OH235477   7.022   6.779  10.777 -0.2446  0.1372  0.6515
 3761TIP3    H135478   7.099   6.784  10.719  0.0434 -2.5362  0.6687
 3761TIP3    H235479   7.010   6.868  10.808  2.8158  0.6999  0.5806
 3762TIP3   OH235480   8.147   7.053  10.962 -0.6518  0.4450  0.4573
 3762TIP3    H135481   8.240   7.053  10.984 -0.7640 -1.1503  1.1117
 3762TIP3    H235482   8.111   6.980  11.012 -1.5509 -1.3589 -2.5163
 3763TIP3   OH235483   2.792   0.177  10.447 -0.3212 -0.3906 -0.0996
 3763TIP3    H135484   2.822   0.219  10.367 -1.3089 -0.6584 -0.6330
 3763TIP3    H235485   2.780   0.085  10.423  0.4948 -0.7088  0.6792
 3764TIP3   OH235486   8.094   7.227   9.317  0.7126  0.0808  0.0766
 3764TIP3    H135487   8.160   7.287   9.280  0.2635  0.0560 -0.7962
 3764TIP3    H235488   8.115   7.142   9.277  1.2923 -0.3483  1.2408
 3765TIP3   OH235489   8.750   4.186  10.797  0.9773  0.2469  0.2960
 3765TIP3    H135490   8.725   4.272  10.829  0.3174 -0.3709  1.5442
 3765TIP3    H235491   8.675   4.157  10.745 -0.4973 -1.0215  2.8835
 3766TIP3   OH235492   7.847   2.581   9.956  0.6339  0.0096 -0.3834
 3766TIP3    H135493   7.777   2.603   9.895  2.1615 -0.7658 -2.5321
 3766TIP3    H235494   7.823   2.494   9.989 -0.1730  0.4099  0.1213
 3767TIP3   OH235495   5.447   6.300  10.154  0.0342  0.4647  0.1683
 3767TIP3    H135496   5.538   6.329  10.161  0.3205 -0.1688 -0.6942
 3767TIP3    H235497   5.454   6.205  10.145 -0.5193  0.6140 -2.6687
 3768TIP3   OH235498   0.080   3.155   9.426  0.0082  0.6054 -0.5803
 3768TIP3    H135499   0.096   3.243   9.393  0.7873  0.7869  0.2430
 3768TIP3    H235500   0.060   3.166   9.518  0.3565 -0.0923 -0.4085
 3769TIP3   OH235501   7.127   0.797  11.041  0.3062  0.4035  0.4609
 3769TIP3    H135502   7.188   0.737  10.998 -1.0806 -0.2934 -0.6017
 3769TIP3    H235503   7.071   0.741  11.095 -1.6533  0.5326 -1.3206
 3770TIP3   OH235504   3.951   1.734  10.964  0.1088 -0.3426  0.5449
 3770TIP3    H135505   3.907   1.766  10.885  0.9017 -0.6857 -0.0523
 3770TIP3    H235506   4.034   1.699  10.932  2.0417  2.6485  1.9284
 3771TIP3   OH235507   6.834   0.418  10.233  0.2067  0.8239 -0.2221
 3771TIP3    H135508   6.872   0.400  10.147  2.1410  0.0230  0.7345
 3771TIP3    H235509   6.894   0.377  10.295 -1.6368  0.5462  1.4900
 3772TIP3   OH235510   5.202   0.344  11.318 -0.9049 -0.3260  0.0766
 3772TIP3    H135511   5.249   0.314  11.396  0.5392  0.3639 -0.5005
 3772TIP3    H235512   5.259   0.320  11.245 -1.4783  0.4620 -0.6465
 3773TIP3   OH235513   9.029   0.274  10.952  0.2207  0.5683 -0.2095
 3773TIP3    H135514   8.994   0.325  11.025  0.1240  1.0194 -0.5665
 3773TIP3    H235515   8.963   0.207  10.935  0.8585 -0.4001  0.9931
 3774TIP3   OH235516   7.352   3.936   9.666 -0.2642  0.1704 -0.1364
 3774TIP3    H135517   7.286   3.987   9.619 -1.5467 -0.6217  0.7628
 3774TIP3    H235518   7.379   3.869   9.603 -1.9846 -0.8932  0.1923
 3775TIP3   OH235519   4.960   6.016  11.309 -0.3975  0.7292  0.0167
 3775TIP3    H135520   4.942   6.031  11.216  0.3007  0.1648 -0.2173
 3775TIP3    H235521   4.875   5.992  11.346 -0.6897  1.0031 -0.4654
 3776TIP3   OH235522   0.266   3.213  10.043  0.0391 -0.0586 -0.4144
 3776TIP3    H135523   0.253   3.305  10.067  0.5705  0.1270 -0.8399
 3776TIP3    H235524   0.196   3.167  10.090 -0.8280  0.6693 -0.9683
 3777TIP3   OH235525   7.818   4.607  10.053 -0.1018 -0.1253  0.0620
 3777TIP3    H135526   7.906   4.644  10.054 -0.0659 -0.1997 -0.2207
 3777TIP3    H235527   7.830   4.515  10.076 -0.3766  0.3939  2.4942
 3778TIP3   OH235528   4.678   0.688   9.515 -0.0537 -0.1141  0.1315
 3778TIP3    H135529   4.726   0.664   9.594  1.4728  1.4880 -0.2397
 3778TIP3    H235530   4.675   0.608   9.463  0.2528 -0.8086  1.1642
 3779TIP3   OH235531   2.141   0.619  10.769  1.0582 -0.0698  0.5176
 3779TIP3    H135532   2.192   0.562  10.826  1.9409  1.3301  1.1826
 3779TIP3    H235533   2.050   0.592  10.783  1.4358 -1.1762  0.9426
 3780TIP3   OH235534   2.389   1.654   9.303  0.1218  0.0222  0.9498
 3780TIP3    H135535   2.322   1.721   9.316  0.8520  0.7954  0.7651
 3780TIP3    H235536   2.340   1.571   9.308 -0.7381  0.5390  1.4990
 3781TIP3   OH235537   1.851   4.629  10.165 -0.5341  0.3012  0.0038
 3781TIP3    H135538   1.873   4.542  10.133  0.4530  1.1232 -1.6808
 3781TIP3    H235539   1.773   4.654  10.115 -1.9959 -0.3314  1.8638
 3782TIP3   OH235540   7.708   3.756  10.482  0.1421  0.2224  0.5793
 3782TIP3    H135541   7.688   3.691  10.414  1.5126  1.2118 -0.8317
 3782TIP3    H235542   7.797   3.734  10.510  1.0201  2.0457 -0.6341
 3783TIP3   OH235543   6.436   8.969   9.284  0.5600 -0.4030 -0.3466
 3783TIP3    H135544   6.367   8.977   9.350 -1.6036 -2.4728 -2.1805
 3783TIP3    H235545   6.406   9.022   9.210  1.4489 -0.5292 -0.8200
 3784TIP3   OH235546   8.680   8.932  10.537 -0.0697  1.3620 -0.3137
 3784TIP3    H135547   8.613   8.994  10.508 -0.3600  0.2179 -2.3269
 3784TIP3    H235548   8.635   8.847  10.537  1.2681  0.6013 -1.4880
 3785TIP3   OH235549   4.406   2.478   9.753 -0.3101  0.0857 -0.1296
 3785TIP3    H135550   4.484   2.515   9.712  0.4802 -1.3777 -0.0171
 3785TIP3    H235551   4.351   2.450   9.679 -0.8100  1.2057 -0.2100
 3786TIP3   OH235552   1.680   2.867  10.121 -0.0138 -0.1813 -0.2523
 3786TIP3    H135553   1.720   2.781  10.106 -2.9781 -1.8349  0.6204
 3786TIP3    H235554   1.716   2.895  10.206 -0.0566 -1.2216  0.1254
 3787TIP3   OH235555   7.690   0.934  10.967 -0.4100 -0.0390  0.1415
 3787TIP3    H135556   7.702   1.028  10.979 -0.3570 -0.0738  0.3535
 3787TIP3    H235557   7.611   0.912  11.016 -2.0029  0.3743 -2.0785
 3788TIP3   OH235558   2.239   8.659  10.794  0.1839  0.9016  0.0365
 3788TIP3    H135559   2.188   8.580  10.811 -0.0089  1.1376  0.5777
 3788TIP3    H235560   2.182   8.731  10.822 -0.8404  1.4566 -3.0567
 3789TIP3   OH235561   5.722   6.083  10.648 -0.1854  0.0944  0.1508
 3789TIP3    H135562   5.667   6.106  10.574 -2.0308 -2.2493  0.6417
 3789TIP3    H235563   5.665   6.095  10.725  0.8426  0.0685  0.9414
 3790TIP3   OH235564   2.143   6.966  10.868  0.4243  0.3662  0.0412
 3790TIP3    H135565   2.232   6.983  10.899 -0.2857 -0.7696  3.0099
 3790TIP3    H235566   2.112   6.895  10.923 -1.1402 -1.8152 -3.3103
 3791TIP3   OH235567   7.470   3.045  10.451 -0.9466  0.5704  0.4887
 3791TIP3    H135568   7.440   3.001  10.371 -3.0494  0.8494  1.0568
 3791TIP3    H235569   7.452   3.138  10.435  1.6306  1.0508  0.0643
 3792TIP3   OH235570   4.406   8.354   9.853 -0.1008 -0.1508 -0.6547
 3792TIP3    H135571   4.357   8.311   9.922  1.4879  0.3300  0.8449
 3792TIP3    H235572   4.361   8.330   9.772 -1.2975 -1.7147  0.4333
 3793TIP3   OH235573   7.468   6.607  10.399 -0.2975  0.4806  0.1845
 3793TIP3    H135574   7.542   6.569  10.447 -1.4572 -1.7205  0.3164
 3793TIP3    H235575   7.454   6.549  10.325 -1.7574  0.9931  0.0209
 3794TIP3   OH235576   8.948   5.070  11.149  0.3360  0.1872 -0.4331
 3794TIP3    H135577   8.905   5.039  11.229  0.0004  3.0377  0.6341
 3794TIP3    H235578   8.905   5.153  11.130  3.6627  2.0196 -0.7155
 3795TIP3   OH235579   2.191   1.361  10.248 -0.1261  0.5544  0.1359
 3795TIP3    H135580   2.188   1.312  10.330 -3.5325  1.5973  0.8072
 3795TIP3    H235581   2.269   1.328  10.203 -1.9571 -5.4966  0.4761
 3796TIP3   OH235582   1.181   0.645  10.717 -0.3891 -0.3209  0.0658
 3796TIP3    H135583   1.276   0.649  10.709 -0.3018 -1.5342  0.3443
 3796TIP3    H235584   1.152   0.605  10.635 -0.5307 -1.3258  0.5992
 3797TIP3   OH235585   5.031   1.156  10.024 -0.1267  0.0075 -0.8193
 3797TIP3    H135586   5.034   1.081  10.083 -0.9047  1.6443  1.4007
 3797TIP3    H235587   4.938   1.166  10.003 -0.0062  0.2832 -1.2314
 3798TIP3   OH235588   3.269   8.337  10.773  0.5797  0.2359  0.6514
 3798TIP3    H135589   3.320   8.413  10.746  2.7080 -1.6503 -0.9825
 3798TIP3    H235590   3.326   8.288  10.831 -0.6039 -0.3498  1.3729
 3799TIP3   OH235591   1.163   1.950  10.931 -1.0144  1.0143 -0.2320
 3799TIP3    H135592   1.105   1.978  11.002 -2.0018  0.3472 -0.7579
 3799TIP3    H235593   1.105   1.908  10.867  0.2396 -1.3784  0.0867
 3800TIP3   OH235594   8.223   2.589  10.995 -0.5488 -0.1741 -0.2203
 3800TIP3    H135595   8.129   2.607  10.998 -0.3497  1.2046 -1.1967
 3800TIP3    H235596   8.259   2.662  10.944  0.8913 -1.3230 -0.8946
 3801TIP3   OH235597   4.583   6.394  11.054 -0.2627  0.4111 -0.0355
 3801TIP3    H135598   4.493   6.413  11.026 -0.4816 -1.2990 -0.6712
 3801TIP3    H235599   4.638   6.443  10.993 -0.7757  0.3621 -0.5562
 3802TIP3   OH235600   7.948   4.681   9.781  0.4112  0.1323  0.2125
 3802TIP3    H135601   7.988   4.710   9.863  0.0951  0.7432  0.1544
 3802TIP3    H235602   7.884   4.749   9.760  0.6517  0.0998 -0.6594
 3803TIP3   OH235603   5.198   7.757  11.133  0.7383  0.8584 -0.4701
 3803TIP3    H135604   5.257   7.693  11.092  2.6695  0.3046  2.8152
 3803TIP3    H235605   5.251   7.836  11.140  1.4822  0.2313  2.9164
 3804TIP3   OH235606   4.941   6.829   9.892 -0.4860  0.4717  0.0889
 3804TIP3    H135607   4.973   6.860   9.807 -0.1062 -0.1351  0.0054
 3804TIP3    H235608   4.936   6.734   9.882 -3.5146  0.5587 -0.3534
 3805TIP3   OH235609   1.721   0.755  10.313 -0.0342  0.0526 -0.3511
 3805TIP3    H135610   1.789   0.783  10.251  0.0622  0.8342  0.1031
 3805TIP3    H235611   1.747   0.666  10.338  0.6062  0.2001 -0.4733
 3806TIP3   OH235612   8.929   2.376   9.923 -0.5236  0.2637  0.0243
 3806TIP3    H135613   8.925   2.323  10.003 -0.3380 -0.1524 -0.2383
 3806TIP3    H235614   8.892   2.461   9.949 -0.0956  0.2668  0.6604
 3807TIP3   OH235615   7.891   6.096  10.177  0.0167  0.1400  0.5315
 3807TIP3    H135616   7.850   6.011  10.160 -1.8542  0.4369  3.0159
 3807TIP3    H235617   7.858   6.153  10.107 -1.3004 -0.4192  0.6720
 3808TIP3   OH235618   1.003   0.048  10.869  0.2431  0.3076  0.3615
 3808TIP3    H135619   1.045   0.109  10.930 -0.2248 -0.1198  1.1442
 3808TIP3    H235620   1.051  -0.034  10.880  1.8476  0.8976 -1.7992
 3809TIP3   OH235621   3.888   8.059   9.761 -0.3853 -0.2948  0.1815
 3809TIP3    H135622   3.814   8.017   9.805 -0.2985 -0.1617  0.4553
 3809TIP3    H235623   3.892   8.016   9.675 -2.1957  1.2058 -0.7348
 3810TIP3   OH235624   1.452   7.491   9.642  0.0736  0.2821 -0.5945
 3810TIP3    H135625   1.547   7.477   9.636 -0.0107 -0.9817  0.6884
 3810TIP3    H235626   1.442   7.586   9.635  1.2891  0.3437 -2.2535
 3811TIP3   OH235627   2.225   4.663  10.397  0.0823 -0.1253  0.1566
 3811TIP3    H135628   2.307   4.707  10.377  0.1338 -0.3792 -0.1909
 3811TIP3    H235629   2.239   4.572  10.372 -0.6288  0.0209 -0.8513
 3812TIP3   OH235630   6.075   1.436   9.597  0.3798  0.0121 -0.4953
 3812TIP3    H135631   6.014   1.447   9.524 -0.6335 -0.2630  0.2870
 3812TIP3    H235632   6.153   1.485   9.571 -0.5903  1.3187 -1.0495
 3813TIP3   OH235633   4.176   6.012   9.405  0.3100  0.3638  0.1914
 3813TIP3    H135634   4.194   6.073   9.477 -0.8587 -0.2402  1.0309
 3813TIP3    H235635   4.201   5.926   9.440 -2.6698 -0.3225  0.9173
 3814TIP3   OH235636   3.790   0.133  10.497 -0.2493 -0.2981  0.2706
 3814TIP3    H135637   3.810   0.220  10.463 -1.3726 -0.1084  0.0461
 3814TIP3    H235638   3.799   0.141  10.592 -0.6388  0.1496  0.2710
 3815TIP3   OH235639   1.548   2.339  10.044  0.0021  0.4630 -0.3068
 3815TIP3    H135640   1.546   2.300   9.956 -0.9684  2.3455 -1.1602
 3815TIP3    H235641   1.496   2.278  10.097  1.4482 -1.2494 -0.7357
 3816TIP3   OH235642   8.916   8.966   9.079 -0.0991  0.1426 -0.4025
 3816TIP3    H135643   9.001   8.976   9.122 -0.2445  0.1565 -0.1159
 3816TIP3    H235644   8.872   8.896   9.127 -0.6549  0.8218  0.1018
 3817TIP3   OH235645   0.707   3.199  10.367  0.1525 -0.0794  0.1522
 3817TIP3    H135646   0.788   3.179  10.319 -0.2057  0.5513 -0.7446
 3817TIP3    H235647   0.637   3.185  10.304 -0.4578 -0.5983  0.9169
 3818TIP3   OH235648   5.566   5.885   9.694 -0.1206  0.3320 -0.0349
 3818TIP3    H135649   5.655   5.866   9.664  0.0718  1.6921 -0.3666
 3818TIP3    H235650   5.510   5.841   9.630  0.2944 -0.4401  0.1142
 3819TIP3   OH235651   2.777   2.957  10.551 -0.3449 -0.1564 -0.1601
 3819TIP3    H135652   2.705   3.005  10.591 -0.5618 -0.9875  0.4649
 3819TIP3    H235653   2.842   2.947  10.621 -0.1958 -0.5670 -0.3525
 3820TIP3   OH235654   8.799   0.613   8.823  0.1583 -0.0098 -0.1324
 3820TIP3    H135655   8.731   0.673   8.854 -1.5910 -1.6948 -0.5230
 3820TIP3    H235656   8.859   0.606   8.897 -1.4895 -0.4351  1.2517
 3821TIP3   OH235657   7.484   8.796  10.064 -0.1667 -0.1161  0.1330
 3821TIP3    H135658   7.476   8.771   9.972  1.8212  1.3086 -0.4917
 3821TIP3    H235659   7.529   8.880  10.063 -0.8174  0.3321  2.3986
 3822TIP3   OH235660   5.564   1.155  10.051  0.5706 -0.0372  0.1804
 3822TIP3    H135661   5.629   1.225  10.043  0.5858 -0.1362 -0.6532
 3822TIP3    H235662   5.493   1.182   9.993 -1.2594  1.2775  2.8494
 3823TIP3   OH235663   7.688   2.654  11.008  0.0770  0.2577 -0.5139
 3823TIP3    H135664   7.756   2.628  10.946  1.2402  0.3675  0.6609
 3823TIP3    H235665   7.620   2.587  11.000  1.3994 -1.2031 -0.0601
 3824TIP3   OH235666   8.051   4.101   9.411 -0.5459  0.1796 -0.1996
 3824TIP3    H135667   8.126   4.140   9.367 -0.1751  0.5338  0.7058
 3824TIP3    H235668   8.059   4.007   9.396  0.1481  0.2070 -0.0142
 3825TIP3   OH235669   1.768   8.665   9.722  0.0715  0.1906 -0.7165
 3825TIP3    H135670   1.760   8.682   9.816  2.8495 -1.0000 -0.1569
 3825TIP3    H235671   1.762   8.751   9.681 -0.1842  0.8422  0.6408
 3826TIP3   OH235672   5.892   0.264   9.208  0.5228  0.2448  0.2676
 3826TIP3    H135673   5.937   0.331   9.260  0.7046  0.7458 -0.5121
 3826TIP3    H235674   5.962   0.205   9.179  0.6236  0.7257 -0.5072
 3827TIP3   OH235675   1.899   5.775  10.293  0.0037 -0.6468  0.1905
 3827TIP3    H135676   1.964   5.713  10.260 -1.1791 -1.8194 -0.0124
 3827TIP3    H235677   1.839   5.787  10.219 -0.0385  0.4031  0.3819
 3828TIP3   OH235678   1.193   5.756  10.383 -0.3729 -0.3553 -0.7671
 3828TIP3    H135679   1.278   5.724  10.352 -1.0596 -2.2778 -0.8029
 3828TIP3    H235680   1.135   5.680  10.378 -2.1395  0.9213 -0.8088
 3829TIP3   OH235681   1.475   0.794  10.211  0.0163  0.4416 -0.5974
 3829TIP3    H135682   1.476   0.828  10.121 -0.8483 -1.4288 -1.3703
 3829TIP3    H235683   1.566   0.769  10.228  0.2796  1.2775 -0.7539
 3830TIP3   OH235684   2.188   4.066  10.897  0.3103  0.1108 -0.2220
 3830TIP3    H135685   2.166   4.026  10.813 -1.5101 -0.5100  0.4982
 3830TIP3    H235686   2.167   3.999  10.962 -0.4980  1.3525  0.8627
 3831TIP3   OH235687   3.410   2.700  10.408 -0.4120  0.1426  0.4344
 3831TIP3    H135688   3.350   2.653  10.466 -0.3488  0.9469  1.1671
 3831TIP3    H235689   3.388   2.792  10.421  1.3523  0.4967  1.1754
 3832TIP3   OH235690   2.835   7.676  10.858 -0.2021 -0.0949 -0.4975
 3832TIP3    H135691   2.858   7.769  10.848 -2.8516  0.4493 -2.7537
 3832TIP3    H235692   2.749   7.677  10.899  0.9429 -1.7827  2.2386
 3833TIP3   OH235693   3.110   0.244  10.503 -0.3584  0.1572  0.3099
 3833TIP3    H135694   3.056   0.209  10.432  1.1415 -0.0722 -0.7719
 3833TIP3    H235695   3.091   0.338  10.503 -2.0107 -0.1364  1.1114
 3834TIP3   OH235696   3.913   4.098  10.971 -0.0493 -0.4878 -0.6144
 3834TIP3    H135697   3.937   4.117  10.880 -1.8217  0.1611 -0.9870
 3834TIP3    H235698   3.974   4.150  11.023 -0.6429  1.1997 -1.5219
 3835TIP3   OH235699   2.376   5.208  10.505  0.2099  0.0600 -0.1210
 3835TIP3    H135700   2.299   5.263  10.501  1.9372  2.6148 -0.6821
 3835TIP3    H235701   2.364   5.154  10.583 -2.2056  0.1641 -0.3684
 3836TIP3   OH235702   7.449   8.759   9.790 -0.2132  0.7755  0.1078
 3836TIP3    H135703   7.519   8.734   9.729 -0.3526  0.9724 -0.1331
 3836TIP3    H235704   7.391   8.814   9.738  0.1600  1.7157  0.6690
 3837TIP3   OH235705   5.102   6.306  10.564 -0.1474  0.0895 -0.2866
 3837TIP3    H135706   5.098   6.401  10.565 -0.3047  0.0818 -0.2665
 3837TIP3    H235707   5.195   6.286  10.577 -0.0913  0.2426 -0.4427
 3838TIP3   OH235708   3.169   5.368   9.459  0.1936 -0.1188 -0.6316
 3838TIP3    H135709   3.081   5.336   9.476  0.4694 -0.5292  0.0639
 3838TIP3    H235710   3.174   5.451   9.506  0.4384 -0.4901  0.0105
 3839TIP3   OH235711   5.216   7.056   9.553 -0.1697  0.4852 -0.0117
 3839TIP3    H135712   5.257   7.143   9.557 -0.0303  0.6055 -2.4502
 3839TIP3    H235713   5.289   6.995   9.547 -0.2857  0.3730 -0.3224
 3840TIP3   OH235714   3.450   6.230  10.946 -0.0993 -0.0930 -0.0157
 3840TIP3    H135715   3.507   6.154  10.961  0.3085  0.0552 -0.7698
 3840TIP3    H235716   3.368   6.206  10.988 -0.1877 -1.2379 -0.7745
 3841TIP3   OH235717   1.264   0.387  10.042 -0.4784  0.3000  0.5863
 3841TIP3    H135718   1.230   0.471  10.011  0.4347  1.7141  3.1041
 3841TIP3    H235719   1.187   0.342  10.078 -0.6937  0.8242  0.7933
 3842TIP3   OH235720   6.353   5.692   9.242 -0.2227 -0.1316 -0.4133
 3842TIP3    H135721   6.368   5.611   9.292  0.1486  1.0967  1.5838
 3842TIP3    H235722   6.272   5.727   9.279  0.3178  1.0551 -0.3338
 3843TIP3   OH235723   0.551   0.857   8.952  0.4429 -0.4103  0.1551
 3843TIP3    H135724   0.474   0.813   8.915  0.3613 -0.0291 -0.1400
 3843TIP3    H235725   0.514   0.932   8.999  0.5780 -0.6659  0.6826
 3844TIP3   OH235726   5.032   6.861   9.637 -0.2644  0.7730 -0.3871
 3844TIP3    H135727   5.102   6.921   9.612  0.4804 -0.3071 -0.9580
 3844TIP3    H235728   5.071   6.774   9.632 -1.8163  0.0805 -1.4008
 3845TIP3   OH235729   6.947   7.623  10.894 -0.1752 -0.0026 -0.4767
 3845TIP3    H135730   6.997   7.690  10.847 -1.2023  0.7397 -0.5588
 3845TIP3    H235731   6.901   7.672  10.963  0.7808 -0.9747  0.8934
 3846TIP3   OH235732   7.544   8.934  10.577 -0.1587 -0.0013  0.1717
 3846TIP3    H135733   7.553   8.994  10.650  0.3723 -0.1870  0.2629
 3846TIP3    H235734   7.604   8.968  10.510 -0.2452 -0.1325  0.0251
 3847TIP3   OH235735   0.079   1.750  10.149 -0.0154  0.8821 -0.6108
 3847TIP3    H135736   0.147   1.799  10.104 -0.3386  0.6321 -1.3908
 3847TIP3    H235737   0.120   1.668  10.175  0.5343  1.5396  0.7187
 3848TIP3   OH235738   8.424   0.911  10.912  0.2684 -0.5116  0.9575
 3848TIP3    H135739   8.436   1.006  10.918  0.8776 -0.5770  0.7887
 3848TIP3    H235740   8.464   0.887  10.828  1.5349 -1.1366  1.7254
 3849TIP3   OH235741   2.510   0.232  10.536  0.2031 -0.1251  0.4176
 3849TIP3    H135742   2.503   0.286  10.457  1.1780  0.6946  0.8718
 3849TIP3    H235743   2.603   0.213  10.544 -0.0923 -1.8062  0.3487
 3850TIP3   OH235744   5.540   0.541  11.208  0.1152  0.1282  0.8304
 3850TIP3    H135745   5.619   0.594  11.207  0.3500 -0.2019  1.5849
 3850TIP3    H235746   5.475   0.593  11.160  0.7382  0.4658  0.3437
 3851TIP3   OH235747   4.870   1.163  10.505 -0.5533  0.0996 -0.2272
 3851TIP3    H135748   4.810   1.089  10.510 -1.7656  1.1147  2.5457
 3851TIP3    H235749   4.814   1.240  10.510  0.7651  1.2010 -1.5103
 3852TIP3   OH235750   0.614   6.094  10.947 -0.0088  0.1050  0.7368
 3852TIP3    H135751   0.666   6.110  10.868  0.0904  1.2495  1.0250
 3852TIP3    H235752   0.646   6.010  10.980  1.8768  0.9155  1.0769
 3853TIP3   OH235753   0.420   5.937  10.715  0.5671  0.4967 -0.8602
 3853TIP3    H135754   0.375   5.960  10.796 -2.3251 -0.7940 -1.9565
 3853TIP3    H235755   0.505   5.902  10.743  0.1736  1.2983  1.4794
 3854TIP3   OH235756   4.460   2.784  10.906  0.0864 -0.0928 -0.0589
 3854TIP3    H135757   4.385   2.842  10.914 -0.0467  0.5199 -3.9681
 3854TIP3    H235758   4.424   2.696  10.916 -0.4716  0.2926  1.5645
 3855TIP3   OH235759   8.614   9.128   9.130  0.8376 -0.3951  0.0554
 3855TIP3    H135760   8.548   9.061   9.111 -0.0545 -0.2269  2.2899
 3855TIP3    H235761   8.695   9.079   9.139  0.9263 -0.7026 -1.8962
 3856TIP3   OH235762   8.016   4.930  10.691 -0.1033  0.3304  0.1419
 3856TIP3    H135763   8.074   4.898  10.622 -0.4491  1.1493 -0.5458
 3856TIP3    H235764   8.070   4.991  10.742 -0.1606  0.5500 -0.0620
 3857TIP3   OH235765   7.982   5.571  10.290  0.0173  0.0067  0.0264
 3857TIP3    H135766   8.044   5.627  10.337 -2.1775  1.4074  1.4376
 3857TIP3    H235767   7.963   5.620  10.210  0.7328 -0.4612 -0.4451
 3858TIP3   OH235768   5.081   4.337   9.935 -0.0877 -0.0970  0.2763
 3858TIP3    H135769   5.005   4.288   9.903  0.6258  0.0893 -1.8944
 3858TIP3    H235770   5.152   4.312   9.876  1.0899  1.1180  1.1234
 3859TIP3   OH235771   6.505   4.182   9.419  0.1984  0.0383 -0.4145
 3859TIP3    H135772   6.521   4.275   9.408 -2.2321  1.2018  3.7363
 3859TIP3    H235773   6.413   4.170   9.392  0.7413 -1.4591 -1.7999
 3860TIP3   OH235774   5.889   2.260  10.031  0.8669  0.2499  0.0724
 3860TIP3    H135775   5.907   2.167  10.021  0.5532  0.2744 -0.8521
 3860TIP3    H235776   5.794   2.268  10.019  1.1545  0.9512 -2.5194
 3861TIP3   OH235777   3.416   0.255   9.959 -0.3510  0.4335  0.0642
 3861TIP3    H135778   3.458   0.312   9.895 -1.1863  1.2755  0.2460
 3861TIP3    H235779   3.475   0.254  10.034  1.5537 -1.9930 -1.3043
 3862TIP3   OH235780   0.101   8.487   9.862  0.4164 -0.4477 -0.3370
 3862TIP3    H135781   0.076   8.578   9.850 -0.4665 -0.5585  0.6119
 3862TIP3    H235782   0.099   8.450   9.773 -1.9433 -0.2325 -0.4202
 3863TIP3   OH235783   4.268   7.729  10.950  0.6899 -0.1304  0.0149
 3863TIP3    H135784   4.190   7.781  10.970  1.1232  0.9984 -1.0914
 3863TIP3    H235785   4.339   7.794  10.943  1.0933 -0.7382 -2.2353
 3864TIP3   OH235786   4.602   7.867   9.873 -0.3684 -0.0081  0.1535
 3864TIP3    H135787   4.635   7.857   9.962 -0.7094 -0.3913  0.2409
 3864TIP3    H235788   4.656   7.807   9.821  0.2011  0.6273  0.0040
 3865TIP3   OH235789   1.970   5.510   9.845  0.1641  0.7575  0.2402
 3865TIP3    H135790   1.968   5.416   9.824 -0.0256  0.5839  1.0172
 3865TIP3    H235791   1.942   5.553   9.764 -2.4541  0.0167  0.6606
 3866TIP3   OH235792   7.902   7.440   9.275 -0.0011  0.6232  0.2296
 3866TIP3    H135793   7.836   7.391   9.323  0.0835 -0.5386 -0.7757
 3866TIP3    H235794   7.982   7.388   9.284  0.7794  1.9287  1.3037
 3867TIP3   OH235795   8.387   2.680   8.991 -0.3390  0.2832  0.6848
 3867TIP3    H135796   8.360   2.615   9.056 -2.3165 -0.6675 -0.9520
 3867TIP3    H235797   8.421   2.628   8.918 -2.8567  0.9058 -1.0684
 3868TIP3   OH235798   5.351   7.500   9.380 -0.4708  0.3429 -0.4095
 3868TIP3    H135799   5.378   7.419   9.338  2.0754 -0.9040  3.1344
 3868TIP3    H235800   5.423   7.561   9.364 -0.8084  0.7870 -0.2460
 3869TIP3   OH235801   2.021   1.006  10.515  0.5746 -0.2814 -0.1916
 3869TIP3    H135802   2.101   0.955  10.500  0.4401 -1.1341  1.7018
 3869TIP3    H235803   1.951   0.941  10.520 -0.0577  0.3477 -0.6010
 3870TIP3   OH235804   7.981   2.145  10.847  0.6544  0.1846  0.4331
 3870TIP3    H135805   7.916   2.203  10.887  0.8466 -0.9642  2.5744
 3870TIP3    H235806   7.989   2.072  10.908  1.4793 -1.3989 -1.4691
 3871TIP3   OH235807   1.596   0.453  10.675 -0.3840 -0.8816  0.2339
 3871TIP3    H135808   1.521   0.408  10.638  0.3698 -1.0529 -1.1532
 3871TIP3    H235809   1.561   0.535  10.711 -1.2163 -0.8931 -0.5285
 3872TIP3   OH235810   6.257   2.727  10.559  0.0549  0.2585 -0.0071
 3872TIP3    H135811   6.335   2.778  10.536  0.7450 -0.5921  0.3548
 3872TIP3    H235812   6.273   2.699  10.650 -0.4132 -0.3790 -0.1116
 3873TIP3   OH235813   8.802   1.513   9.055 -0.4835 -0.0020 -0.6473
 3873TIP3    H135814   8.861   1.587   9.072 -0.7367  0.1611 -0.4629
 3873TIP3    H235815   8.857   1.446   9.015  0.3289 -0.7233  1.5593
 3874TIP3   OH235816   8.990   1.435  10.562  0.0459 -0.3884  0.0943
 3874TIP3    H135817   9.055   1.460  10.496 -0.5618 -0.2691 -0.4704
 3874TIP3    H235818   8.919   1.499  10.552  0.0275 -0.2600  0.9949
 3875TIP3   OH235819   6.133   2.320   9.278 -0.1993 -0.3040 -0.4821
 3875TIP3    H135820   6.206   2.267   9.248  0.1020  0.7758 -1.7451
 3875TIP3    H235821   6.169   2.371   9.351 -0.0872 -0.7487 -0.2211
 3876TIP3   OH235822   3.165   0.073  10.155  0.1343  0.4567 -0.1642
 3876TIP3    H135823   3.219   0.152  10.150  0.0366  0.5886  0.7375
 3876TIP3    H235824   3.174   0.043  10.245 -0.5519 -0.0515 -0.2558
 3877TIP3   OH235825   4.489   7.006  11.118 -0.5085  0.0190  0.2101
 3877TIP3    H135826   4.470   7.100  11.110 -1.9769 -0.2028  0.7500
 3877TIP3    H235827   4.573   7.003  11.163 -0.4703  1.0718  0.2542
 3878TIP3   OH235828   6.427   6.995  10.819  0.4436  0.1441 -0.2240
 3878TIP3    H135829   6.502   7.046  10.850 -0.4419  1.8366 -0.7253
 3878TIP3    H235830   6.356   7.019  10.878  0.3150 -1.6679  0.4357
 3879TIP3   OH235831   4.546   8.597   9.843 -0.6840 -0.4266  0.1296
 3879TIP3    H135832   4.501   8.515   9.862 -1.8167  0.2481  0.4651
 3879TIP3    H235833   4.485   8.665   9.872 -0.2122  0.5574 -1.1166
 3880TIP3   OH235834   8.636   6.135  10.311  0.3617 -0.4111  0.2685
 3880TIP3    H135835   8.687   6.203  10.268  0.1348 -0.1758  0.3652
 3880TIP3    H235836   8.671   6.053  10.276  1.6403 -0.3102  1.2530
 3881TIP3   OH235837   3.947   3.341  10.541  0.8790  0.4048 -0.1948
 3881TIP3    H135838   3.922   3.429  10.566 -0.1877 -0.2439  1.1299
 3881TIP3    H235839   3.907   3.329  10.454  0.9270  1.1756 -0.3290
 3882TIP3   OH235840   8.825   3.951   9.337  0.1427  0.3621  0.2755
 3882TIP3    H135841   8.910   3.929   9.299  0.0936 -0.5396  0.6753
 3882TIP3    H235842   8.834   3.933   9.430 -0.2082  1.1349  0.4662
 3883TIP3   OH235843   8.040   4.185  10.422  0.2335 -0.2985 -0.5023
 3883TIP3    H135844   8.122   4.223  10.455  0.2414  0.5230 -1.4287
 3883TIP3    H235845   8.019   4.237  10.345 -3.0701  1.9913  1.6743
 3884TIP3   OH235846   3.598   6.222   9.717 -0.0483 -0.2639  0.5423
 3884TIP3    H135847   3.613   6.156   9.649 -0.0375  0.4190 -0.1336
 3884TIP3    H235848   3.550   6.175   9.785 -0.0926 -0.9577  0.0526
 3885TIP3   OH235849   0.354   0.356  10.019 -0.1616  0.3360 -0.5770
 3885TIP3    H135850   0.411   0.298   9.970  1.2410  0.8449  0.3826
 3885TIP3    H235851   0.413   0.407  10.075 -1.3841  2.1945 -0.8788
 3886TIP3   OH235852   8.637   1.374  11.238 -0.1001  0.1897  0.2630
 3886TIP3    H135853   8.705   1.320  11.199 -0.8593 -0.1743 -0.6069
 3886TIP3    H235854   8.683   1.451  11.272  1.1870 -1.5365  2.6771
 3887TIP3   OH235855   7.623   2.071   9.770 -0.1760 -0.3741  0.4204
 3887TIP3    H135856   7.655   2.107   9.853  2.3786 -0.0572 -0.6189
 3887TIP3    H235857   7.670   1.988   9.760  2.1325  1.0720 -2.1474
 3888TIP3   OH235858   2.038   8.433  10.465 -0.3075  0.6412  0.2658
 3888TIP3    H135859   2.115   8.488  10.446 -0.4141  0.2113 -1.6046
 3888TIP3    H235860   1.964   8.489  10.444 -0.6058  1.3305  2.8143
 3889TIP3   OH235861   6.575   8.492   9.365  0.1447 -0.2027  0.3485
 3889TIP3    H135862   6.664   8.512   9.338  0.2534 -0.2953  0.6304
 3889TIP3    H235863   6.550   8.416   9.313  0.4001 -0.4618  0.5974
 3890TIP3   OH235864   0.919   0.101   8.672  0.4237 -0.0491 -0.6838
 3890TIP3    H135865   0.985   0.157   8.630  0.3573 -0.0961 -0.8497
 3890TIP3    H235866   0.881   0.051   8.601 -0.4104  0.6138 -0.7253
 3891TIP3   OH235867   3.806   8.278   9.927 -0.3825  0.0980  0.5587
 3891TIP3    H135868   3.806   8.334   9.850 -1.2766  0.7700  1.0298
 3891TIP3    H235869   3.899   8.265   9.947 -0.1374  1.7770  0.6756
 3892TIP3   OH235870   8.143   4.898   9.757  0.0710  0.4988 -0.6169
 3892TIP3    H135871   8.199   4.948   9.698 -0.4502  1.7014 -0.1327
 3892TIP3    H235872   8.059   4.891   9.711  0.1819 -0.0600 -0.7404
 3893TIP3   OH235873   8.669   0.633   9.454 -0.8909  0.5473 -0.5932
 3893TIP3    H135874   8.755   0.622   9.495 -0.7762 -0.1992 -1.0061
 3893TIP3    H235875   8.627   0.703   9.503  0.0889  1.1546 -0.5990
 3894TIP3   OH235876   5.507   5.458  10.015 -0.2497 -0.2475  0.4005
 3894TIP3    H135877   5.480   5.546   9.988  0.6248 -0.0979 -0.0246
 3894TIP3    H235878   5.426   5.408  10.018 -0.6336  0.3108 -0.3571
 3895TIP3   OH235879   0.747   4.434  10.741 -0.0963 -0.1999 -0.2835
 3895TIP3    H135880   0.760   4.528  10.756  0.7211 -0.6785  2.6057
 3895TIP3    H235881   0.822   4.392  10.782 -0.8106 -2.1591 -0.8658
 3896TIP3   OH235882   6.369   5.947  10.765  0.3116 -0.9455 -0.0674
 3896TIP3    H135883   6.378   5.863  10.721  0.8413 -0.3943 -1.0350
 3896TIP3    H235884   6.444   5.999  10.734 -0.8183  0.3963 -0.6612
 3897TIP3   OH235885   6.322   8.436  11.149  0.1618 -0.9745 -0.6956
 3897TIP3    H135886   6.402   8.385  11.166  0.0735 -0.9456 -0.1886
 3897TIP3    H235887   6.324   8.506  11.214 -2.6037 -3.5702  2.5107
 3898TIP3   OH235888   8.002   6.009  10.425  0.0558 -0.4720 -0.1184
 3898TIP3    H135889   8.089   6.039  10.449 -0.6401 -0.1014  2.1042
 3898TIP3    H235890   7.989   6.044  10.337  1.5168  0.8281  0.1331
 3899TIP3   OH235891   1.089   0.584   9.997 -0.2499 -0.6840 -0.1661
 3899TIP3    H135892   1.085   0.670  10.037 -1.4575  1.3270 -4.0909
 3899TIP3    H235893   1.012   0.538  10.031  0.3633 -0.2438  1.9151
 3900TIP3   OH235894   5.686   2.060   9.551  0.2496  0.2044 -0.2584
 3900TIP3    H135895   5.739   2.129   9.509  0.8455  0.8551  1.4315
 3900TIP3    H235896   5.748   1.988   9.564 -0.3182 -0.6099 -1.8188
 3901TIP3   OH235897   7.013   7.034   9.997 -0.0970  0.1065 -0.9232
 3901TIP3    H135898   7.074   7.099   9.963 -1.7029  1.3808 -1.5239
 3901TIP3    H235899   6.974   6.995   9.919 -0.8915  0.1715 -0.5724
 3902TIP3   OH235900   1.704   0.367   9.362  0.0434 -0.1490  0.3796
 3902TIP3    H135901   1.635   0.399   9.303  1.7619 -1.3053 -2.4841
 3902TIP3    H235902   1.669   0.285   9.397 -0.9721  0.5067  0.9734
 3903TIP3   OH235903   3.706   3.447  10.882 -0.0726 -0.4418  0.8302
 3903TIP3    H135904   3.761   3.459  10.959  0.7796  2.4416 -0.0822
 3903TIP3    H235905   3.670   3.534  10.865 -0.7828 -1.1383 -1.6120
 3904TIP3   OH235906   4.698   0.328  10.166 -0.1501 -0.3584  0.5361
 3904TIP3    H135907   4.788   0.326  10.198  0.0790  2.1794  0.2765
 3904TIP3    H235908   4.655   0.254  10.210  1.7375 -0.8896  1.6012
 3905TIP3   OH235909   5.338   7.306   9.591  0.3075  0.0988  0.0308
 3905TIP3    H135910   5.367   7.371   9.654 -0.3433  0.7491 -0.3250
 3905TIP3    H235911   5.343   7.351   9.506 -2.6793  0.6491  0.0307
 3906TIP3   OH235912   2.028   2.316   9.840 -0.0273  0.1689 -0.0021
 3906TIP3    H135913   1.962   2.382   9.818  0.9813  1.5338  0.8611
 3906TIP3    H235914   2.004   2.286   9.927 -0.1437 -0.1672 -0.1487
 3907TIP3   OH235915   8.884   3.518   9.456 -0.1827 -0.0258  0.4534
 3907TIP3    H135916   8.847   3.435   9.425 -0.6556  0.0045  0.9346
 3907TIP3    H235917   8.839   3.536   9.538  0.4178  0.3594  0.7059
 3908TIP3   OH235918   6.780   7.044   9.588  0.6098  0.2561 -0.2329
 3908TIP3    H135919   6.736   7.106   9.529 -2.7081  0.0069  1.7238
 3908TIP3    H235920   6.725   6.966   9.586  3.1251 -1.6256 -0.4230
 3909TIP3   OH235921   1.212   3.901   9.245 -0.4737 -0.2741 -0.0165
 3909TIP3    H135922   1.159   3.961   9.192 -1.4019 -2.5512 -1.8553
 3909TIP3    H235923   1.147   3.844   9.287  0.4206 -1.1822  0.1494
 3910TIP3   OH235924   8.512   6.150   9.969  0.3189  0.1243 -0.1299
 3910TIP3    H135925   8.569   6.194  10.033  0.7451 -1.6117  0.7417
 3910TIP3    H235926   8.573   6.100   9.914 -0.2291 -0.4458 -0.2309
 3911TIP3   OH235927   7.465   1.725   8.867 -0.5638  0.4428  0.4564
 3911TIP3    H135928   7.526   1.692   8.933  0.0140 -0.3624 -0.4467
 3911TIP3    H235929   7.476   1.666   8.793 -2.1166  0.5579  0.0910
 3912TIP3   OH235930   2.213   4.277   9.645 -0.0440 -0.3551  0.0398
 3912TIP3    H135931   2.120   4.296   9.628  0.3147  1.8411  0.2739
 3912TIP3    H235932   2.222   4.184   9.626 -2.8718 -1.2926  2.4509
 3913TIP3   OH235933   4.476   1.143  10.748 -0.2567  0.3087 -0.1294
 3913TIP3    H135934   4.501   1.116  10.836  0.8886  1.5181 -0.0501
 3913TIP3    H235935   4.552   1.191  10.715 -1.1976  1.0958 -1.2387
 3914TIP3   OH235936   5.600   5.253   9.735 -0.4672 -0.0899  0.4467
 3914TIP3    H135937   5.538   5.223   9.802 -2.1193 -0.5794 -1.1985
 3914TIP3    H235938   5.548   5.253   9.655  0.8951  2.4019 -0.4995
 3915TIP3   OH235939   4.885   4.628  10.952  0.0089 -0.5050  0.0163
 3915TIP3    H135940   4.869   4.632  10.858 -2.3686  3.2265  0.3727
 3915TIP3    H235941   4.801   4.602  10.990  0.1946  0.4601  1.1721
 3916TIP3   OH235942   7.256   5.752  10.000 -0.1510 -0.3990 -0.3094
 3916TIP3    H135943   7.287   5.706  10.078 -0.3702 -0.5864 -0.3291
 3916TIP3    H235944   7.241   5.842  10.029  0.6550 -0.2378 -0.3656
 3917TIP3   OH235945   7.592   6.589   9.410 -1.0580  0.0270 -0.3348
 3917TIP3    H135946   7.614   6.533   9.484 -1.9390 -1.2906 -1.0303
 3917TIP3    H235947   7.498   6.580   9.399 -1.0206  0.5817 -1.3127
 3918TIP3   OH235948   7.383   8.507   9.898  0.5050  0.1259  0.3557
 3918TIP3    H135949   7.459   8.453   9.880 -0.9452 -1.5763 -1.1718
 3918TIP3    H235950   7.391   8.580   9.837  0.0526 -1.0252 -1.1656
 3919TIP3   OH235951   7.890   0.438   9.803  0.0018  0.5441  0.1320
 3919TIP3    H135952   7.939   0.371   9.755  2.4735  1.6226  1.0054
 3919TIP3    H235953   7.931   0.441   9.889 -1.8740  1.3000  1.0702
 3920TIP3   OH235954   8.069   5.769  10.722  1.1007 -0.5454 -0.0950
 3920TIP3    H135955   8.100   5.854  10.753  0.4119  0.2010 -1.3543
 3920TIP3    H235956   8.092   5.767  10.629 -1.3256 -0.4906 -0.7810
 3921TIP3   OH235957   3.952   0.343  10.404 -0.2272  0.0221  0.4985
 3921TIP3    H135958   3.980   0.434  10.416  0.1083  0.0335 -0.3110
 3921TIP3    H235959   3.948   0.331  10.309  0.4724 -1.0253  0.5774
 3922TIP3   OH235960   5.381   5.317  11.457 -0.4212 -0.2415  0.0573
 3922TIP3    H135961   5.290   5.292  11.470 -0.3621 -1.1729 -1.1490
 3922TIP3    H235962   5.426   5.235  11.436  0.3752  0.4221 -0.9325
 3923TIP3   OH235963   0.166   5.736  10.605  0.2437 -0.5726 -0.6324
 3923TIP3    H135964   0.238   5.680  10.635 -0.5500 -3.1048 -3.0070
 3923TIP3    H235965   0.133   5.692  10.527 -3.7286  0.6112  0.1784
 3924TIP3   OH235966   0.713   0.319   9.567  0.2955  0.0941  0.2731
 3924TIP3    H135967   0.702   0.227   9.546  1.6296 -0.2162  0.7839
 3924TIP3    H235968   0.720   0.363   9.483 -0.6036 -0.2285  0.0250
 3925TIP3   OH235969   3.589   2.507  10.338 -0.4764 -0.1665  0.1047
 3925TIP3    H135970   3.541   2.584  10.370  0.1613  1.0454 -1.6889
 3925TIP3    H235971   3.522   2.453  10.298 -0.5296  1.2548 -1.8873
 3926TIP3   OH235972   7.941   6.463   9.674 -0.2066  0.2866  0.8268
 3926TIP3    H135973   7.878   6.533   9.689  1.3054  1.3311  2.8386
 3926TIP3    H235974   7.888   6.387   9.651 -1.9319  1.9439 -1.1227
 3927TIP3   OH235975   6.505   0.250  10.139  0.1776 -0.0241  0.7685
 3927TIP3    H135976   6.571   0.263  10.072 -0.9441 -1.9326 -0.8375
 3927TIP3    H235977   6.523   0.317  10.205  1.3456  1.9365 -1.4118
 3928TIP3   OH235978   6.216   3.729  10.004 -0.2736  0.4650  0.0006
 3928TIP3    H135979   6.285   3.788   9.974  0.4650 -0.9380 -1.2314
 3928TIP3    H235980   6.251   3.693  10.086  1.4175 -1.6136 -1.5068
 3929TIP3   OH235981   7.664   7.927  10.164  0.1721 -0.5253 -0.3726
 3929TIP3    H135982   7.633   7.871  10.093 -0.8442 -0.0447 -0.3276
 3929TIP3    H235983   7.722   7.871  10.216 -0.5710 -1.4470 -0.5088
 3930TIP3   OH235984   5.111   2.744  10.852 -0.1141  0.7197 -0.4223
 3930TIP3    H135985   5.042   2.692  10.811 -0.8456  2.7329 -1.9396
 3930TIP3    H235986   5.191   2.696  10.833 -1.0130 -1.8535  1.6643
 3931TIP3   OH235987   0.855   5.865   9.973 -0.1550 -0.1740  0.5892
 3931TIP3    H135988   0.826   5.787  10.021  0.5840 -1.2717 -0.6835
 3931TIP3    H235989   0.881   5.832   9.887  0.7787  1.3895  0.2333
 3932TIP3   OH235990   6.690   3.326  10.517 -0.2287 -0.6537  0.0984
 3932TIP3    H135991   6.660   3.237  10.536 -0.3995 -0.4824  0.6580
 3932TIP3    H235992   6.722   3.359  10.601 -1.0936  0.1634  0.1348
 3933TIP3   OH235993   5.172   5.317  10.939  0.0502 -0.0813  0.0130
 3933TIP3    H135994   5.183   5.412  10.930 -1.6633 -0.0331 -2.4000
 3933TIP3    H235995   5.078   5.305  10.950  0.0194 -1.5783 -1.5562
 3934TIP3   OH235996   6.492   1.099  10.558 -0.7966  0.2551  0.0050
 3934TIP3    H135997   6.463   1.056  10.639 -2.4855 -0.1133 -0.7575
 3934TIP3    H235998   6.470   1.192  10.572 -0.9532  0.2150  0.0323
 3935TIP3   OH235999   0.590   1.747  11.236  0.3600 -0.7242 -0.5267
 3935TIP3    H136000   0.626   1.833  11.258 -0.8858  0.0115 -1.2602
 3935TIP3    H236001   0.667   1.689  11.234  0.8875 -0.3933  3.2372
 3936TIP3   OH236002   5.634   3.190   9.922 -0.0884  0.0564 -0.5333
 3936TIP3    H136003   5.661   3.273   9.884 -1.2197  1.1803  0.9687
 3936TIP3    H236004   5.702   3.128   9.897  0.4743  1.2776 -2.2058
 3937TIP3   OH236005   6.891   5.388  10.032 -0.5175  0.4288 -0.1254
 3937TIP3    H136006   6.917   5.327   9.963 -1.8520 -0.1588 -0.1513
 3937TIP3    H236007   6.965   5.389  10.093 -0.2388 -0.7716 -0.4221
 3938TIP3   OH236008   0.239   4.817  10.604  0.2249  0.0207 -0.3445
 3938TIP3    H136009   0.203   4.857  10.525 -0.2019 -0.2366 -0.2844
 3938TIP3    H236010   0.169   4.825  10.669  0.8424  0.9001  0.2316
 3939TIP3   OH236011   1.618   3.516   9.446 -0.5011  0.2108 -0.2743
 3939TIP3    H136012   1.639   3.610   9.444 -1.6586  0.4911 -0.0421
 3939TIP3    H236013   1.540   3.509   9.391 -1.0674 -0.4504  0.6097
 3940TIP3   OH236014   8.118   2.202   9.171  0.0689 -0.0791 -0.1950
 3940TIP3    H136015   8.116   2.290   9.134 -1.1426 -0.3198 -0.7432
 3940TIP3    H236016   8.195   2.201   9.227 -0.8297  1.8736  1.1705
 3941TIP3   OH236017   2.962   2.035   9.360 -0.7764  0.2440 -0.2666
 3941TIP3    H136018   2.982   2.083   9.280 -1.5095 -0.8841 -1.1535
 3941TIP3    H236019   3.015   1.955   9.354 -0.5188  0.3373  0.5888
 3942TIP3   OH236020   9.070   7.058  10.419  0.4059 -0.7966  0.1086
 3942TIP3    H136021   9.066   6.990  10.351  0.2359 -1.5538  0.8695
 3942TIP3    H236022   9.146   7.111  10.395 -0.9475  0.3431 -1.9762
 3943TIP3   OH236023   3.387   7.111  10.941 -0.4719  0.1866  0.5075
 3943TIP3    H136024   3.386   7.028  10.989 -2.3530 -0.5607 -0.7036
 3943TIP3    H236025   3.298   7.144  10.948  0.0622  1.7510  0.3219
 3944TIP3   OH236026   1.147   7.050  10.323 -0.3432  0.6007  0.3773
 3944TIP3    H136027   1.201   7.129  10.311 -0.4888  0.6747  0.1959
 3944TIP3    H236028   1.090   7.071  10.396  0.6614  0.0879  1.3359
 3945TIP3   OH236029   2.013   5.621   9.582 -0.1118 -0.3549 -0.5387
 3945TIP3    H136030   2.058   5.674   9.516  2.3147 -0.1245  1.1664
 3945TIP3    H236031   2.062   5.538   9.582 -1.8437 -1.4177 -0.9258
 3946TIP3   OH236032   8.566   1.849  10.668 -0.3580  0.1343 -0.0205
 3946TIP3    H136033   8.594   1.789  10.738 -1.3176  1.5113  1.5985
 3946TIP3    H236034   8.524   1.922  10.714 -1.3477  0.9162 -2.0681
 3947TIP3   OH236035   6.640   7.008  10.470 -0.4906 -0.5171  0.3923
 3947TIP3    H136036   6.650   7.062  10.392 -1.8483 -0.3421  0.3183
 3947TIP3    H236037   6.719   7.024  10.521  0.1521 -0.2043 -0.6820
 3948TIP3   OH236038   0.875   8.369  10.821  0.1554 -0.4852  0.0530
 3948TIP3    H136039   0.835   8.282  10.818 -0.6228 -0.1178 -0.7824
 3948TIP3    H236040   0.961   8.358  10.780  0.8728 -1.2472  1.7055
 3949TIP3   OH236041   2.341   7.960  10.189 -0.3878 -0.0704  0.1667
 3949TIP3    H136042   2.318   7.950  10.096 -1.7422 -0.5639  0.5254
 3949TIP3    H236043   2.301   8.044  10.214  0.0997  0.1307  0.2743
 3950TIP3   OH236044   7.402   4.793  11.270 -0.4956  0.5318 -0.8157
 3950TIP3    H136045   7.365   4.737  11.202  2.2334  0.5693 -2.4900
 3950TIP3    H236046   7.495   4.770  11.271 -0.4001  0.5039  3.0252
 3951TIP3   OH236047   8.181   3.904  10.199 -0.5499 -0.1206  0.1181
 3951TIP3    H136048   8.096   3.932  10.234 -1.5169 -1.4459 -1.0783
 3951TIP3    H236049   8.195   3.959  10.122 -0.5832 -0.2713  0.0043
 3952TIP3   OH236050   4.677   4.746  10.708  0.2159  0.1462 -0.2913
 3952TIP3    H136051   4.705   4.837  10.711 -0.8190  0.4574  0.8620
 3952TIP3    H236052   4.584   4.750  10.686 -0.3651 -0.4655  1.7633
 3953TIP3   OH236053   7.797   8.245  10.471 -0.2765  0.0259 -0.0577
 3953TIP3    H136054   7.716   8.292  10.453 -0.4992 -0.2944  0.0921
 3953TIP3    H236055   7.863   8.288  10.416 -0.3419  0.8960  0.5341
 3954TIP3   OH236056   5.076   8.439   9.728 -0.6845  0.1048 -0.4738
 3954TIP3    H136057   5.047   8.507   9.669  0.7153  1.1279 -0.0384
 3954TIP3    H236058   5.145   8.393   9.680  0.8447  1.2873  0.4837
 3955TIP3   OH236059   4.317   4.096   9.903  0.3256 -0.0629 -1.0785
 3955TIP3    H136060   4.390   4.034   9.909 -0.5336 -0.9433  1.6624
 3955TIP3    H236061   4.239   4.040   9.903 -0.4410  0.9658  0.2902
 3956TIP3   OH236062   7.838   2.893   9.867  0.2960 -0.3361  0.3679
 3956TIP3    H136063   7.861   2.804   9.892 -0.4305 -0.3970  0.8567
 3956TIP3    H236064   7.779   2.923   9.937 -0.6848 -0.0214 -0.5652
 3957TIP3   OH236065   4.442   6.402  10.653  0.6267 -0.3712 -0.5687
 3957TIP3    H136066   4.466   6.400  10.560  1.1898 -1.9097 -0.4217
 3957TIP3    H236067   4.407   6.314  10.671 -0.3992  0.2106  0.4571
 3958TIP3   OH236068   5.175   4.392  10.416 -0.3696  0.0328 -0.4989
 3958TIP3    H136069   5.164   4.351  10.330 -0.0634  1.3866 -1.2061
 3958TIP3    H236070   5.108   4.460  10.419  0.0872  0.4675  0.0385
 3959TIP3   OH236071   4.379   2.595  11.299 -0.0130 -0.0657 -0.0712
 3959TIP3    H136072   4.426   2.516  11.325 -1.1590 -0.7678 -0.0498
 3959TIP3    H236073   4.447   2.654  11.266  0.9368 -0.8132  0.4985
 3960TIP3   OH236074   0.676   6.713  10.310  0.6449  0.6108 -0.9848
 3960TIP3    H136075   0.608   6.670  10.259  0.9437  0.2692 -1.0957
 3960TIP3    H236076   0.712   6.779  10.250  0.7222  0.4824 -1.0800
 3961TIP3   OH236077   6.346   8.654  11.334 -0.1523 -0.3038  0.2617
 3961TIP3    H136078   6.379   8.740  11.307  0.2097 -1.0240 -1.8070
 3961TIP3    H236079   6.253   8.657  11.315 -0.2452 -0.1868  0.7239
 3962TIP3   OH236080   2.135   7.274   9.942 -0.2537 -0.4544 -0.3659
 3962TIP3    H136081   2.180   7.204   9.990  0.2960 -1.1514 -1.8498
 3962TIP3    H236082   2.099   7.331  10.011  1.5238 -0.7486  0.8672
 3963TIP3   OH236083   7.518   1.916  11.059 -0.2583  0.2649 -0.4572
 3963TIP3    H136084   7.484   1.873  10.981 -0.2520  3.2966 -2.2652
 3963TIP3    H236085   7.444   1.963  11.096  0.2502  0.6662  0.0833
 3964TIP3   OH236086   7.273   5.182   9.200  0.2894  0.2199  0.7358
 3964TIP3    H136087   7.330   5.106   9.202  0.2385  0.0169 -1.7441
 3964TIP3    H236088   7.330   5.253   9.170 -0.1885  0.6187  0.7611
 3965TIP3   OH236089   2.017   7.024   9.804  0.4652 -0.1721  0.2086
 3965TIP3    H136090   2.106   7.008   9.835  0.6431 -1.4864 -0.8947
 3965TIP3    H236091   2.029   7.055   9.714 -0.0906  2.4899  0.9498
 3966TIP3   OH236092   4.018   7.866  10.878  0.3784 -0.5865  0.1552
 3966TIP3    H136093   3.928   7.849  10.851  1.0158 -1.6269 -1.4294
 3966TIP3    H236094   4.037   7.954  10.846  0.0690 -0.5279  0.1305
 3967TIP3   OH236095   4.715   2.690  11.282  0.3815 -0.2463 -0.4122
 3967TIP3    H136096   4.678   2.611  11.242  1.4871 -0.5411 -0.8916
 3967TIP3    H236097   4.786   2.657  11.338  0.6659  0.3835 -0.3945
 3968TIP3   OH236098   3.533   0.059  10.734 -0.1465 -0.2480  0.0312
 3968TIP3    H136099   3.595   0.124  10.767  0.5342 -0.5312 -0.6443
 3968TIP3    H236100   3.466   0.109  10.690  0.2819  0.0082 -0.3342
 3969TIP3   OH236101   1.942   6.613  10.136 -0.2384  0.1798  0.1167
 3969TIP3    H136102   1.912   6.701  10.113  0.8563  0.5309  0.0206
 3969TIP3    H236103   1.953   6.616  10.231 -0.1934  0.1426  0.1129
 3970TIP3   OH236104   6.307   5.693  11.008 -0.2760  0.1574 -0.2462
 3970TIP3    H136105   6.365   5.769  11.011 -0.6660  0.6984 -3.1078
 3970TIP3    H236106   6.236   5.714  11.068  0.1119  1.6505 -0.2609
 3971TIP3   OH236107   7.086   2.795  11.073 -1.1149 -0.0463 -0.5812
 3971TIP3    H136108   7.141   2.760  11.002  2.0381  1.0454  1.1251
 3971TIP3    H236109   7.063   2.719  11.126  0.9426 -0.3149  0.0138
 3972TIP3   OH236110   7.152   4.464  10.940  0.1305 -0.0149 -0.0367
 3972TIP3    H136111   7.152   4.370  10.952  1.1151 -0.2693 -1.7032
 3972TIP3    H236112   7.061   4.486  10.918 -0.4545 -0.2934  1.8881
 3973TIP3   OH236113   6.918   0.788  10.749  0.3479  0.7198 -0.2106
 3973TIP3    H136114   6.831   0.781  10.789  0.7487  1.2424  0.8000
 3973TIP3    H236115   6.962   0.707  10.774 -0.2873 -0.1956 -1.9038
 3974TIP3   OH236116   6.089   1.264  10.750 -0.1104  0.9941  0.4516
 3974TIP3    H136117   6.150   1.306  10.688  0.7146  0.4263  0.8608
 3974TIP3    H236118   6.003   1.297  10.725  0.3098  1.4288 -0.4612
 3975TIP3   OH236119   5.997   6.576  10.483  0.2712 -0.0424  0.2027
 3975TIP3    H136120   6.062   6.644  10.461  0.3348  0.8534  2.7864
 3975TIP3    H236121   6.050   6.500  10.506  0.3414  0.0596  0.3846
 3976TIP3   OH236122   2.565   1.423   9.966  0.1021  0.1512 -0.1029
 3976TIP3    H136123   2.558   1.369   9.887 -0.2906  0.3117 -0.1777
 3976TIP3    H236124   2.516   1.502   9.946 -2.3048 -0.8886  1.2158
 3977TIP3   OH236125   6.703   8.104  10.994  0.1472  0.7090  0.1195
 3977TIP3    H136126   6.635   8.051  11.035  0.3068  1.2301  1.0924
 3977TIP3    H236127   6.773   8.042  10.975 -0.4223  0.2445 -0.4958
 3978TIP3   OH236128   4.068   2.338  10.174  0.3319  0.6894  0.9615
 3978TIP3    H136129   3.988   2.385  10.198 -0.1454 -0.6964  2.2487
 3978TIP3    H236130   4.110   2.394  10.108 -1.3144  1.7968  0.7925
 3979TIP3   OH236131   0.866   4.781   9.750 -0.0614  0.3049 -0.3050
 3979TIP3    H136132   0.890   4.864   9.709  0.8730  2.0895  3.4398
 3979TIP3    H236133   0.783   4.757   9.709  0.7121  1.8351 -3.0426
 3980TIP3   OH236134   1.571   2.881  10.903  0.3189 -0.2619 -0.1307
 3980TIP3    H136135   1.579   2.961  10.955 -1.9761  1.5230 -2.2595
 3980TIP3    H236136   1.528   2.819  10.962 -0.2585  0.9683  0.8177
 3981TIP3   OH236137   6.621   2.075   9.757 -0.3399 -0.1728 -0.8858
 3981TIP3    H136138   6.650   2.164   9.737 -1.0777 -0.3174 -2.7772
 3981TIP3    H236139   6.527   2.083   9.772 -0.4468 -0.6681 -1.2830
 3982TIP3   OH236140   4.239   4.774  10.082 -0.2753 -0.2429 -0.1310
 3982TIP3    H136141   4.264   4.855  10.038  0.7603 -1.1579 -1.3180
 3982TIP3    H236142   4.219   4.800  10.172  2.5176  0.9880  0.2469
 3983TIP3   OH236143   1.094   5.213  10.758 -0.0909 -0.5076  0.1369
 3983TIP3    H136144   1.046   5.143  10.802 -0.4216  0.4274  1.3122
 3983TIP3    H236145   1.028   5.279  10.737 -0.0743 -1.2002 -2.4661
 3984TIP3   OH236146   0.032   6.369   9.917 -0.2886  0.0746 -0.2092
 3984TIP3    H136147   0.026   6.377  10.012 -0.5996  1.3383 -0.3235
 3984TIP3    H236148   0.097   6.300   9.903  0.1683  0.2604  0.9124
 3985TIP3   OH236149   8.085   0.458  10.886 -0.3497 -0.1041 -0.0334
 3985TIP3    H136150   8.004   0.496  10.852  1.1109  0.4275 -3.3394
 3985TIP3    H236151   8.150   0.528  10.877  0.8286 -1.0176  0.9893
 3986TIP3   OH236152   0.170   8.757   9.930 -0.6553  0.1612 -0.1860
 3986TIP3    H136153   0.189   8.825   9.866  0.2028  0.8647  0.7934
 3986TIP3    H236154   0.255   8.719   9.952 -0.9789 -0.3462  0.2416
 3987TIP3   OH236155   6.831   7.510   9.628  0.1329 -0.0704  0.5792
 3987TIP3    H136156   6.820   7.575   9.697 -2.0433 -2.3187  2.5298
 3987TIP3    H236157   6.758   7.527   9.568  1.7290  1.5559 -1.0226
 3988TIP3   OH236158   3.789   1.707  11.195  0.8471  0.2325  0.3760
 3988TIP3    H136159   3.846   1.716  11.118  0.3516  1.5705  0.1489
 3988TIP3    H236160   3.847   1.672  11.263  1.6583  0.4655 -0.1737
 3989TIP3   OH236161   3.338   0.252  10.636 -0.2612 -0.4831  0.3745
 3989TIP3    H136162   3.255   0.248  10.589 -0.5811  0.5410  0.8288
 3989TIP3    H236163   3.332   0.332  10.688  1.8113  0.7383 -1.1248
 3990TIP3   OH236164   3.194   6.566  10.611 -0.4506 -0.3412 -0.0430
 3990TIP3    H136165   3.235   6.603  10.532  0.8094  1.3650  1.3290
 3990TIP3    H236166   3.254   6.497  10.638  0.5634  0.8463  0.8592
 3991TIP3   OH236167   7.166   8.085  10.088 -0.5007  0.9195  0.6603
 3991TIP3    H136168   7.191   8.139  10.012  0.7504  0.7047  0.8973
 3991TIP3    H236169   7.249   8.063  10.130 -1.2131  1.6101  2.5129
 3992TIP3   OH236170   8.342   0.587  10.788  0.6036  0.0875 -0.0231
 3992TIP3    H136171   8.395   0.557  10.861 -0.7371 -0.4943  0.7594
 3992TIP3    H236172   8.345   0.515  10.725 -1.0609 -0.9607  1.0210
 3993TIP3   OH236173   3.785   6.932  10.172  0.3353  0.1620  0.4074
 3993TIP3    H136174   3.782   7.027  10.182 -0.1261  0.2962 -0.8152
 3993TIP3    H236175   3.815   6.918  10.082 -2.3815 -0.7732 -0.4477
 3994TIP3   OH236176   2.515   0.590  10.855  0.5189  0.6720 -0.2632
 3994TIP3    H136177   2.547   0.609  10.943 -0.4176  0.0235  0.2367
 3994TIP3    H236178   2.447   0.524  10.868 -0.0906  1.0496 -1.4080
 3995TIP3   OH236179   1.774   7.930   9.976 -0.4873  0.8049 -0.9704
 3995TIP3    H136180   1.832   7.995   9.936  1.3050  0.3321  0.7381
 3995TIP3    H236181   1.822   7.848   9.968 -0.8564  0.4169  0.5821
 3996TIP3   OH236182   6.894   8.771  10.763  0.8155  0.5106  0.2136
 3996TIP3    H136183   6.890   8.712  10.687  0.0625  0.8907 -0.0560
 3996TIP3    H236184   6.961   8.836  10.738  0.5796  0.6282 -0.1234
 3997TIP3   OH236185   9.216   6.134  10.282  0.4532 -0.1999  0.7766
 3997TIP3    H136186   9.256   6.089  10.357 -0.2714 -0.9453  0.7301
 3997TIP3    H236187   9.128   6.097  10.276  0.0570  0.7765  0.3338
 3998TIP3   OH236188   2.355   1.194   9.533  0.5481  0.1450  0.5695
 3998TIP3    H136189   2.331   1.273   9.485 -0.2223 -0.7241 -0.5153
 3998TIP3    H236190   2.368   1.127   9.465  0.3861 -0.8711  1.5053
 3999TIP3   OH236191   1.816   1.822  10.774 -0.1380 -0.3379  0.4866
 3999TIP3    H136192   1.778   1.798  10.690  0.5426 -0.4958  0.2216
 3999TIP3    H236193   1.745   1.807  10.837 -1.3879  1.8684 -0.2896
 4000TIP3   OH236194   4.135   3.602  10.844 -0.8551 -0.2087 -0.0336
 4000TIP3    H136195   4.139   3.531  10.908 -2.8280 -0.0373  0.3723
 4000TIP3    H236196   4.173   3.677  10.890 -0.4442 -0.5567  0.2040
 4001TIP3   OH236197   7.717   1.170   9.902 -0.5556 -0.2249 -0.2369
 4001TIP3    H136198   7.716   1.106   9.831 -1.0895 -0.8768  0.3355
 4001TIP3    H236199   7.647   1.141   9.961 -1.1081  1.1628 -0.1874
 4002TIP3   OH236200   0.885   5.372  10.599  0.0297 -0.1824 -0.0116
 4002TIP3    H136201   0.891   5.348  10.506  2.0550 -0.9907  0.2816
 4002TIP3    H236202   0.896   5.467  10.599  1.6730 -0.3486 -0.5124
 4003TIP3   OH236203   1.184   5.606  10.667  0.2120  0.1679 -0.2432
 4003TIP3    H136204   1.177   5.557  10.749  1.8849 -0.4370 -0.4276
 4003TIP3    H236205   1.183   5.698  10.694 -0.7671  0.0124  0.2997
 4004TIP3   OH236206   5.016   1.502   8.965  0.7137  0.0911  0.5538
 4004TIP3    H136207   5.022   1.518   9.059  1.2783 -0.4632  0.6213
 4004TIP3    H236208   5.107   1.510   8.934  0.2547  2.4588 -0.3218
 4005TIP3   OH236209   0.242   5.735   9.659  0.2068 -0.2551 -0.4907
 4005TIP3    H136210   0.187   5.808   9.684  0.7433 -0.5839  1.8770
 4005TIP3    H236211   0.195   5.657   9.689  1.3895 -0.6033  0.5562
 4006TIP3   OH236212   3.304   0.303  10.231 -0.0583  0.0981  0.5861
 4006TIP3    H136213   3.355   0.267  10.304 -2.3022 -1.6440  1.4199
 4006TIP3    H236214   3.305   0.397  10.246  1.4136 -0.0349  1.5601
 4007TIP3   OH236215   9.120   7.331  10.715  0.3106  0.3462 -0.3023
 4007TIP3    H136216   9.099   7.256  10.771  0.1397 -0.8706 -1.9171
 4007TIP3    H236217   9.035   7.370  10.695  0.1790 -0.3034 -1.1049
 4008TIP3   OH236218   4.769   2.245   9.912 -0.2256 -0.4798  0.4518
 4008TIP3    H136219   4.687   2.202   9.887 -0.2712  0.1037 -0.4730
 4008TIP3    H236220   4.768   2.328   9.864  1.5581 -1.0764 -0.7609
 4009TIP3   OH236221   9.188   3.043   9.737 -0.1736  0.4689  0.2065
 4009TIP3    H136222   9.094   3.043   9.718  0.4187  0.2194 -3.6361
 4009TIP3    H236223   9.205   3.132   9.769 -1.3503  1.6617 -2.1499
 4010TIP3   OH236224   6.821   6.499   9.524  0.3960 -0.2098 -0.8403
 4010TIP3    H136225   6.741   6.446   9.530 -0.1954  0.6035 -1.3478
 4010TIP3    H236226   6.816   6.558   9.599 -0.5626  1.2712 -2.0210
 4011TIP3   OH236227   5.658   2.889  10.187 -0.1136 -0.4593 -0.1901
 4011TIP3    H136228   5.664   2.938  10.268 -1.9499  1.6820 -1.2237
 4011TIP3    H236229   5.625   2.803  10.213  0.6468 -0.2894  1.4308
 4012TIP3   OH236230   3.472   0.822  10.286 -0.2196  0.1137  0.1161
 4012TIP3    H136231   3.482   0.862  10.199 -1.0990  1.6195  0.6790
 4012TIP3    H236232   3.559   0.829  10.325 -0.2727  1.1546  0.0592
 4013TIP3   OH236233   7.898   6.022   9.169 -0.0490  0.1248  0.0455
 4013TIP3    H136234   7.896   5.963   9.244 -1.1701 -1.0800 -0.8757
 4013TIP3    H236235   7.946   5.974   9.102 -0.2558  0.5959 -0.4479
 4014TIP3   OH236236   6.328   7.697  10.547  0.1353  0.1208  0.2355
 4014TIP3    H136237   6.308   7.674  10.456 -0.0849  3.4573 -0.6989
 4014TIP3    H236238   6.244   7.727  10.583 -0.1646 -2.6137  2.1971
 4015TIP3   OH236239   8.779   2.267   9.001  0.5475 -0.2592  0.4575
 4015TIP3    H136240   8.824   2.350   9.013  0.4059 -0.3906  2.0689
 4015TIP3    H236241   8.849   2.201   9.003  1.1032 -0.1228 -3.8511
 4016TIP3   OH236242   2.046   8.469  10.772  0.4820 -0.5506  0.2933
 4016TIP3    H136243   1.963   8.515  10.785  0.3190 -0.1323 -1.8513
 4016TIP3    H236244   2.047   8.447  10.679  3.0573 -0.0057  0.1169
 4017TIP3   OH236245   5.904   3.746  11.239  0.6347  0.4035 -0.2095
 4017TIP3    H136246   5.874   3.670  11.190  0.9167  1.0826 -1.4943
 4017TIP3    H236247   5.848   3.817  11.209  1.3265  0.9887 -0.1407
 4018TIP3   OH236248   7.674   4.326   9.952  0.4961  0.4664  0.6029
 4018TIP3    H136249   7.758   4.325   9.998  1.1857 -1.6014 -0.5864
 4018TIP3    H236250   7.611   4.294  10.017  1.1668 -0.8318  0.6516
 4019TIP3   OH236251   5.442   7.219  10.781 -0.3902  1.0037 -0.4700
 4019TIP3    H136252   5.377   7.149  10.794  2.6008 -1.8147  0.7940
 4019TIP3    H236253   5.439   7.269  10.863 -1.0087  0.9599 -0.4574
 4020TIP3   OH236254   0.242   2.541   9.843  0.3019  0.1987  0.1620
 4020TIP3    H136255   0.299   2.517   9.915 -0.9261 -1.8775  0.5359
 4020TIP3    H236256   0.165   2.581   9.885 -0.0454 -0.2393 -0.0432
 4021TIP3   OH236257   6.187   7.712  11.072 -0.2248 -0.2198 -0.3328
 4021TIP3    H136258   6.273   7.725  11.111 -0.6227  1.7970 -0.0098
 4021TIP3    H236259   6.204   7.667  10.989  1.3095  1.5151 -1.0247
 4022TIP3   OH236260   3.570   4.097  10.310  0.0570 -0.3530 -0.1340
 4022TIP3    H136261   3.520   4.021  10.281  0.2802 -0.8004  0.6211
 4022TIP3    H236262   3.650   4.060  10.348  0.6427  0.3139 -0.6874
 4023TIP3   OH236263   9.087   4.765   9.912  0.1037  0.6488 -0.1990
 4023TIP3    H136264   9.003   4.734   9.945 -0.4892  1.8433 -0.5073
 4023TIP3    H236265   9.066   4.802   9.826  1.0781  0.3143 -0.5897
 4024TIP3   OH236266   9.147   8.708  10.097 -0.3091 -0.1802 -0.0303
 4024TIP3    H136267   9.229   8.721  10.049 -0.1036 -0.8460  0.1343
 4024TIP3    H236268   9.163   8.747  10.183  0.2158 -1.2511  0.3739
 4025TIP3   OH236269   0.751   5.221   9.402  0.1953  0.0862  0.4517
 4025TIP3    H136270   0.828   5.224   9.344  0.7694 -0.5892  1.1551
 4025TIP3    H236271   0.788   5.220   9.490 -0.6558  0.5146  0.8266
 4026TIP3   OH236272   4.255   8.350   9.605 -0.5920 -0.5146  0.4616
 4026TIP3    H136273   4.179   8.360   9.548  0.2302  1.5987 -0.3516
 4026TIP3    H236274   4.325   8.321   9.547 -0.8301 -2.9926  1.3029
 4027TIP3   OH236275   7.182   1.881  10.828 -0.3730 -0.5665  0.2578
 4027TIP3    H136276   7.132   1.838  10.760  0.6244  1.3261 -1.7945
 4027TIP3    H236277   7.273   1.859  10.810 -0.1351 -0.6392  1.4431
 4028TIP3   OH236278   7.694   7.820  10.584  0.1170 -0.2874 -0.6440
 4028TIP3    H136279   7.727   7.909  10.602 -0.6794 -0.3566  1.4270
 4028TIP3    H236280   7.773   7.765  10.585  0.3609  0.0172  1.0204
 4029TIP3   OH236281   5.767   2.434  10.826  0.1447  0.4916 -0.1645
 4029TIP3    H136282   5.811   2.418  10.743 -1.2830  1.1168 -1.0971
 4029TIP3    H236283   5.770   2.529  10.837  1.3484  0.3336  1.1253
 4030TIP3   OH236284   8.912   8.597  10.979  0.3522 -0.1382  1.0258
 4030TIP3    H136285   8.958   8.680  10.984  0.6392 -0.3079  1.2256
 4030TIP3    H236286   8.981   8.531  10.975  0.1550 -0.2900 -0.8246
 4031TIP3   OH236287   4.564   0.261   9.668 -0.0575  0.2187 -0.5391
 4031TIP3    H136288   4.583   0.259   9.761  0.7081  1.0450 -0.6643
 4031TIP3    H236289   4.599   0.178   9.634 -1.3712 -0.6265  0.0639
 4032TIP3   OH236290   5.423   6.853   9.477  0.5195 -0.3039 -0.2993
 4032TIP3    H136291   5.460   6.901   9.403 -1.6770 -1.4416 -2.3261
 4032TIP3    H236292   5.452   6.763   9.464 -1.7921 -0.9992 -1.3019
 4033TIP3   OH236293   2.601   1.658   9.089 -0.1253 -0.1782 -0.1123
 4033TIP3    H136294   2.556   1.691   9.011 -0.3801 -0.7079 -0.1906
 4033TIP3    H236295   2.531   1.622   9.143  0.2535 -1.4977 -0.4776
 4034TIP3   OH236296   7.223   2.664  10.854  0.6312 -0.2861 -0.0288
 4034TIP3    H136297   7.262   2.736  10.803 -0.8702 -0.0406 -0.8919
 4034TIP3    H236298   7.169   2.618  10.791 -0.5313 -0.5584  1.1453
 4035TIP3   OH236299   5.502   8.201  10.532 -0.0746  0.1028 -0.0301
 4035TIP3    H136300   5.561   8.137  10.572  1.0010  0.9228 -0.2674
 4035TIP3    H236301   5.554   8.242  10.462 -1.3561 -0.0809 -1.1230
 4036TIP3   OH236302   4.917   8.047  10.750 -0.5064  0.0555 -0.3773
 4036TIP3    H136303   4.949   8.019  10.836  1.7697 -0.7899 -1.4151
 4036TIP3    H236304   4.822   8.041  10.757 -0.3438 -1.8999  1.4772
 4037TIP3   OH236305   1.330   7.765  10.648 -0.6597  0.1066 -0.6362
 4037TIP3    H136306   1.372   7.697  10.595 -1.7926 -1.0263 -0.1438
 4037TIP3    H236307   1.342   7.846  10.598  2.8223  0.0644 -0.1016
 4038TIP3   OH236308   5.673   1.835   9.927 -0.0719  0.0796  0.5968
 4038TIP3    H136309   5.631   1.784   9.857  1.6028 -1.6158  0.7315
 4038TIP3    H236310   5.621   1.816  10.005 -0.6854  0.2413  0.2285
 4039TIP3   OH236311   6.420   8.822  10.965 -0.0132 -0.6030  0.2302
 4039TIP3    H136312   6.490   8.804  11.028  1.0700  0.2370 -0.6948
 4039TIP3    H236313   6.423   8.749  10.904 -1.8697 -2.0575  1.7806
 4040TIP3   OH236314   0.029   5.103  10.711  0.3436  0.0470  0.3905
 4040TIP3    H136315   0.019   5.137  10.800 -0.0995 -0.2025  0.4375
 4040TIP3    H236316   0.120   5.122  10.689 -0.0654  1.9405  0.1370
 4041TIP3   OH236317   1.979   4.563  10.497  0.5101  0.3141 -0.0568
 4041TIP3    H136318   2.069   4.588  10.474  1.1785  0.4135  2.3904
 4041TIP3    H236319   1.987   4.524  10.584 -2.3293  4.5431  2.4117
 4042TIP3   OH236320   8.050   1.397  10.191 -0.2065  0.1135 -0.6449
 4042TIP3    H136321   8.120   1.333  10.203  0.0635  0.2995 -1.1688
 4042TIP3    H236322   8.001   1.365  10.115 -0.2302  0.3901 -0.7470
 4043TIP3   OH236323   8.786   5.607  10.991 -0.3290 -0.1646 -0.1265
 4043TIP3    H136324   8.779   5.539  10.924  1.0160 -1.2124  0.7647
 4043TIP3    H236325   8.809   5.686  10.941 -0.0538 -0.7618 -0.9758
 4044TIP3   OH236326   6.936   7.956  10.950 -0.5162  0.2232 -0.1407
 4044TIP3    H136327   6.924   7.879  11.005  0.4156  0.5838  0.5753
 4044TIP3    H236328   7.021   7.945  10.909  0.1426  1.3988  0.8436
 4045TIP3   OH236329   6.918   2.143  11.164 -0.0617 -0.1330 -0.4690
 4045TIP3    H136330   6.967   2.084  11.107 -0.3873 -1.4259  0.5152
 4045TIP3    H236331   6.838   2.094  11.185  0.2200  0.1126  1.3654
 4046TIP3   OH236332   3.817   4.442   9.927 -0.2717  0.5553 -1.1207
 4046TIP3    H136333   3.856   4.525   9.956 -0.2319  0.4363 -0.8255
 4046TIP3    H236334   3.749   4.467   9.865 -0.6997  0.8450 -0.5423
 4047TIP3   OH236335   5.412   7.266  11.069  0.1196  0.7386  0.1126
 4047TIP3    H136336   5.344   7.321  11.107 -0.2504 -0.5313  1.3271
 4047TIP3    H236337   5.492   7.292  11.114  0.2349  1.3197 -0.4020
 4048TIP3   OH236338   6.833   6.232  11.338 -0.0283  0.9134 -0.9051
 4048TIP3    H136339   6.925   6.228  11.313  0.5099 -0.0107  1.0329
 4048TIP3    H236340   6.834   6.271  11.426 -1.5008  0.9663 -0.8873
 4049TIP3   OH236341   7.754   4.694  10.446  0.2265 -0.1294 -0.8525
 4049TIP3    H136342   7.731   4.772  10.495 -0.1670  0.1594 -1.4929
 4049TIP3    H236343   7.821   4.723  10.384  0.5495 -0.4412 -0.6570
 4050TIP3   OH236344   7.886   0.648   9.643 -0.0872 -0.3328 -0.0905
 4050TIP3    H136345   7.876   0.569   9.697  2.1846 -0.1570  0.6892
 4050TIP3    H236346   7.798   0.664   9.609 -1.0262 -2.0743  1.2936
 4051TIP3   OH236347   0.532   3.438   9.780  0.0399  0.3783 -0.2647
 4051TIP3    H136348   0.607   3.384   9.758  0.7590  0.6488  1.3558
 4051TIP3    H236349   0.456   3.384   9.758  0.7112 -0.3333 -0.8838
 4052TIP3   OH236350   4.802   4.759  10.286  0.2939 -0.4844  0.4813
 4052TIP3    H136351   4.799   4.825  10.354 -0.3461 -0.5636  0.5320
 4052TIP3    H236352   4.860   4.795  10.219  0.7649 -0.3237  0.9755
 4053TIP3   OH236353   2.176   0.872  10.815 -0.0677 -0.2298  0.2996
 4053TIP3    H136354   2.187   0.909  10.727 -0.3337 -0.4497  0.1721
 4053TIP3    H236355   2.173   0.778  10.801 -0.8747 -0.2343  0.4598
 4054TIP3   OH236356   8.402   6.282  10.626  0.6827  0.2247  0.1871
 4054TIP3    H136357   8.492   6.316  10.623  0.7741 -0.0606 -0.6413
 4054TIP3    H236358   8.395   6.242  10.712  1.7220 -0.7013 -0.1238
 4055TIP3   OH236359   0.548   5.352  10.043 -0.1149  0.2767  0.0145
 4055TIP3    H136360   0.542   5.260  10.068 -0.2150  0.0376 -0.8705
 4055TIP3    H236361   0.642   5.367  10.029 -0.2104 -0.0311 -1.0488
 4056TIP3   OH236362   1.670   8.618  10.112 -0.1046  0.4568 -0.2482
 4056TIP3    H136363   1.759   8.611  10.076 -0.0349 -1.5074  0.2099
 4056TIP3    H236364   1.658   8.538  10.161 -1.6391  1.3520  0.9106
 4057TIP3   OH236365   7.615   0.234   9.585  0.1508  0.0127 -0.1573
 4057TIP3    H136366   7.521   0.246   9.570  0.2122 -0.5671 -1.0588
 4057TIP3    H236367   7.652   0.219   9.498  0.8417 -1.3313  0.3347
 4058TIP3   OH236368   7.635   5.246   9.930 -0.2917 -0.4717 -0.2510
 4058TIP3    H136369   7.666   5.245   9.840  0.5707 -0.9769  0.0430
 4058TIP3    H236370   7.554   5.194   9.927 -0.1097 -0.7416 -0.6820
 4059TIP3   OH236371   1.578   9.066   9.451 -0.1985  0.4845  0.5694
 4059TIP3    H136372   1.629   8.985   9.442 -2.1989 -0.9415  1.1802
 4059TIP3    H236373   1.519   9.065   9.375  0.6596  2.1112 -0.1545
 4060TIP3   OH236374   0.014   2.166  11.221  0.1089 -0.0071  0.0244
 4060TIP3    H136375  -0.042   2.241  11.240 -0.7872 -0.4623 -0.7754
 4060TIP3    H236376   0.059   2.188  11.140 -0.9700 -0.7602 -0.8041
 4061TIP3   OH236377   3.029   5.018   9.724  0.4514 -0.2359  0.2629
 4061TIP3    H136378   2.943   5.058   9.714 -0.3190 -1.4650  1.6028
 4061TIP3    H236379   3.075   5.037   9.642 -0.7627  1.1971 -0.1123
 4062TIP3   OH236380   4.192   1.026  10.934  0.1508 -0.1106  0.4910
 4062TIP3    H136381   4.178   0.954  10.872  2.2769 -0.0706 -0.1122
 4062TIP3    H236382   4.163   0.991  11.018 -1.0792 -0.8020 -0.1804
 4063TIP3   OH236383   4.416   3.453   9.631 -0.1563 -0.2406 -0.1798
 4063TIP3    H136384   4.399   3.422   9.720  1.2822  1.5480  0.8057
 4063TIP3    H236385   4.451   3.377   9.585 -0.8717 -1.1806  0.7773
 4064TIP3   OH236386   6.142   5.710   9.410 -0.0799 -0.4070 -0.1181
 4064TIP3    H136387   6.163   5.737   9.499  0.8608 -1.0847 -0.1209
 4064TIP3    H236388   6.073   5.644   9.421 -0.3768 -0.0732  0.0623
 4065TIP3   OH236389   6.716   0.953  10.249  0.1139 -0.4633  0.2656
 4065TIP3    H136390   6.694   0.860  10.247  0.1525 -0.4812  0.7479
 4065TIP3    H236391   6.691   0.984  10.162  1.3317 -1.2027 -0.3739
 4066TIP3   OH236392   2.672   4.425  10.331  0.2106  0.5021 -0.4531
 4066TIP3    H136393   2.756   4.451  10.293 -0.2732  1.9528 -0.5928
 4066TIP3    H236394   2.607   4.475  10.282 -0.5672  0.9702  0.9864
 4067TIP3   OH236395   0.626   7.086  10.522 -0.2292 -0.1247  0.0702
 4067TIP3    H136396   0.563   7.065  10.452  1.8777  0.8124 -2.2673
 4067TIP3    H236397   0.599   7.172  10.554 -1.1717 -0.5277  0.3892
 4068TIP3   OH236398   5.281   3.533   9.788  0.1110 -0.4938 -0.3361
 4068TIP3    H136399   5.313   3.589   9.718 -0.3632  0.0033 -0.1638
 4068TIP3    H236400   5.357   3.517   9.844  0.2931 -0.1892 -0.4981
 4069TIP3   OH236401   5.628   7.092   9.761  0.4256 -0.1242  0.0025
 4069TIP3    H136402   5.669   7.097   9.675 -0.2609  0.5762 -0.2962
 4069TIP3    H236403   5.545   7.048   9.745  0.3979 -0.1928  0.3396
 4070TIP3   OH236404   7.600   0.188  10.937 -0.2362 -0.5148  0.0880
 4070TIP3    H136405   7.514   0.168  10.975 -0.3743  1.7898  1.1496
 4070TIP3    H236406   7.589   0.275  10.898  1.8068  0.1950  0.9548
 4071TIP3   OH236407   6.401   3.423  11.015 -0.5498 -0.0975  0.5669
 4071TIP3    H136408   6.357   3.471  11.085 -0.8654  0.8174 -0.2339
 4071TIP3    H236409   6.335   3.414  10.947  0.0873  0.0632 -0.0890
 4072TIP3   OH236410   8.627   8.043   9.906 -0.6758  0.1367 -0.7417
 4072TIP3    H136411   8.688   8.053   9.979  0.5787 -0.7999 -1.6075
 4072TIP3    H236412   8.567   7.974   9.934 -0.3278 -0.0751 -0.5051
 4073TIP3   OH236413   0.544   2.083   9.676  0.3605 -0.3049 -0.3909
 4073TIP3    H136414   0.537   2.157   9.737 -2.6489 -0.0561 -0.8853
 4073TIP3    H236415   0.498   2.011   9.721  0.1890 -0.8182 -1.3716
 4074TIP3   OH236416   3.313   1.641   9.665 -0.1476 -0.4525 -0.0086
 4074TIP3    H136417   3.286   1.631   9.574  0.4455 -0.7786 -0.1583
 4074TIP3    H236418   3.404   1.612   9.666 -0.0932 -0.2790  0.6549
 4075TIP3   OH236419   6.136   1.096   9.191 -0.2466 -0.3181  0.8866
 4075TIP3    H136420   6.225   1.115   9.221 -0.1454  0.8124 -0.0137
 4075TIP3    H236421   6.130   1.001   9.191  1.8963 -0.5796 -1.5066
 4076TIP3   OH236422   6.054   8.588   9.877  0.1374  0.4083  0.1444
 4076TIP3    H136423   6.125   8.577   9.813 -0.0538  0.4882 -0.0854
 4076TIP3    H236424   5.975   8.559   9.830  0.0068  0.4015  0.3690
 4077TIP3   OH236425   7.141   7.487   9.404  0.2705 -0.5657 -0.1211
 4077TIP3    H136426   7.101   7.410   9.365  0.0753 -0.4032 -0.2445
 4077TIP3    H236427   7.071   7.526   9.457  0.9306 -1.5794  1.5580
 4078TIP3   OH236428   8.841   7.325  10.678 -0.4191 -0.3101 -0.1372
 4078TIP3    H136429   8.859   7.236  10.649 -0.1582  0.0072 -0.9872
 4078TIP3    H236430   8.776   7.315  10.748  0.0553 -1.1955  0.1947
 4079TIP3   OH236431   3.582   6.782  10.079  0.0408  0.2837 -0.1580
 4079TIP3    H136432   3.616   6.770   9.991  2.1767  1.4282  0.4388
 4079TIP3    H236433   3.658   6.808  10.131 -0.4033 -3.4955  2.8106
 4080TIP3   OH236434   7.866   3.836  10.995  0.2600  0.5770  0.4257
 4080TIP3    H136435   7.907   3.750  11.003 -0.4021  0.1692 -0.3394
 4080TIP3    H236436   7.882   3.862  10.904 -1.9805 -0.0649 -0.2342
 4081TIP3   OH236437   6.967   2.759  10.403 -0.1632  0.1436  0.0485
 4081TIP3    H136438   6.893   2.703  10.382 -0.5921  0.9274 -0.5783
 4081TIP3    H236439   6.928   2.836  10.445  0.0579  1.4082 -1.9106
 4082TIP3   OH236440   3.466   3.747   9.982 -0.0429 -0.2696  0.5272
 4082TIP3    H136441   3.451   3.698   9.901 -0.7252  0.3492  0.2698
 4082TIP3    H236442   3.531   3.813   9.957 -0.5162  0.1476  0.3866
 4083TIP3   OH236443   6.833   3.418  10.138  0.6777  0.2881  0.5866
 4083TIP3    H136444   6.748   3.460  10.126  1.0842  1.6248  2.0599
 4083TIP3    H236445   6.877   3.427  10.054  0.5541  2.4500  0.6948
 4084TIP3   OH236446   3.948   0.359   9.517 -0.4991 -0.3841  0.4814
 4084TIP3    H136447   3.895   0.281   9.533 -2.0016  0.4636 -0.1082
 4084TIP3    H236448   3.898   0.430   9.558 -1.1401  0.8176 -2.1569
 4085TIP3   OH236449   1.244   3.753  10.363  0.2398  0.6701 -0.0714
 4085TIP3    H136450   1.319   3.800  10.399 -0.7997  3.0849 -0.8309
 4085TIP3    H236451   1.249   3.770  10.269 -0.2339 -0.7384 -0.3746
 4086TIP3   OH236452   4.267   3.806  10.931  0.2582 -0.2624  0.1351
 4086TIP3    H136453   4.314   3.882  10.964 -0.3385  0.7101 -1.1653
 4086TIP3    H236454   4.178   3.817  10.965  0.6522 -1.5209  1.6847
 4087TIP3   OH236455   7.277   6.695  11.010  0.2066  0.4033 -0.0534
 4087TIP3    H136456   7.294   6.642  10.932  1.9911  2.3292 -1.0506
 4087TIP3    H236457   7.182   6.703  11.013  0.0392 -0.7477 -1.2871
 4088TIP3   OH236458   5.047   4.690   9.865 -0.4998  0.8152 -0.6685
 4088TIP3    H136459   5.114   4.686   9.933 -1.2677  2.4113  0.2548
 4088TIP3    H236460   5.042   4.783   9.841 -2.5179  0.7923 -0.5365
 4089TIP3   OH236461   5.126   4.689   9.216 -0.2064 -0.1044 -0.0582
 4089TIP3    H136462   5.076   4.638   9.280 -0.7761 -0.9944 -1.1727
 4089TIP3    H236463   5.073   4.685   9.136  0.1063  1.6296 -0.3951
 4090TIP3   OH236464   6.762   4.045   9.346 -0.9534 -0.1195  0.2113
 4090TIP3    H136465   6.792   4.064   9.257 -0.4231 -0.0396  0.4064
 4090TIP3    H236466   6.673   4.082   9.350 -1.1056 -0.4148 -0.3845
 4091TIP3   OH236467   3.697   0.854   9.803 -0.0808 -0.0355  0.5111
 4091TIP3    H136468   3.638   0.792   9.846 -0.3598  0.6333  1.1017
 4091TIP3    H236469   3.728   0.911   9.873 -0.7888  1.2717 -0.2019
 4092TIP3   OH236470   4.368   8.113  10.801  0.2710  0.1948 -0.6784
 4092TIP3    H136471   4.337   8.203  10.811 -0.1033 -0.0027  0.0424
 4092TIP3    H236472   4.355   8.093  10.709 -0.5115  0.5777 -0.6629
 4093TIP3   OH236473   7.305   6.002  10.132  0.5043 -0.2118 -0.2033
 4093TIP3    H136474   7.390   6.035  10.103  1.0375 -0.4497  1.0342
 4093TIP3    H236475   7.312   5.997  10.227 -1.1327  0.3753 -0.0178
 4094TIP3   OH236476   2.306   3.117   9.831  0.0333  0.0181 -0.6815
 4094TIP3    H136477   2.391   3.108   9.788 -0.6665  0.3128 -2.1996
 4094TIP3    H236478   2.275   3.203   9.803 -1.6184 -0.8843 -1.7736
 4095TIP3   OH236479   3.171   3.004  10.018 -0.0467  0.3303  0.1435
 4095TIP3    H136480   3.135   3.003   9.929 -0.5318  1.0588  0.3200
 4095TIP3    H236481   3.257   2.962  10.009 -0.1688  0.2192 -0.6330
 4096TIP3   OH236482   6.240   7.704  10.271 -0.1107 -0.3278 -0.1985
 4096TIP3    H136483   6.210   7.779  10.323 -0.1120 -0.5029  0.0565
 4096TIP3    H236484   6.288   7.743  10.198 -1.2946 -0.0111 -0.8495
 4097TIP3   OH236485   7.816   1.432  10.374 -0.2719 -0.0431  0.5421
 4097TIP3    H136486   7.846   1.436  10.464 -1.7798 -0.1635  1.0710
 4097TIP3    H236487   7.897   1.431  10.322  0.7150 -2.3503  1.9600
 4098TIP3   OH236488   7.454   6.622   9.912  0.1730 -0.2671 -0.2275
 4098TIP3    H136489   7.434   6.617   9.818 -0.3349 -2.6471 -0.0403
 4098TIP3    H236490   7.398   6.693   9.944  0.5708  0.7899 -1.7475
 4099TIP3   OH236491   6.666   3.653   9.461 -0.6395  0.3320 -0.5013
 4099TIP3    H136492   6.732   3.621   9.401  0.9573  1.4933  0.5584
 4099TIP3    H236493   6.691   3.743   9.479 -2.1120  0.5866  0.5023
 4100TIP3   OH236494   8.582   0.248   9.549 -0.0353  0.0835  0.0201
 4100TIP3    H136495   8.528   0.324   9.528  1.1777  1.0399  0.1975
 4100TIP3    H236496   8.659   0.285   9.593  1.9453 -0.9080 -2.3407
 4101TIP3   OH236497   7.408   7.156   9.699 -0.2599 -0.3385  0.9833
 4101TIP3    H136498   7.474   7.220   9.673 -2.1524  1.3467 -0.0083
 4101TIP3    H236499   7.442   7.118   9.780  1.7102  0.7392  0.7201
 4102TIP3   OH236500   4.821   4.546   9.959  0.4878  0.2252 -0.5436
 4102TIP3    H136501   4.884   4.614   9.936  1.3146 -0.4949 -0.4569
 4102TIP3    H236502   4.794   4.509   9.875  0.7785  0.0065 -0.5411
 4103TIP3   OH236503   4.914   8.425   9.114 -0.0784  0.2817 -0.2312
 4103TIP3    H136504   4.948   8.389   9.032  0.3942  0.1305  0.0262
 4103TIP3    H236505   4.928   8.520   9.106 -1.8675  0.5033 -1.1599
 4104TIP3   OH236506   5.387   6.229  10.592  0.8896  0.3048 -0.1569
 4104TIP3    H136507   5.432   6.212  10.674  1.6467 -0.3702 -0.6955
 4104TIP3    H236508   5.411   6.156  10.536 -1.0697 -0.1988 -0.4048
 4105TIP3   OH236509   1.015   3.313  11.040  0.1980 -0.0956 -0.2057
 4105TIP3    H136510   1.098   3.341  11.078  0.2941 -0.5307 -0.0910
 4105TIP3    H236511   0.999   3.375  10.969 -0.3189  1.1397  0.9395
 4106TIP3   OH236512   4.218   8.315   9.273 -0.0368 -0.7831 -0.3747
 4106TIP3    H136513   4.294   8.261   9.296 -0.5452 -0.3768  2.6217
 4106TIP3    H236514   4.246   8.405   9.289 -0.8861 -0.5717 -0.0361
 4107TIP3   OH236515   6.948   9.059  10.192  0.2069  0.6178 -0.2194
 4107TIP3    H136516   6.889   9.135  10.184  1.6501  1.8581  0.3817
 4107TIP3    H236517   7.035   9.098  10.202  0.8214 -1.1034  1.6422
 4108TIP3   OH236518   5.238   2.775   9.845  0.2022 -0.4142  0.5710
 4108TIP3    H136519   5.274   2.692   9.813 -0.9033 -0.6656 -0.0593
 4108TIP3    H236520   5.196   2.814   9.768 -0.9285 -0.1698  1.2976
 4109TIP3   OH236521   1.011   1.336  10.948  0.1729 -0.0261  0.4105
 4109TIP3    H136522   0.965   1.371  10.872  1.9890  1.1547 -0.2305
 4109TIP3    H236523   0.967   1.253  10.968 -0.5160 -0.2279 -1.7501
 4110TIP3   OH236524   7.083   1.254  10.724  0.0667 -0.0809  0.7821
 4110TIP3    H136525   7.173   1.249  10.690 -0.6447  0.4035 -1.3208
 4110TIP3    H236526   7.056   1.162  10.734 -0.4805 -0.3852 -2.3914
 4111TIP3   OH236527   8.721   8.128   9.619  0.5291 -0.2776 -0.4740
 4111TIP3    H136528   8.716   8.091   9.708  0.4120 -0.0199 -0.3708
 4111TIP3    H236529   8.630   8.145   9.596  0.4983 -1.0455 -0.9481
 4112TIP3   OH236530   6.765   2.553  10.959  0.3709  0.3030  0.4209
 4112TIP3    H136531   6.742   2.577  10.869  0.6409 -0.3545  0.1700
 4112TIP3    H236532   6.826   2.479  10.949 -0.7398 -0.7403  1.1779
 4113TIP3   OH236533   7.590   9.121  10.858 -0.1257 -0.1301 -0.0647
 4113TIP3    H136534   7.516   9.097  10.914  0.7735 -0.7612  0.8990
 4113TIP3    H236535   7.607   9.213  10.879  1.0043 -0.6979  1.7033
 4114TIP3   OH236536   5.594   1.723   9.680  0.4222  0.0644  0.3700
 4114TIP3    H136537   5.650   1.706   9.605  0.0282  1.4305 -0.2687
 4114TIP3    H236538   5.520   1.663   9.669 -0.9673  1.9954 -1.8506
 4115TIP3   OH236539   0.518   2.713   9.663  0.3839 -0.1598 -0.6054
 4115TIP3    H136540   0.541   2.650   9.594  0.6115 -0.5697 -0.1579
 4115TIP3    H236541   0.503   2.660   9.741 -0.1148  0.2813 -0.3924
 4116TIP3   OH236542   1.188   3.139  11.235 -0.4081 -0.2589  0.3254
 4116TIP3    H136543   1.114   3.187  11.196  0.8272  0.1515 -1.6501
 4116TIP3    H236544   1.147   3.064  11.278 -2.2637  1.6473  2.1551
 4117TIP3   OH236545   8.637   7.399  10.386  0.0763  0.0581 -0.1695
 4117TIP3    H136546   8.621   7.312  10.423 -0.7657  0.5439  0.6600
 4117TIP3    H236547   8.560   7.416  10.332  0.4288  0.1266 -0.6524
 4118TIP3   OH236548   0.412   3.623   9.626  0.6795 -0.0856  0.4185
 4118TIP3    H136549   0.467   3.569   9.683  1.8118 -1.9814 -2.2373
 4118TIP3    H236550   0.474   3.684   9.586  0.9767 -2.0024 -2.3275
 4119TIP3   OH236551   6.482   1.741   9.522  0.0906 -0.0617 -0.2592
 4119TIP3    H136552   6.424   1.793   9.577  0.9580 -1.3247  1.9984
 4119TIP3    H236553   6.566   1.788   9.525  0.4178 -0.6810  0.3647
 4120TIP3   OH236554   7.263   6.836   9.953 -0.0718 -0.2987 -0.1285
 4120TIP3    H136555   7.197   6.859   9.887 -0.1707 -0.1247  0.0307
 4120TIP3    H236556   7.215   6.837  10.036 -0.0335 -0.8962 -0.0962
 4121TIP3   OH236557   9.211   2.323   9.168  0.9722 -0.5000 -0.0341
 4121TIP3    H136558   9.195   2.349   9.258  3.0434 -0.8927  0.5022
 4121TIP3    H236559   9.235   2.404   9.123  2.5562 -0.6715  0.4453
 4122TIP3   OH236560   2.453   0.192  10.808 -0.5038 -0.1888 -0.1382
 4122TIP3    H136561   2.519   0.124  10.820 -1.4564 -1.1680 -0.2021
 4122TIP3    H236562   2.454   0.211  10.714  0.9986  1.2225  0.1180
 4123TIP3   OH236563   5.504   6.170  10.859  0.5120  0.0877  0.1449
 4123TIP3    H136564   5.428   6.216  10.892  1.2372  2.3400 -1.0952
 4123TIP3    H236565   5.555   6.147  10.937 -0.6407 -0.0462  0.8783
 4124TIP3   OH236566   8.239   5.128  10.371  0.1878 -0.3686 -0.3565
 4124TIP3    H136567   8.165   5.166  10.324  0.3801  0.8349  0.2653
 4124TIP3    H236568   8.200   5.058  10.425 -0.0387 -1.7230 -2.1838
 4125TIP3   OH236569   3.335   1.362  10.118  0.4777 -0.1726  0.1709
 4125TIP3    H136570   3.369   1.275  10.095 -0.5554 -0.2583 -1.1336
 4125TIP3    H236571   3.253   1.345  10.164 -0.1053  0.1109 -0.7435
 4126TIP3   OH236572   7.018   7.859   9.852  0.2142 -0.4552  0.5135
 4126TIP3    H136573   6.961   7.917   9.903 -1.3667 -2.0661  0.6843
 4126TIP3    H236574   6.970   7.844   9.771  1.0686 -0.7444  0.0506
 4127TIP3   OH236575   8.911   8.384   9.849  0.4373  0.1429  0.2408
 4127TIP3    H136576   8.982   8.322   9.833  1.3559  1.4244 -0.8608
 4127TIP3    H236577   8.833   8.341   9.815  1.4730  0.5785 -2.9435
 4128TIP3   OH236578   1.960   0.229   9.531 -0.2144 -0.6631  0.3858
 4128TIP3    H136579   1.945   0.145   9.488 -1.4554 -0.1295 -0.2638
 4128TIP3    H236580   2.018   0.276   9.472 -0.8189 -0.4544 -0.0493
 4129TIP3   OH236581   6.787   8.264   9.378 -0.0258 -0.5683  0.3958
 4129TIP3    H136582   6.692   8.256   9.370 -0.0403  0.2300 -0.3451
 4129TIP3    H236583   6.806   8.353   9.351  1.1096 -1.2404 -1.1751
 4130TIP3   OH236584   1.466   6.204  10.604 -0.6564 -0.2045 -0.5607
 4130TIP3    H136585   1.527   6.265  10.646 -2.1490  0.0246  1.4243
 4130TIP3    H236586   1.521   6.151  10.546  1.5169 -0.2839  1.4319
 4131TIP3   OH236587   4.505   6.029   9.905  0.4512  0.6931 -0.1739
 4131TIP3    H136588   4.572   5.964   9.886  0.8891  0.7625  1.0782
 4131TIP3    H236589   4.446   6.025   9.830  1.1148 -0.3147 -0.6589
 4132TIP3   OH236590   2.645   8.242  10.005  0.0504 -0.0633 -0.0833
 4132TIP3    H136591   2.554   8.270  10.016 -0.0861  0.1805 -1.6192
 4132TIP3    H236592   2.657   8.236   9.910  1.6343 -0.1216  0.0941
 4133TIP3   OH236593   1.660   2.611  10.067 -0.1244  1.1194  0.4705
 4133TIP3    H136594   1.656   2.640   9.975  1.6528  1.5203  0.4939
 4133TIP3    H236595   1.639   2.518  10.064  0.9458  0.8891 -0.4955
 4134TIP3   OH236596   8.803   6.397   9.672  0.0586  0.5388 -0.6045
 4134TIP3    H136597   8.757   6.356   9.745 -0.2674  0.8125 -0.6560
 4134TIP3    H236598   8.884   6.432   9.711 -0.3659  1.1567 -0.2690
 4135TIP3   OH236599   6.363   1.777  11.126 -0.0730 -0.0047  0.0654
 4135TIP3    H136600   6.281   1.820  11.103  0.5498  0.2706 -1.7905
 4135TIP3    H236601   6.410   1.841  11.180  0.3522  1.2504 -1.7125
 4136TIP3   OH236602   3.170   8.536   9.426 -0.3406 -0.4385 -0.5023
 4136TIP3    H136603   3.088   8.543   9.475  0.1439  0.6096  0.2039
 4136TIP3    H236604   3.176   8.617   9.376  1.8653  1.2216  2.1135
 4137TIP3   OH236605   3.089   6.599  11.033  0.1226 -0.2974  0.3766
 4137TIP3    H136606   3.057   6.538  10.967  1.1882  1.3675 -1.7977
 4137TIP3    H236607   3.184   6.588  11.033  0.6521  2.8249 -1.8125
 4138TIP3   OH236608   1.500   4.842   9.695 -0.0523  0.2780  0.2280
 4138TIP3    H136609   1.501   4.746   9.692  0.4576  0.2814  0.2624
 4138TIP3    H236610   1.420   4.866   9.648  0.6029 -0.1156 -1.1271
 4139TIP3   OH236611   9.172   0.328  10.230  0.0191  0.3427 -0.4119
 4139TIP3    H136612   9.110   0.398  10.245 -2.1961 -1.7535  0.9620
 4139TIP3    H236613   9.172   0.315  10.135  0.5334  2.1708 -0.6886
 4140TIP3   OH236614   4.126   6.906  10.176 -0.3673 -0.5041  0.1456
 4140TIP3    H136615   4.186   6.980  10.182 -1.1063  0.0371  1.1431
 4140TIP3    H236616   4.127   6.881  10.083 -1.0126  1.5328 -0.4654
 4141TIP3   OH236617   8.820   1.110  10.689  0.4717  0.3314 -0.8123
 4141TIP3    H136618   8.830   1.015  10.678  1.0825  0.0024  1.8400
 4141TIP3    H236619   8.726   1.123  10.700  0.4839 -0.1497 -0.0598
 4142TIP3   OH236620   1.330   3.119   9.373 -0.4104  0.3208 -0.1146
 4142TIP3    H136621   1.294   3.065   9.303 -0.3086  1.0786 -0.7726
 4142TIP3    H236622   1.376   3.058   9.430 -1.2979 -0.4364 -0.1879
 4143TIP3   OH236623   7.525   8.328   9.426  0.1741  0.3071 -0.2904
 4143TIP3    H136624   7.501   8.289   9.342  0.2736  0.9594 -0.6274
 4143TIP3    H236625   7.585   8.265   9.465  1.0428  0.5228 -1.2239
 4144TIP3   OH236626   6.871   6.358  10.930  0.0647  0.0456 -0.1433
 4144TIP3    H136627   6.818   6.433  10.956  0.9827  0.4132  0.7080
 4144TIP3    H236628   6.928   6.341  11.005  0.7941 -0.6650 -0.8370
 4145TIP3   OH236629   8.084   5.325  10.767 -0.2831 -0.2512 -0.3427
 4145TIP3    H136630   8.045   5.341  10.681 -1.2644 -0.0643  0.1271
 4145TIP3    H236631   8.051   5.396  10.822  1.8712  0.7794 -0.2704
 4146TIP3   OH236632   7.487   7.710  10.451  0.2791 -0.3247  0.2527
 4146TIP3    H136633   7.412   7.746  10.499  0.1410 -1.1902  0.7098
 4146TIP3    H236634   7.564   7.740  10.500  0.2045 -0.0055  0.1787
 4147TIP3   OH236635   5.753   6.624  10.610  0.4324 -0.4624  0.5396
 4147TIP3    H136636   5.709   6.546  10.644  1.5943 -0.7527  1.4336
 4147TIP3    H236637   5.838   6.592  10.579 -0.0494  0.0338 -1.4680
 4148TIP3   OH236638   4.870   4.631   9.650  0.4915 -0.5172  0.2537
 4148TIP3    H136639   4.823   4.709   9.680  0.7340 -0.7103  1.1971
 4148TIP3    H236640   4.939   4.618   9.716  0.3230 -1.6473  0.2349
 4149TIP3   OH236641   2.782   7.898   9.361 -0.4730  0.0717 -0.8689
 4149TIP3    H136642   2.823   7.965   9.416 -0.8870  0.2565 -0.7788
 4149TIP3    H236643   2.851   7.833   9.347 -0.9432 -1.0955  1.6793
 4150TIP3   OH236644   6.256   1.452   9.841 -0.1493  0.0180  0.2564
 4150TIP3    H136645   6.202   1.458   9.762 -1.9066  2.9529  1.5264
 4150TIP3    H236646   6.340   1.490   9.816 -0.2100 -0.3644 -0.5521
 4151TIP3   OH236647   4.200   3.085  10.758 -0.1448  0.1576  0.0643
 4151TIP3    H136648   4.185   3.134  10.677  0.4938  0.2214 -0.0230
 4151TIP3    H236649   4.289   3.109  10.785 -0.0037 -0.5694  0.2874
 4152TIP3   OH236650   2.530   2.711  10.396  0.1918  0.1190  0.3153
 4152TIP3    H136651   2.474   2.633  10.399  3.5124 -2.4692  1.0249
 4152TIP3    H236652   2.476   2.781  10.433 -3.5684 -1.3115 -1.9811
 4153TIP3   OH236653   5.401   2.976  10.843  0.4633  0.0602  0.1045
 4153TIP3    H136654   5.401   3.005  10.752  1.9843  0.7824  0.3134
 4153TIP3    H236655   5.317   3.006  10.877  0.3203  0.6980 -0.7796
 4154TIP3   OH236656   4.869   0.218   9.908  0.1178  0.0718  0.1290
 4154TIP3    H136657   4.870   0.239  10.002 -0.6238  1.9823 -0.2470
 4154TIP3    H236658   4.860   0.122   9.905 -0.6555  0.0476  2.0041
 4155TIP3   OH236659   4.460   8.664  11.291  0.2925  0.0726 -0.2286
 4155TIP3    H136660   4.475   8.586  11.344  0.5051 -0.4739 -1.0688
 4155TIP3    H236661   4.370   8.655  11.259 -1.0579  1.9534  2.5117
 4156TIP3   OH236662   4.629   2.058   9.196 -0.5013  0.0898 -0.5063
 4156TIP3    H136663   4.679   1.990   9.242 -0.3779  0.9469  0.6860
 4156TIP3    H236664   4.601   2.017   9.114  0.7072 -0.9517 -0.4192
 4157TIP3   OH236665   2.050   8.875   9.070  0.3676 -0.2019  0.6244
 4157TIP3    H136666   2.013   8.944   9.126 -0.9952 -0.1091 -0.3288
 4157TIP3    H236667   2.129   8.914   9.033  0.6046  0.1835  1.5247
 4158TIP3   OH236668   4.642   3.529  10.168 -0.1028 -0.6970  0.4207
 4158TIP3    H136669   4.602   3.583  10.236 -0.2887  1.2428 -1.1551
 4158TIP3    H236670   4.736   3.539  10.181 -0.0881 -2.3100  1.8530
 4159TIP3   OH236671   1.310   8.955  10.430 -0.5258 -0.2041 -0.0393
 4159TIP3    H136672   1.329   8.862  10.427 -1.6775 -0.4393 -2.0757
 4159TIP3    H236673   1.288   8.978  10.340  0.4771  2.2219  0.2421
 4160TIP3   OH236674   0.999   8.361  10.431 -0.2283 -0.1577  0.7384
 4160TIP3    H136675   1.014   8.341  10.523 -0.7366  0.6118  0.9911
 4160TIP3    H236676   1.074   8.321  10.386  0.3833  0.0426  1.5492
 4161TIP3   OH236677   3.698   8.393   9.334 -0.5757  0.4246 -0.2847
 4161TIP3    H136678   3.786   8.405   9.299 -0.1101  2.0182  1.3024
 4161TIP3    H236679   3.641   8.393   9.257  0.8811 -2.4476 -1.5214
 4162TIP3   OH236680   8.496   8.240   9.794  0.2151 -0.0936  0.9625
 4162TIP3    H136681   8.428   8.263   9.857 -0.5242 -0.6903  0.4060
 4162TIP3    H236682   8.548   8.173   9.837 -2.0502 -2.7125 -0.0343
 4163TIP3   OH236683   2.303   2.478   9.532  0.0535 -0.8813 -0.1774
 4163TIP3    H136684   2.386   2.519   9.508 -0.8102  0.6176 -0.7900
 4163TIP3    H236685   2.283   2.419   9.460  0.5830 -1.2318 -0.0341
 4164TIP3   OH236686   4.179   3.388  11.046 -0.3829 -0.3777  0.1832
 4164TIP3    H136687   4.166   3.294  11.042 -0.2866 -0.4139  0.6185
 4164TIP3    H236688   4.274   3.399  11.049 -0.3865 -0.2539 -0.1380
 4165TIP3   OH236689   8.755   6.911   9.743 -0.2140 -0.3408 -0.1043
 4165TIP3    H136690   8.815   6.870   9.681  0.2681 -0.5373  0.4825
 4165TIP3    H236691   8.787   7.001   9.751  0.5535 -0.6966  0.8930
 4166TIP3   OH236692   8.069   1.063  10.714 -0.0992 -0.2582  0.4775
 4166TIP3    H136693   8.099   1.123  10.783 -0.2185  0.7442 -0.3147
 4166TIP3    H236694   8.142   1.060  10.652 -0.4476 -0.2145  0.0606
 4167TIP3   OH236695   8.191   3.524  11.114  0.0524 -0.3803  0.1973
 4167TIP3    H136696   8.280   3.510  11.082 -0.0851 -1.7328  0.3491
 4167TIP3    H236697   8.189   3.481  11.199 -0.3452  0.9241  0.8748
 4168TIP3   OH236698   7.959   3.179  10.391  0.2442  0.3611  0.2302
 4168TIP3    H136699   8.033   3.224  10.431  1.1761 -0.6223 -0.3234
 4168TIP3    H236700   7.978   3.181  10.297 -0.7997  0.7275  0.0210
 4169TIP3   OH236701   9.127   0.170  10.472 -0.1604 -0.5431  0.2363
 4169TIP3    H136702   9.127   0.244  10.411 -0.9727  0.1946  1.1102
 4169TIP3    H236703   9.147   0.208  10.557  2.2327 -1.7359  0.2940
 4170TIP3   OH236704   3.363   2.071  10.747  0.0645 -0.7233 -0.1347
 4170TIP3    H136705   3.302   2.022  10.693 -0.6382 -0.5131  0.4549
 4170TIP3    H236706   3.366   2.158  10.707 -0.4458 -0.5712  0.1438
 4171TIP3   OH236707   5.944   0.643  10.978 -0.3307  0.6237 -0.4130
 4171TIP3    H136708   6.033   0.675  10.989 -0.2936  0.3247  0.1663
 4171TIP3    H236709   5.948   0.551  11.002 -0.9672  0.8154  0.4606
 4172TIP3   OH236710   8.173   3.191   9.272 -0.0749 -0.1134 -0.3922
 4172TIP3    H136711   8.213   3.161   9.190 -2.1196 -2.2863 -0.6972
 4172TIP3    H236712   8.095   3.239   9.244 -0.6823 -0.7092  0.2268
 4173TIP3   OH236713   1.993   5.381  10.955 -0.7294 -0.2519  0.0957
 4173TIP3    H136714   2.023   5.472  10.965 -0.3783 -0.4081  0.4922
 4173TIP3    H236715   2.073   5.330  10.944 -0.9341 -0.5015 -0.2714
 4174TIP3   OH236716   1.139   2.884  10.102 -0.2228  0.2950 -1.0967
 4174TIP3    H136717   1.189   2.896  10.182 -0.5279 -1.9890 -0.4735
 4174TIP3    H236718   1.193   2.922  10.033  1.0063  0.4588 -0.0677
 4175TIP3   OH236719   4.346   3.518  10.531 -0.4431 -0.2167 -0.3085
 4175TIP3    H136720   4.342   3.561  10.617  0.8774  0.7812 -0.7213
 4175TIP3    H236721   4.305   3.432  10.546  0.7341 -0.4989  1.5968
 4176TIP3   OH236722   5.828   8.813  10.259  0.5353  0.0281 -0.2818
 4176TIP3    H136723   5.799   8.737  10.310 -0.1293  1.3893  1.4683
 4176TIP3    H236724   5.924   8.810  10.266  0.4884 -0.2813  0.3373
 4177TIP3   OH236725   3.368   7.374  10.195 -0.2916 -0.3385  0.4071
 4177TIP3    H136726   3.404   7.321  10.266 -0.1673  1.0308  1.4095
 4177TIP3    H236727   3.399   7.463  10.213 -1.2948  0.2619 -0.6762
 4178TIP3   OH236728   5.587   3.232  10.290 -0.1473 -0.3993  0.6276
 4178TIP3    H136729   5.644   3.294  10.336  0.1556 -0.8235  0.8234
 4178TIP3    H236730   5.645   3.161  10.263 -0.3529 -0.2428 -0.2670
 4179TIP3   OH236731   4.513   0.742  11.147  0.2516 -0.2023  0.4592
 4179TIP3    H136732   4.423   0.716  11.131 -0.3498  1.1042  1.5053
 4179TIP3    H236733   4.560   0.659  11.161 -0.3214 -1.0188 -2.0651
 4180TIP3   OH236734   7.850   2.570  10.362 -0.5133  0.0430  0.0609
 4180TIP3    H136735   7.918   2.590  10.298  0.8072 -2.1073  0.7055
 4180TIP3    H236736   7.846   2.648  10.418 -0.2318  1.1080 -1.3435
 4181TIP3   OH236737   2.590   1.877  10.956 -0.3784 -0.2447  0.2512
 4181TIP3    H136738   2.664   1.817  10.944  1.3279  1.7672  0.2845
 4181TIP3    H236739   2.577   1.917  10.870 -1.1871 -0.2586  0.3521
 4182TIP3   OH236740   1.528   3.594  10.420 -0.2622 -0.3503 -0.0468
 4182TIP3    H136741   1.536   3.644  10.338 -1.2720 -2.0651 -1.2577
 4182TIP3    H236742   1.618   3.569  10.441 -0.0101 -0.0976 -0.7776
 4183TIP3   OH236743   8.499   8.736  10.821  0.6537 -0.0182  0.2998
 4183TIP3    H136744   8.542   8.696  10.896  0.0399 -0.6863  0.3001
 4183TIP3    H236745   8.536   8.825  10.817  1.0974 -0.1610  1.0490
 4184TIP3   OH236746   7.348   4.879   9.231  0.2349 -0.0250  0.1444
 4184TIP3    H136747   7.320   4.792   9.259 -0.4981  0.1847  0.0979
 4184TIP3    H236748   7.432   4.893   9.273  0.0675 -0.5089  0.6441
 4185TIP3   OH236749   5.386   6.980  11.094 -0.0725  0.0519  0.0240
 4185TIP3    H136750   5.376   7.076  11.095 -1.2786 -0.0673  1.1875
 4185TIP3    H236751   5.367   6.956  11.003  0.1597  0.8932 -0.2650
 4186TIP3   OH236752   6.475   8.876   9.760  0.0683 -0.2820 -0.3200
 4186TIP3    H136753   6.488   8.873   9.854  0.6934 -0.7111 -0.4120
 4186TIP3    H236754   6.561   8.856   9.723 -0.6683 -2.4967 -0.9749
 4187TIP3   OH236755   5.370   6.926   9.798 -0.2051 -0.7261 -0.4441
 4187TIP3    H136756   5.310   6.863   9.758 -1.5194  0.5586 -0.5639
 4187TIP3    H236757   5.400   6.883   9.878 -0.8054 -1.6441 -0.6916
 4188TIP3   OH236758   8.139   0.556   9.558  0.1167 -0.0042 -0.2328
 4188TIP3    H136759   8.065   0.610   9.587 -1.2893 -1.5527 -0.7739
 4188TIP3    H236760   8.150   0.492   9.628  0.6356 -0.0682 -0.3733
 4189TIP3   OH236761   1.968   1.603  10.878  0.0750  0.2195 -0.1631
 4189TIP3    H136762   1.913   1.671  10.839 -0.0190  0.3380  0.1718
 4189TIP3    H236763   1.912   1.561  10.943 -0.3707 -1.2037 -1.4281
 4190TIP3   OH236764   5.333   3.823  11.016  0.8029 -0.8198 -0.1847
 4190TIP3    H136765   5.308   3.779  11.098  0.3215 -0.3436 -0.0622
 4190TIP3    H236766   5.251   3.863  10.986  0.7165 -1.9388 -1.5091
 4191TIP3   OH236767   2.474   6.752  10.784  0.1837  0.1694 -0.4196
 4191TIP3    H136768   2.558   6.725  10.748  1.3956  0.5733  1.9082
 4191TIP3    H236769   2.420   6.673  10.781  1.2015 -0.5434 -0.4580
 4192TIP3   OH236770   3.719   0.915  10.409 -0.0675 -0.1099 -0.1179
 4192TIP3    H136771   3.738   0.994  10.459  2.9908 -0.9724  0.2816
 4192TIP3    H236772   3.788   0.910  10.343 -2.6650 -0.2393 -3.0714
 4193TIP3   OH236773   4.619   5.190  10.464  0.4060  0.0664  0.1410
 4193TIP3    H136774   4.556   5.235  10.407  1.8790  0.8778 -0.8859
 4193TIP3    H236775   4.643   5.256  10.528 -0.8651 -0.6951  1.4805
 4194TIP3   OH236776   8.658   0.122  10.112 -0.1532 -0.4463 -0.0659
 4194TIP3    H136777   8.716   0.090  10.043  0.6480 -0.9981  0.8347
 4194TIP3    H236778   8.695   0.206  10.138 -0.1174 -0.5135  0.0976
 4195TIP3   OH236779   6.011   7.814  10.914 -0.2241  0.1975  0.5301
 4195TIP3    H136780   6.036   7.780  10.827  1.0875  1.5919  0.3137
 4195TIP3    H236781   6.088   7.797  10.968 -1.7177 -2.4201  2.0145
 4196TIP3   OH236782   4.468   6.811  10.929  0.4835 -0.2349 -0.2200
 4196TIP3    H136783   4.457   6.873  11.001 -1.6027 -1.1615  0.3244
 4196TIP3    H236784   4.379   6.780  10.910  1.2230 -1.4766 -1.8911
 4197TIP3   OH236785   0.117   1.895  11.270  0.0522  0.4807  0.2949
 4197TIP3    H136786   0.038   1.850  11.298 -0.2873 -0.9598 -2.6146
 4197TIP3    H236787   0.088   1.985  11.254 -0.0082  1.0240  2.9937
 4198TIP3   OH236788   0.366   7.826   9.054 -0.2327 -0.3455 -0.1249
 4198TIP3    H136789   0.333   7.834   9.143  0.2286 -1.9378  0.2282
 4198TIP3    H236790   0.315   7.889   9.003 -0.9445  0.1303  1.1408
 4199TIP3   OH236791   1.862   6.062   9.764 -0.1224  0.2744  0.1298
 4199TIP3    H136792   1.898   6.027   9.683 -0.2601 -0.7229  0.4833
 4199TIP3    H236793   1.891   6.001   9.832 -1.0270  0.4151  0.6590
 4200TIP3   OH236794   4.035   2.930   9.973  0.4359  0.3759 -0.0446
 4200TIP3    H136795   3.998   2.947  10.059  0.7158 -1.0233  0.3833
 4200TIP3    H236796   3.966   2.884   9.926  0.9378 -0.5579  0.1057
 4201TIP3   OH236797   3.951   1.196   9.738 -0.0350  0.8414 -0.0025
 4201TIP3    H136798   3.859   1.222   9.733  0.1988  1.5815 -0.6024
 4201TIP3    H236799   3.977   1.219   9.827 -0.9094 -1.0849  0.8136
 4202TIP3   OH236800   4.151   8.881   9.314  0.3205  0.7933  0.1062
 4202TIP3    H136801   4.197   8.964   9.320 -0.2963  1.2306 -0.8909
 4202TIP3    H236802   4.061   8.901   9.342  0.1216  0.5169 -0.3192
 4203TIP3   OH236803   8.485   7.629  10.267  0.6006 -0.1429 -0.1068
 4203TIP3    H136804   8.542   7.618  10.191  0.4915  2.2565 -0.6263
 4203TIP3    H236805   8.516   7.709  10.309 -0.4620 -0.4627  1.3686
 4204TIP3   OH236806   0.937   7.206  10.418  0.4853 -0.1135 -0.5761
 4204TIP3    H136807   0.942   7.227  10.325 -1.3088 -0.7645 -0.8691
 4204TIP3    H236808   0.859   7.254  10.449  1.0270  0.0526  0.5882
 4205TIP3   OH236809   3.481   7.171  10.378 -0.2787 -0.6976 -0.0207
 4205TIP3    H136810   3.430   7.149  10.456  0.3760 -0.3024  0.5350
 4205TIP3    H236811   3.453   7.107  10.312  1.5683 -3.3215  1.5354
 4206TIP3   OH236812   6.182   3.650  10.812 -0.4808  0.0763 -0.2078
 4206TIP3    H136813   6.106   3.658  10.754 -0.3232  1.0903 -0.2996
 4206TIP3    H236814   6.156   3.698  10.892 -1.1468 -2.2678  1.0828
 4207TIP3   OH236815   3.702   1.133  10.563  0.0691  0.4416 -0.2256
 4207TIP3    H136816   3.738   1.117  10.650 -0.0943  2.1852  0.2138
 4207TIP3    H236817   3.608   1.115  10.573  0.2761 -0.7867 -0.4467
 4208TIP3   OH236818   3.103   0.732   9.842 -0.0519  0.2054  0.2356
 4208TIP3    H136819   3.169   0.801   9.841  0.8395 -0.6260 -1.1080
 4208TIP3    H236820   3.152   0.651   9.850 -1.0561 -0.3259  1.2773
 4209TIP3   OH236821   2.225   7.785  10.388  0.2464  0.3049  0.2421
 4209TIP3    H136822   2.298   7.811  10.332  0.7037  1.1441  1.1886
 4209TIP3    H236823   2.267   7.747  10.466 -0.3151  0.9002  0.8436
 4210TIP3   OH236824   3.855   5.520  10.637  0.3725 -0.6467  0.1585
 4210TIP3    H136825   3.893   5.506  10.724 -0.9383  0.9625  1.0480
 4210TIP3    H236826   3.853   5.615  10.626  1.3000 -0.8225 -2.0343
 4211TIP3   OH236827   4.997   4.538   9.429  0.0460 -0.2453 -0.3159
 4211TIP3    H136828   5.070   4.549   9.490  0.8066  1.8191 -1.4772
 4211TIP3    H236829   4.920   4.567   9.479  0.7874  2.3400 -0.5034
 4212TIP3   OH236830   7.989   6.814  10.986 -0.5066  0.0485 -0.1336
 4212TIP3    H136831   7.905   6.820  10.940 -1.3244  0.8329  1.4011
 4212TIP3    H236832   7.976   6.743  11.049  1.1771 -2.2150 -2.1482
 4213TIP3   OH236833   8.993   7.911  10.586  0.0223 -0.2910  0.5159
 4213TIP3    H136834   9.050   7.941  10.657  2.0795 -1.5603 -0.4946
 4213TIP3    H236835   8.931   7.982  10.573 -0.8551 -0.2368  3.9511
 4214TIP3   OH236836   0.516   0.781  10.162  0.5361 -0.1556  0.0334
 4214TIP3    H136837   0.491   0.780  10.070 -1.7539 -1.6019  0.5779
 4214TIP3    H236838   0.506   0.872  10.189  1.1629  0.2684 -1.0887
 4215TIP3   OH236839   8.687   7.372   9.451 -0.5836  0.7229 -0.3179
 4215TIP3    H136840   8.610   7.349   9.397 -1.6861  0.7204  1.1859
 4215TIP3    H236841   8.728   7.287   9.470 -0.7438  0.6334 -0.3648
 4216TIP3   OH236842   8.890   8.946   9.462 -1.1247  0.3615 -0.0548
 4216TIP3    H136843   8.827   8.966   9.531 -0.1408  1.6460  0.5342
 4216TIP3    H236844   8.837   8.918   9.388 -2.2767 -0.0175  0.8807
 4217TIP3   OH236845   0.351   1.742  10.590  0.2777 -0.3363 -0.2464
 4217TIP3    H136846   0.316   1.679  10.526 -0.9940  0.7274 -0.6415
 4217TIP3    H236847   0.312   1.826  10.565  1.8358  0.6095  0.3524
 4218TIP3   OH236848   0.415   8.949   8.893 -0.0079 -0.5965 -0.4331
 4218TIP3    H136849   0.320   8.947   8.906 -0.0411  2.3077  0.6085
 4218TIP3    H236850   0.444   8.860   8.912 -2.5363 -1.6450 -1.1149
 4219TIP3   OH236851   8.115   2.216   9.611  0.1466 -0.1625  0.0468
 4219TIP3    H136852   8.203   2.211   9.648 -0.4227  0.4029  1.5649
 4219TIP3    H236853   8.111   2.142   9.551  1.3238 -0.8093  0.7031
 4220TIP3   OH236854   5.160   4.397  10.963  0.0454  0.2443 -0.2539
 4220TIP3    H136855   5.178   4.468  10.901 -0.3922  0.1631 -0.4739
 4220TIP3    H236856   5.065   4.389  10.964  0.0688  0.0029  0.1579
 4221TIP3   OH236857   8.301   7.266  10.264  0.0739  0.2995  0.0055
 4221TIP3    H136858   8.365   7.292  10.198  1.7898  0.0644  1.5047
 4221TIP3    H236859   8.327   7.177  10.289 -2.1013 -0.6361 -0.7680
 4222TIP3   OH236860   6.561   6.103   9.893  0.7041 -0.5231  0.3866
 4222TIP3    H136861   6.635   6.068   9.844  2.7916 -0.6907  3.3984
 4222TIP3    H236862   6.511   6.025   9.919 -0.7629 -0.3974 -1.8177
 4223TIP3   OH236863   0.614   9.124   8.905 -0.2648  0.4766  0.1391
 4223TIP3    H136864   0.563   9.205   8.900  0.9336  1.3436  1.2145
 4223TIP3    H236865   0.548   9.054   8.902 -1.3781  1.5040 -0.1312
 4224TIP3   OH236866   1.305   0.045  10.861 -0.1692 -0.0121 -0.5244
 4224TIP3    H136867   1.252  -0.035  10.856 -0.7935  0.3535  0.0763
 4224TIP3    H236868   1.393   0.017  10.840 -0.5843 -0.6548 -1.4766
 4225TIP3   OH236869   2.074   7.026  10.593  0.0671 -0.5107 -0.0227
 4225TIP3    H136870   2.157   7.063  10.564 -0.0216 -1.0593 -1.0210
 4225TIP3    H236871   2.075   7.035  10.689  1.4503 -0.8863  0.0176
 4226TIP3   OH236872   0.903   3.731  10.667 -0.0861  0.2323 -0.4997
 4226TIP3    H136873   0.844   3.756  10.597 -1.1314 -3.0617 -0.9957
 4226TIP3    H236874   0.977   3.689  10.622 -0.4892 -1.4008  0.2878
 4227TIP3   OH236875   2.710   3.431  10.218 -0.1144  0.3096  0.2764
 4227TIP3    H136876   2.650   3.379  10.272 -1.5170  0.4741 -1.0288
 4227TIP3    H236877   2.784   3.450  10.276 -0.5559 -1.2867  1.4548
 4228TIP3   OH236878   6.464   4.731  10.699 -0.0869  0.1170 -0.6535
 4228TIP3    H136879   6.431   4.675  10.628 -2.3317  0.8384 -0.2674
 4228TIP3    H236880   6.443   4.820  10.670 -0.0407  0.4943  0.4435
 4229TIP3   OH236881   9.041   3.215  10.001  0.2080  0.1332  0.0849
 4229TIP3    H136882   8.984   3.263  10.061  1.4486 -0.4569  1.8325
 4229TIP3    H236883   9.117   3.272   9.990 -0.0758  0.2978 -1.0650
 4230TIP3   OH236884   4.968   2.299  10.424 -0.3226 -0.1522 -0.2737
 4230TIP3    H136885   4.912   2.300  10.501 -1.1261  1.7969 -0.8401
 4230TIP3    H236886   5.038   2.361  10.443 -1.3164  1.4621 -1.6164
 4231TIP3   OH236887   6.518   3.651  10.906  0.0704  0.1774 -0.4670
 4231TIP3    H136888   6.484   3.730  10.947 -0.6787 -0.8397  0.9696
 4231TIP3    H236889   6.464   3.580  10.942  1.0939 -1.0580 -1.2554
 4232TIP3   OH236890   9.124   1.005   9.359  0.7961 -0.3920 -0.2622
 4232TIP3    H136891   9.044   0.974   9.402  0.8338  1.7014  1.5110
 4232TIP3    H236892   9.094   1.069   9.295  0.9829 -0.5526 -0.5121
 4233TIP3   OH236893   0.956   1.461  10.333  0.0967  0.3966 -0.5441
 4233TIP3    H136894   0.862   1.446  10.342  0.2790 -1.3525 -1.2451
 4233TIP3    H236895   0.991   1.448  10.421  0.2178 -3.6531 -1.0073
 4234TIP3   OH236896   4.602   8.671   9.554 -0.2460  0.1050 -0.1278
 4234TIP3    H136897   4.687   8.712   9.538  0.3726  0.2415  2.8176
 4234TIP3    H236898   4.601   8.655   9.649 -2.6462 -1.8669 -0.3770
 4235TIP3   OH236899   6.870   8.082   9.643 -0.1079  0.5886  0.3721
 4235TIP3    H136900   6.912   8.106   9.726  0.0471 -0.1342  0.5145
 4235TIP3    H236901   6.792   8.137   9.638 -0.7245 -0.1563  1.5458
 4236TIP3   OH236902   3.768   7.391  10.628  0.0939 -0.1597  0.1609
 4236TIP3    H136903   3.710   7.355  10.695 -0.2962 -1.2130 -0.7101
 4236TIP3    H236904   3.713   7.452  10.579 -0.7881 -2.2754 -1.6213
 4237TIP3   OH236905   6.687   6.553  10.987 -0.1228 -0.4066 -0.4731
 4237TIP3    H136906   6.672   6.517  11.075  0.1383 -0.5529 -0.4883
 4237TIP3    H236907   6.599   6.566  10.952 -0.2920  1.2041  0.4377
 4238TIP3   OH236908   6.702   1.209   9.606 -0.1989  0.3899 -0.6721
 4238TIP3    H136909   6.608   1.222   9.596 -0.3910 -0.4697 -0.0337
 4238TIP3    H236910   6.711   1.120   9.640  0.7737  0.8408  0.3218
 4239TIP3   OH236911   8.927   5.020  10.735  0.2458  0.6027 -0.0262
 4239TIP3    H136912   8.962   5.079  10.668  1.3244  0.1317  0.1067
 4239TIP3    H236913   9.004   4.991  10.784 -0.4037 -0.0005  0.6556
 4240TIP3   OH236914   3.828   6.911   9.898 -0.3053  0.5481 -0.3510
 4240TIP3    H136915   3.898   6.850   9.872  0.2289  0.7326  0.6242
 4240TIP3    H236916   3.822   6.972   9.824 -1.8976 -1.5085 -2.0672
 4241TIP3   OH236917   1.344   0.415  10.308  0.2569 -0.5445 -0.3200
 4241TIP3    H136918   1.435   0.434  10.284  0.4271 -0.4071  0.4279
 4241TIP3    H236919   1.307   0.374  10.229  0.9675 -0.6097 -0.6285
 4242TIP3   OH236920   3.411   3.410  10.926  0.0210 -0.0802 -0.0914
 4242TIP3    H136921   3.406   3.332  10.982  0.8163  2.3074  3.7086
 4242TIP3    H236922   3.504   3.424  10.913  0.1171  1.8524  2.0393
 4243TIP3   OH236923   1.920   1.562   9.850 -0.2131 -0.0514 -0.6899
 4243TIP3    H136924   1.906   1.470   9.871  0.6521 -0.3990 -1.5275
 4243TIP3    H236925   1.942   1.562   9.756  0.8823  0.8687 -0.4689
 4244TIP3   OH236926   0.209   3.850   9.538  0.2692  0.3636 -0.6859
 4244TIP3    H136927   0.233   3.797   9.615  1.0441  0.3659 -0.9202
 4244TIP3    H236928   0.154   3.920   9.574  0.3191  0.1538 -0.1843
 4245TIP3   OH236929   7.651   8.716  10.257  0.0811  0.6423  0.2910
 4245TIP3    H136930   7.601   8.718  10.339  0.4691 -0.8049  0.5875
 4245TIP3    H236931   7.595   8.761  10.194 -0.4691  1.2835  1.2143
 4246TIP3   OH236932   6.446   4.630   9.623  0.5664  0.3489 -0.1361
 4246TIP3    H136933   6.500   4.709   9.621 -1.6185  1.9400 -1.1795
 4246TIP3    H236934   6.482   4.574   9.554  3.7124 -0.8482  2.2189
 4247TIP3   OH236935   4.237   3.557  10.036 -0.0946 -0.3120 -0.3839
 4247TIP3    H136936   4.243   3.610   9.957  3.4393 -0.5924 -0.4578
 4247TIP3    H236937   4.224   3.468  10.004 -3.4339  0.0475 -0.3484
 4248TIP3   OH236938   4.087   4.569  10.371 -0.3633  0.2820 -0.2859
 4248TIP3    H136939   4.140   4.570  10.292 -2.7316 -1.6083 -2.0710
 4248TIP3    H236940   4.141   4.525  10.437  1.0139  0.3094 -1.3657
 4249TIP3   OH236941   2.999   3.471   9.543  0.4829  0.4264  0.0361
 4249TIP3    H136942   2.934   3.505   9.604  1.2260 -0.6669  1.5171
 4249TIP3    H236943   3.083   3.496   9.582  1.0005 -1.3957  0.1622
 4250TIP3   OH236944   5.581   2.370  10.074  0.7023  0.5274  0.6791
 4250TIP3    H136945   5.563   2.437  10.141 -0.5844  0.6296  0.2684
 4250TIP3    H236946   5.515   2.302  10.090  1.1123  0.0153  0.2222
 4251TIP3   OH236947   7.852   5.039  10.961 -0.2730 -0.0196 -0.5509
 4251TIP3    H136948   7.853   5.072  10.871  0.2171  2.0644  0.1672
 4251TIP3    H236949   7.773   4.984  10.965 -0.2872 -0.1726 -2.2351
 4252TIP3   OH236950   4.164   0.709   9.266  0.0328  0.3790 -0.0151
 4252TIP3    H136951   4.097   0.690   9.200  2.5703 -0.8430 -2.4543
 4252TIP3    H236952   4.174   0.627   9.314 -0.9072  0.8865  1.0948
 4253TIP3   OH236953   4.226   0.140  10.885 -0.5156 -0.9080 -0.0625
 4253TIP3    H136954   4.234   0.088  10.965 -0.5887  0.6479  1.0128
 4253TIP3    H236955   4.165   0.092  10.830 -1.2766 -1.5066  1.2671
 4254TIP3   OH236956   7.305   8.272   9.609 -0.0400 -0.6560  0.5630
 4254TIP3    H136957   7.377   8.325   9.574 -1.2788 -0.0114 -1.1493
 4254TIP3    H236958   7.229   8.297   9.557 -1.8344 -0.3983  3.1155
 4255TIP3   OH236959   5.291   7.687  10.532  0.1721  0.4659  0.1774
 4255TIP3    H136960   5.250   7.651  10.611 -1.6025  1.6889 -0.1183
 4255TIP3    H236961   5.232   7.661  10.461  0.7975  0.8887 -0.5066
 4256TIP3   OH236962   3.961   5.461  10.223 -0.1781  0.5607 -0.1619
 4256TIP3    H136963   3.909   5.389  10.188  0.1939  0.1139  0.1935
 4256TIP3    H236964   3.978   5.438  10.314  1.0130  0.4696 -0.3893
 4257TIP3   OH236965   4.628   4.223  10.605  0.7598 -0.0387  0.0509
 4257TIP3    H136966   4.535   4.228  10.586  0.3917  0.7808  1.9137
 4257TIP3    H236967   4.648   4.304  10.652  2.2427 -0.5406  0.3568
 4258TIP3   OH236968   8.109   8.707  10.725 -0.6266  0.0323  0.1403
 4258TIP3    H136969   8.123   8.799  10.745  1.3970  1.1256 -4.9072
 4258TIP3    H236970   8.023   8.703  10.684 -0.1384 -0.0289 -0.8985
 4259TIP3   OH236971   5.771   5.674  10.207  0.0794  0.4768 -0.0768
 4259TIP3    H136972   5.850   5.677  10.261  0.7524  1.2559 -1.0724
 4259TIP3    H236973   5.729   5.591  10.232  1.8569 -0.5852 -0.4073
 4260TIP3   OH236974   0.315   9.061  10.699 -0.1716  0.2281  0.1618
 4260TIP3    H136975   0.403   9.025  10.709 -0.6772 -1.5395 -1.1288
 4260TIP3    H236976   0.304   9.121  10.772  1.9101  0.0977  0.6311
 4261TIP3   OH236977   4.176   4.259  10.936 -0.0851  0.0415  0.1470
 4261TIP3    H136978   4.221   4.328  10.984  1.1318 -0.4601 -0.2427
 4261TIP3    H236979   4.143   4.303  10.857 -0.9912  0.5825  0.8061
 4262TIP3   OH236980   7.774   7.664  10.224  0.1713 -0.4053 -0.2379
 4262TIP3    H136981   7.805   7.577  10.198  1.4758  0.0520 -0.2794
 4262TIP3    H236982   7.854   7.713  10.245 -0.5757  0.6332  0.2685
 4263TIP3   OH236983   3.410   5.472  10.450  0.1577  0.5747 -0.4361
 4263TIP3    H136984   3.499   5.496  10.423  0.1492  3.0440  1.4291
 4263TIP3    H236985   3.407   5.377  10.439  3.0198  0.4100 -0.5871
 4264TIP3   OH236986   4.805   3.270  10.610 -0.0357  0.2006  0.8953
 4264TIP3    H136987   4.896   3.254  10.584 -0.2657  0.1381  0.1025
 4264TIP3    H236988   4.785   3.199  10.671  0.2519 -0.1533  0.5844
 4265TIP3   OH236989   7.336   9.137   9.440 -0.1786  0.0318  0.2746
 4265TIP3    H136990   7.243   9.149   9.419  0.1686  1.6310 -0.5181
 4265TIP3    H236991   7.360   9.216   9.489  1.2100  0.5724 -1.1992
 4266TIP3   OH236992   9.035   2.470  10.708  0.4840  0.4922 -0.7361
 4266TIP3    H136993   9.101   2.515  10.761  1.4925 -1.3723 -0.3148
 4266TIP3    H236994   9.071   2.382  10.694 -0.4419  0.4352 -3.2644
 4267TIP3   OH236995   8.734   3.481   9.695 -0.3022  0.1889  1.1904
 4267TIP3    H136996   8.705   3.395   9.724  1.0063 -0.1189  1.6647
 4267TIP3    H236997   8.717   3.539   9.769  2.2911 -0.4388  2.3900
 4268TIP3   OH236998   1.323   3.429  11.074  0.2466  0.4142 -0.2167
 4268TIP3    H136999   1.360   3.409  10.987  0.7609  0.6473 -0.0596
 4268TIP3    H237000   1.392   3.404  11.135  0.2084  0.9979  0.0764
 4269TIP3   OH237001   5.724   5.607  10.644 -0.1982 -0.7029 -0.0238
 4269TIP3    H137002   5.778   5.556  10.583 -0.8031 -0.8519 -0.4445
 4269TIP3    H237003   5.751   5.698  10.629 -0.0897 -0.7720 -0.2627
 4270TIP3   OH237004   0.211   2.014  10.040 -0.8238  0.1575  0.1534
 4270TIP3    H137005   0.155   2.041  10.113 -0.8995 -0.9392  0.5292
 4270TIP3    H237006   0.156   2.025   9.963 -1.9066 -1.6983  0.5978
 4271TIP3   OH237007   1.523   9.183  10.438  0.5054 -0.1099  0.8131
 4271TIP3    H137008   1.593   9.224  10.489 -0.9888  1.6141  1.6026
 4271TIP3    H237009   1.443   9.218  10.476 -0.7470 -0.7008 -1.1638
 4272TIP3   OH237010   2.983   1.317  10.154  0.3120  0.4320  0.3520
 4272TIP3    H137011   3.042   1.305  10.228  0.2232 -1.0493  0.2118
 4272TIP3    H237012   2.898   1.332  10.193  0.2721 -0.3132  0.5653
 4273TIP3   OH237013   0.707   1.353  10.401 -0.4766 -0.0380  0.0481
 4273TIP3    H137014   0.637   1.415  10.379  0.7692  0.6707 -2.2815
 4273TIP3    H237015   0.690   1.277  10.346  0.3888  0.0096 -0.2931
 4274TIP3   OH237016   5.051   1.371   9.252  0.3904 -1.1286  0.1547
 4274TIP3    H137017   5.124   1.411   9.299  0.7800 -2.4992  0.7691
 4274TIP3    H237018   4.991   1.342   9.322  0.5512 -2.3904 -0.2114
 4275TIP3   OH237019   8.460   7.243   9.970  0.0587 -0.0591 -0.0747
 4275TIP3    H137020   8.553   7.252   9.993  0.2693  0.8473 -1.1762
 4275TIP3    H237021   8.462   7.209   9.881 -0.6337  1.3646 -0.6583
 4276TIP3   OH237022   1.997   0.991  11.212  1.3610  0.1255  0.1730
 4276TIP3    H137023   1.947   1.012  11.133  0.7951 -0.1544  0.4484
 4276TIP3    H237024   2.057   0.922  11.185  0.3103 -0.8646  0.2591
 4277TIP3   OH237025   2.655   6.288   9.968 -0.1533  0.7215  0.3826
 4277TIP3    H137026   2.748   6.308   9.983 -0.1858 -0.2875  2.3255
 4277TIP3    H237027   2.654   6.233   9.890  1.0008 -0.0110  0.8631
 4278TIP3   OH237028   4.072   1.254   9.956  0.0740  0.1135 -0.3419
 4278TIP3    H137029   4.037   1.301  10.032  2.1274 -0.2314  0.9022
 4278TIP3    H237030   4.111   1.323   9.902 -0.8578  0.2928 -0.8012
 4279TIP3   OH237031   6.586   3.888   9.075  0.3375 -0.6943  0.1045
 4279TIP3    H137032   6.504   3.888   9.124  0.0079 -0.0124 -0.4219
 4279TIP3    H237033   6.614   3.796   9.074 -0.1132 -0.8428  0.7839
 4280TIP3   OH237034   1.484   8.658   9.522  0.3080  0.5778 -0.1842
 4280TIP3    H137035   1.449   8.672   9.610  2.3455 -2.4034  1.2740
 4280TIP3    H237036   1.407   8.636   9.469 -0.7400  0.3909  1.3636
 4281TIP3   OH237037   8.590   8.867  10.126 -0.2029  0.1275  1.3940
 4281TIP3    H137038   8.527   8.882  10.197  0.2281 -0.2093  1.8587
 4281TIP3    H237039   8.673   8.851  10.171  0.3354  1.0925  0.7821
 4282TIP3   OH237040   2.408   8.362   9.202  0.5229 -0.1680 -0.3825
 4282TIP3    H137041   2.352   8.295   9.162 -1.0066  0.3906  0.7111
 4282TIP3    H237042   2.456   8.316   9.270 -0.1598 -0.2713  0.0403
 4283TIP3   OH237043   1.440   1.355  11.211  0.3371  0.5530 -0.0116
 4283TIP3    H137044   1.365   1.303  11.184  0.1159  0.4195  0.8232
 4283TIP3    H237045   1.475   1.309  11.288  0.6006  1.2096  0.2725
 4284TIP3   OH237046   2.208   7.369  10.633  0.5506  0.0522 -0.2018
 4284TIP3    H137047   2.249   7.288  10.603 -0.9479 -1.2293  1.0390
 4284TIP3    H237048   2.266   7.438  10.601  1.6454 -1.4592 -1.6894
 4285TIP3   OH237049   5.946   0.375  11.018 -0.3446  0.5561  0.1870
 4285TIP3    H137050   5.862   0.329  11.018 -0.0354 -0.0283 -0.8355
 4285TIP3    H237051   6.011   0.307  11.004  0.3490  0.9644  1.2909
 4286TIP3   OH237052   8.964   0.588  10.963 -0.2402 -0.2694 -0.1725
 4286TIP3    H137053   8.895   0.633  11.012 -0.4403 -2.0303  1.3014
 4286TIP3    H237054   8.924   0.566  10.879 -1.6292 -1.4915  0.7570
 4287TIP3   OH237055   0.298   5.098  10.402  0.3588 -0.2476  0.0711
 4287TIP3    H137056   0.391   5.078  10.399  0.1658 -1.7251  1.9994
 4287TIP3    H237057   0.289   5.159  10.476  0.0375  1.7330 -1.5175
 4288TIP3   OH237058   3.821   5.141  10.818 -0.2365 -0.4413 -0.2755
 4288TIP3    H137059   3.897   5.108  10.865  0.1297 -0.4036 -0.8344
 4288TIP3    H237060   3.753   5.075  10.834 -0.4885  0.1431  1.2732
 4289TIP3   OH237061   8.669   3.561   9.949 -0.0667 -0.0097 -0.2613
 4289TIP3    H137062   8.646   3.469   9.951 -1.5319  0.3384  0.0252
 4289TIP3    H237063   8.690   3.583  10.040  1.0529 -0.2250 -0.4528
 4290TIP3   OH237064   2.255   0.877  10.512 -0.4396 -0.3839 -0.4991
 4290TIP3    H137065   2.316   0.828  10.568  1.1597  0.8618 -1.0562
 4290TIP3    H237066   2.309   0.904  10.437 -2.2374 -1.0709 -2.1192
 4291TIP3   OH237067   1.009   2.538  10.914 -0.0216  0.0234  0.2662
 4291TIP3    H137068   0.978   2.628  10.908  1.3306  0.4500 -0.7357
 4291TIP3    H237069   1.100   2.546  10.941 -0.1657 -1.1107  1.1713
 4292TIP3   OH237070   5.216   0.001  11.081 -0.5166  0.1587 -0.4219
 4292TIP3    H137071   5.214  -0.004  10.985  0.8582  0.5822 -0.4979
 4292TIP3    H237072   5.166   0.079  11.102 -0.1862  0.4960 -0.8637
 4293TIP3   OH237073   4.852   8.745  10.613  0.0983 -0.1144  0.2468
 4293TIP3    H137074   4.889   8.743  10.701 -2.4191 -0.3385  1.4075
 4293TIP3    H237075   4.884   8.665  10.572  0.9350 -0.2566  1.1358
 4294TIP3   OH237076   9.052   2.061  10.326  0.6748  0.1522 -0.5872
 4294TIP3    H137077   8.987   2.118  10.285 -0.5352 -0.7604  0.0044
 4294TIP3    H237078   9.003   2.011  10.391  1.8623 -0.9611 -0.5036
 4295TIP3   OH237079   8.895   8.743   9.961  0.6392 -0.0686 -0.3886
 4295TIP3    H137080   8.897   8.790  10.045  0.3017  0.7486 -0.8319
 4295TIP3    H237081   8.983   8.705   9.953  0.1366 -1.7498  1.2030
 4296TIP3   OH237082   6.191   6.770  10.405  0.1660  0.1932 -0.2331
 4296TIP3    H137083   6.260   6.835  10.415 -0.1137  0.5823 -0.8105
 4296TIP3    H237084   6.225   6.708  10.341 -1.3073  2.2036 -3.1443
 4297TIP3   OH237085   6.237   5.953  11.476  0.7156 -0.3728 -0.3628
 4297TIP3    H137086   6.158   6.005  11.486  0.8054 -0.2443 -0.3273
 4297TIP3    H237087   6.305   6.002  11.523  1.4128  0.8261 -2.4859
 4298TIP3   OH237088   6.575   4.855  10.399  0.3112 -0.0453 -0.9234
 4298TIP3    H137089   6.491   4.808  10.396 -0.6046  1.4163  0.3800
 4298TIP3    H237090   6.638   4.789  10.429 -0.7039 -0.7394 -0.2438
 4299TIP3   OH237091   0.764   0.638  10.381 -0.5072 -0.4350 -0.5886
 4299TIP3    H137092   0.749   0.686  10.463 -0.6970 -0.2415 -0.7360
 4299TIP3    H237093   0.726   0.551  10.397  0.5843 -0.8233 -0.0238
 4300TIP3   OH237094   7.318   4.988   9.584  0.0017  0.1316  0.4703
 4300TIP3    H137095   7.247   4.936   9.546  0.3752 -1.2152  1.5530
 4300TIP3    H237096   7.377   5.003   9.510 -1.1115  0.8248 -0.3247
 4301TIP3   OH237097   7.962   6.369  10.470  0.1715 -0.1895 -0.1270
 4301TIP3    H137098   8.022   6.370  10.544  1.0164  3.7128 -0.6557
 4301TIP3    H237099   8.016   6.350  10.394 -0.0406 -0.7458 -0.1412
 4302TIP3   OH237100   3.608   4.516  10.524  0.1137 -0.2856 -0.6817
 4302TIP3    H137101   3.567   4.562  10.451 -0.0692  0.2725 -0.2317
 4302TIP3    H237102   3.540   4.455  10.555  0.7211 -1.6898 -1.9781
 4303TIP3   OH237103   7.252   1.187   9.345  0.1005  0.1708 -0.7550
 4303TIP3    H137104   7.348   1.189   9.347  0.1210 -0.6675 -0.4161
 4303TIP3    H237105   7.230   1.210   9.254  0.5234  2.4686 -0.3373
 4304TIP3   OH237106   8.371   0.094  10.257 -0.8177  0.5148  0.0774
 4304TIP3    H137107   8.392   0.080  10.349 -2.2632  0.7467  0.4670
 4304TIP3    H237108   8.451   0.132  10.219 -0.3344  0.7707  1.3118
 4305TIP3   OH237109   7.208   5.613  11.144 -0.0084 -0.1560 -0.3388
 4305TIP3    H137110   7.217   5.518  11.142  0.4771 -0.1730  1.3914
 4305TIP3    H237111   7.298   5.646  11.142 -0.0672  0.1746  1.3919
 4306TIP3   OH237112   7.681   3.503  10.884 -0.0235 -0.2772 -0.1234
 4306TIP3    H137113   7.760   3.522  10.934  0.9632 -1.7498 -1.0428
 4306TIP3    H237114   7.641   3.589  10.868  2.0468  0.6319 -0.6873
 4307TIP3   OH237115   1.047   5.995  10.790  0.3619  0.2676  0.1951
 4307TIP3    H137116   1.115   6.063  10.789  1.7558 -1.0414 -1.4605
 4307TIP3    H237117   1.091   5.918  10.825 -1.3096  0.2393  2.4049
 4308TIP3   OH237118   7.576   6.723  10.925 -0.0224  0.3396  0.1946
 4308TIP3    H137119   7.497   6.745  10.974 -0.2191 -0.5071  0.2650
 4308TIP3    H237120   7.639   6.696  10.992  0.0880  0.2911  0.0725
 4309TIP3   OH237121   2.181   2.190  10.626  0.3602 -0.0119 -0.1858
 4309TIP3    H137122   2.124   2.223  10.695 -0.3803 -1.7253  0.0811
 4309TIP3    H237123   2.134   2.208  10.545  0.6793  0.9422 -0.1653
 4310TIP3   OH237124   3.680   2.176  10.181  0.2238 -0.6194 -0.2142
 4310TIP3    H137125   3.732   2.110  10.135  1.0064 -1.4877  1.7790
 4310TIP3    H237126   3.611   2.125  10.224  0.0647  0.0159  0.2945
 4311TIP3   OH237127   1.663   7.639   9.964 -0.5882  0.1692  0.0813
 4311TIP3    H137128   1.682   7.669   9.875  0.8890  0.9024  0.6239
 4311TIP3    H237129   1.691   7.547   9.964  0.9674  0.6181  0.2301
 4312TIP3   OH237130   7.929   3.229  11.384 -0.2106 -0.8034 -0.1331
 4312TIP3    H137131   7.931   3.154  11.325 -1.4598 -0.4273 -0.6822
 4312TIP3    H237132   7.835   3.245  11.399  0.0636 -0.1184  0.9624
 4313TIP3   OH237133   5.385   1.026  10.252 -0.6057  0.1689  0.9939
 4313TIP3    H137134   5.426   1.061  10.172  0.1761 -0.7762  0.9731
 4313TIP3    H237135   5.445   0.958  10.283 -0.6628  0.8204  2.6516
 4314TIP3   OH237136   2.193   0.524   9.710 -0.1078  0.2882 -0.3675
 4314TIP3    H137137   2.113   0.573   9.732  0.4194  1.4001 -0.8494
 4314TIP3    H237138   2.264   0.574   9.750  0.5272  0.4262 -1.6004
 4315TIP3   OH237139   1.113   8.010   9.747  0.1287 -0.3598 -0.1693
 4315TIP3    H137140   1.116   7.935   9.688  1.2221  0.7355 -1.5975
 4315TIP3    H237141   1.039   8.062   9.717 -1.0545 -1.1394  1.2483
 4316TIP3   OH237142   6.241   3.509  10.180 -0.0227  0.3272 -0.2088
 4316TIP3    H137143   6.330   3.507  10.216 -0.3620  1.3238  0.7650
 4316TIP3    H237144   6.236   3.432  10.124  1.4033  0.1660 -0.1650
 4317TIP3   OH237145   0.297   5.782  10.946 -0.0332 -0.8923  0.0807
 4317TIP3    H137146   0.376   5.754  10.992  0.1001 -2.2478 -0.9095
 4317TIP3    H237147   0.261   5.701  10.910  0.5638  0.1974 -3.2807
 4318TIP3   OH237148   8.145   9.136   9.832 -0.8635  0.2612 -0.2002
 4318TIP3    H137149   8.126   9.046   9.858 -1.5277  0.4230 -0.0985
 4318TIP3    H237150   8.089   9.150   9.755 -0.2054  0.3451 -0.6718
 4319TIP3   OH237151   3.630   3.799   9.632 -0.0290 -0.2006 -0.2268
 4319TIP3    H137152   3.548   3.760   9.662 -0.2254  1.5713  1.7440
 4319TIP3    H237153   3.698   3.755   9.684 -0.1163  0.9755  0.9217
 4320TIP3   OH237154   5.732   2.533  11.218 -0.6166  0.2330  0.1055
 4320TIP3    H137155   5.671   2.597  11.181 -0.3147  0.1382 -0.5640
 4320TIP3    H237156   5.816   2.578  11.220 -0.4072 -0.1290 -0.3475
 4321TIP3   OH237157   0.231   6.751   9.917  0.0252  0.1638  0.3812
 4321TIP3    H137158   0.148   6.730   9.873  0.6363 -1.7673  0.0599
 4321TIP3    H237159   0.293   6.767   9.846  0.3027  0.0707  0.5996
 4322TIP3   OH237160   9.174   3.365  11.066  0.2632  0.5502  0.3374
 4322TIP3    H137161   9.234   3.393  10.997  1.0148 -0.5030  0.5341
 4322TIP3    H237162   9.183   3.432  11.133  1.3254  0.3612  0.4114
 4323TIP3   OH237163   5.621   2.019  10.649 -0.2446 -0.3536  0.3304
 4323TIP3    H137164   5.672   2.093  10.682  0.9726 -0.8153 -0.4097
 4323TIP3    H237165   5.565   2.057  10.581 -2.1931  0.4583  2.3045
 4324TIP3   OH237166   0.075   2.570   9.091  0.0712  0.4715 -0.4352
 4324TIP3    H137167   0.160   2.605   9.062  0.0897  1.5809  0.8499
 4324TIP3    H237168   0.043   2.635   9.154 -1.0849 -0.6287  0.1522
 4325TIP3   OH237169   1.509   6.406  10.822 -0.8753  0.2925  0.4079
 4325TIP3    H137170   1.538   6.486  10.777 -1.1255  1.1360  1.6703
 4325TIP3    H237171   1.414   6.409  10.816 -0.8536 -0.3571 -0.2645
 4326TIP3   OH237172   5.386   2.168  10.119 -0.0151  0.0416  0.2763
 4326TIP3    H137173   5.332   2.142  10.044 -0.4166  1.8800 -0.1354
 4326TIP3    H237174   5.348   2.122  10.194 -1.2047  0.0981 -0.2687
 4327TIP3   OH237175   4.945   7.389  10.675  0.0311  0.1897  0.5114
 4327TIP3    H137176   4.862   7.341  10.672  0.0840  0.1270 -1.2500
 4327TIP3    H237177   5.008   7.329  10.635  0.7217  0.6180  0.9520
 4328TIP3   OH237178   9.092   0.808   8.813  0.5600  0.2574  0.2253
 4328TIP3    H137179   9.036   0.771   8.744  1.0711  1.4805 -0.8796
 4328TIP3    H237180   9.139   0.732   8.849  0.3438 -0.3958 -0.8177
 4329TIP3   OH237181   7.239   8.254   9.869 -0.6772 -0.4741 -0.0401
 4329TIP3    H137182   7.292   8.333   9.882 -2.4902  1.0391 -1.3602
 4329TIP3    H237183   7.273   8.217   9.788 -0.6472 -0.3489 -0.0865
 4330TIP3   OH237184   0.897   3.678  10.188  0.5657 -0.5204 -0.1266
 4330TIP3    H137185   0.811   3.678  10.146  1.1639  1.0155 -1.4280
 4330TIP3    H237186   0.880   3.648  10.277 -1.7380  2.1253  0.4493
 4331TIP3   OH237187   2.034   2.266  10.423  0.5331 -0.1192 -0.4084
 4331TIP3    H137188   2.063   2.329  10.358  0.3980  0.7503  0.3490
 4331TIP3    H237189   1.942   2.250  10.402 -0.3388  2.2949  1.1603
 4332TIP3   OH237190   8.101   8.962  10.798 -0.3363  0.0645 -0.3646
 4332TIP3    H137191   8.169   9.025  10.819  0.5952  0.4114 -3.7942
 4332TIP3    H237192   8.021   9.014  10.789 -0.1762  0.3027 -0.4095
 4333TIP3   OH237193   7.501   4.593  10.436  0.1405 -0.4210 -1.0537
 4333TIP3    H137194   7.593   4.620  10.442  0.7210 -2.3790 -0.1034
 4333TIP3    H237195   7.457   4.666  10.393  1.4260  2.2606  1.7558
 4334TIP3   OH237196   8.128   0.644  10.424 -0.0197  0.0149  0.1887
 4334TIP3    H137197   8.128   0.587  10.500  2.0692  1.2574  1.2188
 4334TIP3    H237198   8.058   0.610  10.368  0.5985 -3.0356  1.0790
 4335TIP3   OH237199   4.074   8.305  10.021  0.5113 -0.4811 -0.0955
 4335TIP3    H137200   4.099   8.235   9.960  0.7784 -0.4752  0.0072
 4335TIP3    H237201   4.115   8.384   9.987  0.3638 -0.4084 -0.1083
 4336TIP3   OH237202   8.132   3.556  10.227  0.5090  0.2728 -0.1525
 4336TIP3    H137203   8.178   3.618  10.284  0.9218 -1.9699  2.1492
 4336TIP3    H237204   8.047   3.543  10.270  0.2788 -0.4343 -0.8210
 4337TIP3   OH237205   2.479   7.191  10.778 -0.1466  0.3446 -0.1405
 4337TIP3    H137206   2.480   7.106  10.821 -1.3840  0.9169  1.1046
 4337TIP3    H237207   2.494   7.172  10.685  2.8183 -0.9232  0.4825
 4338TIP3   OH237208   9.014   0.483  10.536 -0.2778 -0.3819 -0.8619
 4338TIP3    H137209   9.104   0.463  10.565 -0.2940  0.1208 -0.4663
 4338TIP3    H237210   9.016   0.575  10.512 -0.6124 -0.4525 -1.1763
 4339TIP3   OH237211   2.956   4.665   9.509 -0.3162 -0.0518 -0.1183
 4339TIP3    H137212   2.871   4.624   9.522 -0.4381 -0.0314 -0.8181
 4339TIP3    H237213   3.011   4.632   9.580 -1.2095  0.7735  0.9964
 4340TIP3   OH237214   7.956   2.108  10.583  0.1692 -0.0180 -0.3737
 4340TIP3    H137215   7.990   2.128  10.670 -0.3667  0.8661 -0.3448
 4340TIP3    H237216   7.962   2.013  10.575  0.8181 -0.0503  0.3708
 4341TIP3   OH237217   1.186   1.106   9.334  0.6783 -0.4201  0.9645
 4341TIP3    H137218   1.261   1.166   9.332  0.4255  0.0607  3.0331
 4341TIP3    H237219   1.206   1.046   9.406 -0.3892 -1.0268  0.7777
 4342TIP3   OH237220   3.085   2.507   9.676 -0.1022  0.4851 -0.0766
 4342TIP3    H137221   3.075   2.479   9.585 -0.8014 -0.3123  0.2330
 4342TIP3    H237222   3.170   2.470   9.703 -1.8065 -3.2263  0.9108
 4343TIP3   OH237223   6.547   0.106   9.264  0.4378 -0.2201 -0.5951
 4343TIP3    H137224   6.587   0.038   9.209  2.5467  2.4527 -2.7111
 4343TIP3    H237225   6.453   0.092   9.255  0.7791 -2.6318 -1.1649
 4344TIP3   OH237226   2.865   8.387  10.306  0.1158 -0.0080  0.0598
 4344TIP3    H137227   2.960   8.387  10.299  0.3253 -2.6667  1.5807
 4344TIP3    H237228   2.837   8.312  10.253 -0.9637 -0.2565  0.9349
 4345TIP3   OH237229   5.269   8.492  11.227 -0.6361 -0.7072  0.6501
 4345TIP3    H137230   5.278   8.588  11.221  0.7550 -0.8971 -0.8974
 4345TIP3    H237231   5.254   8.476  11.320 -0.5354  0.9976  1.0008
 4346TIP3   OH237232   5.960   7.400  10.604 -0.0309 -0.4820 -0.0028
 4346TIP3    H137233   6.048   7.365  10.593  0.2411 -0.3937  1.6423
 4346TIP3    H237234   5.952   7.416  10.698 -2.0504 -1.1275 -0.0121
 4347TIP3   OH237235   0.080   2.207  10.284  0.9172  0.1828  0.3994
 4347TIP3    H137236   0.003   2.153  10.304  0.3254  0.5954 -0.6970
 4347TIP3    H237237   0.058   2.250  10.202  0.6248  3.5213  2.0519
 4348TIP3   OH237238   8.078   6.203   9.834  0.1238 -0.3647 -0.9515
 4348TIP3    H137239   8.131   6.274   9.870 -2.4920  1.6114 -0.7104
 4348TIP3    H237240   8.099   6.127   9.888  0.1996  1.2066  1.3725
 4349TIP3   OH237241   6.422   7.948  10.482  0.4783 -0.4266 -0.5379
 4349TIP3    H137242   6.338   7.944  10.438 -0.5435  1.7516  1.0521
 4349TIP3    H237243   6.415   7.882  10.552  0.2402 -0.5189 -0.6482
 4350TIP3   OH237244   7.272   4.217  10.733 -0.0499  0.2117 -0.6338
 4350TIP3    H137245   7.253   4.274  10.658 -0.8312  0.3161 -0.3619
 4350TIP3    H237246   7.187   4.182  10.759  0.1400  0.5374  0.4983
 4351TIP3   OH237247   8.213   4.111  10.706  0.4905 -0.0943  0.1869
 4351TIP3    H137248   8.170   4.155  10.780  0.0221 -0.8903  0.3976
 4351TIP3    H237249   8.229   4.181  10.643 -1.0960  0.2389  0.1193
 4352TIP3   OH237250   0.754   4.155  10.563  0.6434  0.3509 -0.1799
 4352TIP3    H137251   0.728   4.247  10.562  0.6566  0.3578  0.3303
 4352TIP3    H237252   0.849   4.157  10.554  0.6370  0.3844 -0.2400
 4353TIP3   OH237253   0.523   7.283   9.683 -0.0332 -0.2041 -0.0168
 4353TIP3    H137254   0.616   7.300   9.693 -0.2971  1.4430 -0.1307
 4353TIP3    H237255   0.518   7.189   9.663  1.3461 -0.9958  2.8767
 4354TIP3   OH237256   6.121   8.728   9.414 -0.2468 -0.7274 -0.0841
 4354TIP3    H137257   6.200   8.738   9.468  0.8262 -2.2531 -1.2587
 4354TIP3    H237258   6.085   8.644   9.439 -1.5050 -0.0691  0.3952
 4355TIP3   OH237259   0.146   8.828   8.973  0.2856 -0.0218 -0.2472
 4355TIP3    H137260   0.121   8.804   9.062  0.2546 -0.9434 -0.4936
 4355TIP3    H237261   0.063   8.845   8.928  0.2249 -0.8504 -0.4529
 4356TIP3   OH237262   4.802   6.884   9.486 -0.1675  0.2056 -0.0618
 4356TIP3    H137263   4.823   6.895   9.394 -1.5903 -2.2450 -0.7536
 4356TIP3    H237264   4.886   6.867   9.528  0.3869  0.4363 -1.0528
 4357TIP3   OH237265   4.166   5.551   9.874 -0.0784 -0.1805 -0.7541
 4357TIP3    H137266   4.094   5.488   9.880  0.4956 -0.7237  1.2095
 4357TIP3    H237267   4.196   5.545   9.784 -0.7098 -1.9672 -0.8736
 4358TIP3   OH237268   8.002   1.066  10.286 -0.0862 -0.2503 -0.3866
 4358TIP3    H137269   8.017   1.160  10.295 -0.2388 -0.2639  0.0459
 4358TIP3    H237270   8.084   1.032  10.251  0.0905 -0.0031 -0.2164
 4359TIP3   OH237271   0.455   5.852   9.779  0.5924 -0.1731 -0.7508
 4359TIP3    H137272   0.452   5.932   9.726  0.7619 -1.1724 -2.3403
 4359TIP3    H237273   0.390   5.794   9.740 -2.2352  0.4156  2.6176
 4360TIP3   OH237274   7.297   3.022  11.069  0.4189 -0.5031 -0.7677
 4360TIP3    H137275   7.308   2.972  11.150 -1.0653  0.1192 -0.1295
 4360TIP3    H237276   7.209   2.999  11.039 -0.4641  1.8836 -0.2682
 4361TIP3   OH237277   5.646   5.309  11.056 -0.5382 -0.0293 -0.0002
 4361TIP3    H137278   5.651   5.318  10.961  0.3900  1.7804  0.1711
 4361TIP3    H237279   5.590   5.381  11.084 -1.9612 -1.3824  0.7377
 4362TIP3   OH237280   0.412   5.525  10.728  0.1599 -0.0425 -0.2050
 4362TIP3    H137281   0.461   5.448  10.700  1.4804  0.6282  0.1808
 4362TIP3    H237282   0.459   5.599  10.689  0.2481  0.7164  1.2789
 4363TIP3   OH237283   0.898   1.917  10.602  0.2208 -0.0893  0.2167
 4363TIP3    H137284   0.931   1.873  10.681 -0.3617  0.4533  0.7785
 4363TIP3    H237285   0.803   1.903  10.604  0.1344  0.4232 -0.0766
 4364TIP3   OH237286   3.655   8.468  11.024  0.3461 -0.0551  0.8142
 4364TIP3    H137287   3.577   8.434  11.068 -2.4544  1.4175 -2.4822
 4364TIP3    H237288   3.693   8.392  10.980  0.2621 -0.6188  1.6822
 4365TIP3   OH237289   8.578   4.738   9.961  0.4848  0.0240 -0.2551
 4365TIP3    H137290   8.533   4.728  10.045  1.5892 -1.5431  0.2006
 4365TIP3    H237291   8.551   4.824   9.929 -1.7526 -0.2765  0.6158
 4366TIP3   OH237292   9.018   5.237  10.211  0.3435  0.1138 -0.2980
 4366TIP3    H137293   8.965   5.175  10.260  1.0944 -0.6385 -0.4096
 4366TIP3    H237294   9.005   5.214  10.119  0.5139  0.2037 -0.3461
 4367TIP3   OH237295   2.889   2.025  10.108  0.3469  0.1024  0.0785
 4367TIP3    H137296   2.975   2.048  10.143 -0.4281  3.0239  0.2822
 4367TIP3    H237297   2.894   2.047  10.015  0.0385 -0.4426 -0.0736
 4368TIP3   OH237298   9.190   8.557  10.564  0.4795 -0.3663 -0.2763
 4368TIP3    H137299   9.208   8.491  10.497  0.1841  0.0139 -0.7409
 4368TIP3    H237300   9.103   8.591  10.540 -0.9345 -2.1716  1.8782
 4369TIP3   OH237301   8.490   6.805   9.712  0.0744 -0.4072 -0.1372
 4369TIP3    H137302   8.558   6.871   9.728  0.9388 -1.7327  2.2438
 4369TIP3    H237303   8.536   6.734   9.665  0.9761 -2.0696  2.9556
 4370TIP3   OH237304   1.240   5.805  10.852  0.1566 -0.1459 -0.4652
 4370TIP3    H137305   1.308   5.754  10.897  0.0240  0.4409  0.4064
 4370TIP3    H237306   1.284   5.888  10.830  0.4795 -0.7353 -2.1925
 4371TIP3   OH237307   7.552   6.237  10.171  0.3177  0.3441  0.4347
 4371TIP3    H137308   7.499   6.316  10.158 -0.6463 -0.5126 -1.0588
 4371TIP3    H237309   7.638   6.259  10.136 -0.8197 -0.2334 -3.1208
 4372TIP3   OH237310   6.720   2.215  10.655  0.9758 -0.0722 -0.9444
 4372TIP3    H137311   6.810   2.243  10.668  0.9118 -0.2725  0.0343
 4372TIP3    H237312   6.687   2.197  10.744  0.9369 -2.9778 -1.4426
 4373TIP3   OH237313   4.309   6.469  10.385  0.2735  0.2347  0.8313
 4373TIP3    H137314   4.241   6.447  10.321 -0.9394 -0.8869  2.4191
 4373TIP3    H237315   4.272   6.542  10.435  1.1779  1.0444  0.3622
 4374TIP3   OH237316   6.590   0.643   9.943 -0.4634 -0.6146 -0.1792
 4374TIP3    H137317   6.532   0.706   9.986 -0.2369 -0.5149 -0.0197
 4374TIP3    H237318   6.534   0.600   9.878 -1.2099 -1.8314  1.2170
 4375TIP3   OH237319   3.258   6.006  10.287 -0.4167  0.3680 -0.4402
 4375TIP3    H137320   3.221   5.960  10.211  0.4361  1.4834 -1.5590
 4375TIP3    H237321   3.224   6.095  10.280 -0.4208  0.4594  0.5758
 4376TIP3   OH237322   8.445   5.650   9.771 -0.2815 -0.2508 -0.2191
 4376TIP3    H137323   8.385   5.693   9.709 -1.1109  0.9498  1.3381
 4376TIP3    H237324   8.501   5.721   9.804  0.7087 -1.0200 -0.2055
 4377TIP3   OH237325   6.781   2.318   9.962 -0.0603 -0.3343 -0.6190
 4377TIP3    H137326   6.805   2.343  10.052 -1.1883 -1.5848  0.0666
 4377TIP3    H237327   6.769   2.223   9.966 -0.5534 -0.3460 -2.0018
 4378TIP3   OH237328   0.177   8.865  10.574 -0.7496 -0.0711  0.8319
 4378TIP3    H137329   0.099   8.919  10.586 -1.3987 -1.0834  1.3256
 4378TIP3    H237330   0.239   8.898  10.639 -0.9874  0.3371  0.8561
 4379TIP3   OH237331   0.872   3.675  11.194  0.4388 -0.0629  0.7210
 4379TIP3    H137332   0.872   3.650  11.101  0.4986 -0.4869  0.8326
 4379TIP3    H237333   0.963   3.666  11.221  0.3949 -0.0936  0.8587
 4380TIP3   OH237334   8.578   0.708  11.111 -0.1088 -0.3639 -0.3863
 4380TIP3    H137335   8.511   0.776  11.115 -0.4674 -0.6854 -0.8688
 4380TIP3    H237336   8.660   0.754  11.128 -0.0992  0.5508 -2.6271
 4381TIP3   OH237337   5.571   7.332   9.365 -0.2091  0.0372 -0.5948
 4381TIP3    H137338   5.624   7.351   9.288 -0.4078  0.4653 -0.6265
 4381TIP3    H237339   5.630   7.349   9.439 -0.8924  2.5687 -0.5492
 4382TIP3   OH237340   5.976   4.771  11.127  0.2247  0.3412 -0.0286
 4382TIP3    H137341   5.921   4.731  11.059 -0.9723  0.1293  1.0186
 4382TIP3    H237342   5.967   4.712  11.202  2.9878 -0.4407 -0.1966
 4383TIP3   OH237343   3.918   0.021  10.996 -0.5881 -0.2712  0.1574
 4383TIP3    H137344   3.914   0.065  10.911  0.0318  0.9472  0.7309
 4383TIP3    H237345   4.010  -0.003  11.005 -0.9116 -1.7087 -0.1331
 4384TIP3   OH237346   7.831   8.597   9.855  0.0792 -0.3281  0.2439
 4384TIP3    H137347   7.795   8.570   9.940 -0.6506 -0.8412 -0.2156
 4384TIP3    H237348   7.798   8.531   9.793  0.8965 -0.1625 -0.3832
 4385TIP3   OH237349   7.567   2.804  10.592  0.0746  0.3756 -0.0086
 4385TIP3    H137350   7.640   2.830  10.536  0.1203  0.2680  0.0013
 4385TIP3    H237351   7.511   2.882  10.595  1.1179  1.1411  1.4793
 4386TIP3   OH237352   7.826   5.139  10.432 -0.3352  0.3606  0.3130
 4386TIP3    H137353   7.782   5.124  10.348  0.0361  2.2893 -0.2746
 4386TIP3    H237354   7.903   5.083  10.429  1.0177  2.1404 -1.7694
 4387TIP3   OH237355   9.105   5.445  10.487  0.3247  0.2411  0.7248
 4387TIP3    H137356   9.189   5.472  10.525  0.1263  0.1650  1.2391
 4387TIP3    H237357   9.099   5.491  10.404  1.3147 -0.4982  0.2255
 4388TIP3   OH237358   3.530   5.963  10.302  0.3932  0.1165  0.2814
 4388TIP3    H137359   3.443   6.000  10.316  0.4103 -0.1620  1.1791
 4388TIP3    H237360   3.577   6.030  10.252 -0.3515  0.2381 -0.2751
 4389TIP3   OH237361   8.647   3.243  10.003 -0.3666 -0.2378  0.6768
 4389TIP3    H137362   8.600   3.295  10.069  2.7591  0.8709  2.2624
 4389TIP3    H237363   8.688   3.173  10.054  0.5791 -0.4881 -0.3940
 4390TIP3   OH237364   6.899   4.222  10.768  0.5824 -0.0656 -0.1814
 4390TIP3    H137365   6.897   4.175  10.851  0.8589  0.8094  0.3395
 4390TIP3    H237366   6.838   4.295  10.781 -0.2390 -0.5482 -1.1515
 4391TIP3   OH237367   9.012   2.155   9.083  0.1187 -0.4612 -0.3164
 4391TIP3    H137368   9.074   2.227   9.093 -0.1342 -0.3997  0.9493
 4391TIP3    H237369   9.002   2.119   9.172 -1.2260 -0.8286 -0.5951
 4392TIP3   OH237370   2.154   6.044   9.945 -0.2409 -0.3003  0.1602
 4392TIP3    H137371   2.166   6.139   9.943  0.5118 -0.4001 -0.1059
 4392TIP3    H237372   2.193   6.013   9.864  0.4791 -0.9402  0.7341
 4393TIP3   OH237373   7.301   3.710  11.089 -0.1584  0.1550  0.2747
 4393TIP3    H137374   7.279   3.625  11.126  1.1552 -0.4881 -0.3285
 4393TIP3    H237375   7.396   3.705  11.074 -0.1430  1.5500 -0.2002
 4394TIP3   OH237376   4.285   2.671  10.640  0.1321 -0.0419 -0.2007
 4394TIP3    H137377   4.341   2.724  10.583 -0.3105  0.0488 -0.5603
 4394TIP3    H237378   4.323   2.584  10.637  0.1622 -0.0162 -0.5671
 4395TIP3   OH237379   8.309   1.115   9.917 -0.1426 -0.4208  0.8866
 4395TIP3    H137380   8.285   1.103  10.009 -0.2488  1.8788  1.2008
 4395TIP3    H237381   8.389   1.167   9.920 -0.0567 -0.4651 -0.3223
 4396TIP3   OH237382   5.991   5.581  11.192  0.7768 -0.0472 -0.3148
 4396TIP3    H137383   6.039   5.647  11.144  1.7339  0.3400  1.0896
 4396TIP3    H237384   5.966   5.624  11.274 -0.9838 -0.6078 -0.5108
 4397TIP3   OH237385   3.176   5.867  10.046  0.2551 -0.3131 -0.6433
 4397TIP3    H137386   3.204   5.900   9.961  0.3607  0.5699 -0.2732
 4397TIP3    H237387   3.241   5.799  10.068  0.6600 -0.0199 -0.9244
 4398TIP3   OH237388   2.915   4.427  10.175 -0.1704 -0.2949  0.6982
 4398TIP3    H137389   2.991   4.415  10.232  0.8346  0.1569 -0.5078
 4398TIP3    H237390   2.947   4.408  10.087 -1.5452 -0.4221  0.1971
 4399TIP3   OH237391   3.387   5.900  10.997 -0.3928 -0.3916  0.0640
 4399TIP3    H137392   3.455   5.929  11.058  0.3603 -2.0673  0.0869
 4399TIP3    H237393   3.431   5.834  10.942 -1.5048 -0.1525 -1.1792
 4400TIP3   OH237394   5.027   3.474  11.188 -0.0072  0.3796 -0.2605
 4400TIP3    H137395   4.946   3.509  11.226 -0.3078  1.0756 -1.4866
 4400TIP3    H237396   4.999   3.395  11.142  0.4392 -0.7443  1.3193
 4401TIP3   OH237397   3.194   5.338  10.190  0.7720 -0.0457 -0.0690
 4401TIP3    H137398   3.208   5.330  10.284 -0.7821  0.3405  0.2279
 4401TIP3    H237399   3.125   5.275  10.171  0.9509 -0.0005 -0.9288
 4402TIP3   OH237400   7.001   8.747   9.715  0.2732  0.5317  0.1445
 4402TIP3    H137401   7.068   8.760   9.649 -0.8625  2.8902 -0.6554
 4402TIP3    H237402   7.019   8.814   9.781 -0.3915  0.1639  0.7151
 4403TIP3   OH237403   4.123   6.417  10.173 -0.3687 -0.0550  0.3696
 4403TIP3    H137404   4.110   6.326  10.144  0.1043 -0.4152  1.2413
 4403TIP3    H237405   4.119   6.468  10.092 -2.9783 -0.5556  0.0642
 4404TIP3   OH237406   1.181   0.699  10.244 -0.3058 -0.3650  0.1886
 4404TIP3    H137407   1.211   0.779  10.288 -1.4238  0.1851 -0.0136
 4404TIP3    H237408   1.261   0.662  10.205  0.4453 -0.0586  1.3896
 4405TIP3   OH237409   2.638   5.076  10.491  0.0881 -0.2588  0.0963
 4405TIP3    H137410   2.727   5.112  10.492  0.3601 -0.8494 -1.0456
 4405TIP3    H237411   2.581   5.152  10.497  0.6680  0.1066  1.1877
 4406TIP3   OH237412   4.664   2.125  10.994 -0.2079  0.1337 -0.2299
 4406TIP3    H137413   4.676   2.096  11.084  0.0530  1.2919  0.1142
 4406TIP3    H237414   4.571   2.108  10.976 -0.3062  0.0810  0.3177
 4407TIP3   OH237415   6.225   4.915  10.265 -0.2901 -0.5049  0.4455
 4407TIP3    H137416   6.245   4.821  10.266 -1.9215 -0.8806  0.5307
 4407TIP3    H237417   6.267   4.950  10.343 -0.1342 -1.2634  0.7039
 4408TIP3   OH237418   1.045   4.018   9.821 -0.1750  0.7686 -0.3299
 4408TIP3    H137419   1.114   4.013   9.755 -1.0578  0.5213 -1.2666
 4408TIP3    H237420   1.044   3.932   9.863  2.8950  2.0090  2.7119
 4409TIP3   OH237421   5.328   4.768  10.167 -0.6332  0.5761  0.1970
 4409TIP3    H137422   5.257   4.704  10.172 -1.3911  1.4764  2.5825
 4409TIP3    H237423   5.285   4.853  10.171  0.4952  1.1966 -0.2954
 4410TIP3   OH237424   2.687   2.460  10.102 -0.1006  0.3883 -0.0430
 4410TIP3    H137425   2.604   2.492  10.067  0.5213  0.8850 -1.1152
 4410TIP3    H237426   2.743   2.450  10.025  0.6615 -0.4716  0.6070
 4411TIP3   OH237427   0.877   9.200   9.842 -0.6925 -0.7465  0.4694
 4411TIP3    H137428   0.926   9.145   9.903  1.2541 -0.5581 -0.8179
 4411TIP3    H237429   0.872   9.285   9.884 -0.4446 -0.9334  0.8810
 4412TIP3   OH237430   1.611   9.051  10.225  0.3379 -0.1879 -0.1161
 4412TIP3    H137431   1.645   9.104  10.153  1.0719 -0.6267 -0.0968
 4412TIP3    H237432   1.583   9.115  10.290  0.7155  0.1914 -0.3170
 4413TIP3   OH237433   6.243   3.247  10.038 -0.0120 -0.9591  0.0197
 4413TIP3    H137434   6.245   3.273   9.946 -1.0270 -0.6404  0.0749
 4413TIP3    H237435   6.334   3.255  10.067  0.4532 -1.7366 -1.1246
 4414TIP3   OH237436   7.596   8.160   9.201 -0.0540 -0.4155  0.0420
 4414TIP3    H137437   7.538   8.108   9.146 -0.6715  0.2714  0.0381
 4414TIP3    H237438   7.618   8.102   9.274 -0.9518 -0.6062  0.1753
 4415TIP3   OH237439   7.880   1.467  10.667  0.4222  0.2631  0.3779
 4415TIP3    H137440   7.898   1.433  10.754  1.2308 -0.1631  0.0590
 4415TIP3    H237441   7.877   1.562  10.679 -0.9788  0.1486  1.1182
 4416TIP3   OH237442   7.015   2.300  10.577 -0.0430 -0.3871 -0.4920
 4416TIP3    H137443   7.052   2.285  10.664 -1.6159 -1.1961  0.0831
 4416TIP3    H237444   7.043   2.389  10.554 -0.0544  0.0686  1.1036
 4417TIP3   OH237445   4.090   0.414  10.703  0.1964  0.2849  0.2400
 4417TIP3    H137446   4.161   0.393  10.642  0.3732  0.5748  0.3399
 4417TIP3    H237447   4.090   0.510  10.707  0.0485  0.2736  0.5325
 4418TIP3   OH237448   7.009   8.670  11.019 -0.9816  0.1967  0.3523
 4418TIP3    H137449   7.027   8.586  11.062  2.0449  0.5660  0.0159
 4418TIP3    H237450   6.981   8.647  10.931 -1.3516 -0.4765  0.6404
 4419TIP3   OH237451   5.955   8.902   9.559  0.1190  0.2901  0.2927
 4419TIP3    H137452   6.012   8.860   9.494  1.2583  2.0379  0.0578
 4419TIP3    H237453   6.010   8.910   9.637 -1.0743 -1.3338  1.3664
 4420TIP3   OH237454   1.900   6.352  10.092 -0.3851 -0.1393 -0.0398
 4420TIP3    H137455   1.916   6.442  10.120 -0.2968  0.3325 -1.5579
 4420TIP3    H237456   1.920   6.352   9.999 -0.9301 -1.6081 -0.1719
 4421TIP3   OH237457   2.966   8.601   9.675 -0.1247 -0.1348  0.4564
 4421TIP3    H137458   2.925   8.515   9.685 -0.0709 -0.0597  1.3939
 4421TIP3    H237459   2.934   8.632   9.590  1.1738 -1.7750 -0.7111
 4422TIP3   OH237460   8.425   4.410  10.353  0.0613  0.4521 -0.4700
 4422TIP3    H137461   8.374   4.419  10.272 -0.4287 -1.9104 -0.4977
 4422TIP3    H237462   8.504   4.362  10.326 -0.9851 -2.0978  0.6638
 4423TIP3   OH237463   8.926   0.516   9.846 -0.0405  0.6063  0.6080
 4423TIP3    H137464   9.003   0.541   9.897  0.6547  0.1773 -0.2090
 4423TIP3    H237465   8.852   0.554   9.894  0.7073  1.3736  1.1754
 4424TIP3   OH237466   8.515   2.779  10.797 -0.0324  0.1550 -0.5246
 4424TIP3    H137467   8.597   2.731  10.803  0.2393  0.7772  1.4293
 4424TIP3    H237468   8.524   2.850  10.861 -1.5688  1.0536 -1.2437
 4425TIP3   OH237469   6.933   3.559  10.407  0.0384 -0.4296 -0.0698
 4425TIP3    H137470   6.857   3.606  10.441  0.2033 -0.6098  0.5590
 4425TIP3    H237471   6.901   3.513  10.329 -0.2607  0.2703 -0.3696
 4426TIP3   OH237472   5.602   7.013  11.248 -0.6607  0.4812 -0.1053
 4426TIP3    H137473   5.519   6.990  11.205  0.6565  0.0865 -2.6326
 4426TIP3    H237474   5.609   7.108  11.236 -0.9877  0.5919  0.5741
 4427TIP3   OH237475   7.685   5.523   9.753 -0.1360 -0.3560 -0.5041
 4427TIP3    H137476   7.747   5.558   9.817 -0.2125 -1.0049 -0.0660
 4427TIP3    H237477   7.728   5.445   9.718  0.1283  0.2902 -1.6322
 4428TIP3   OH237478   2.224   5.044  10.274 -0.3702  0.0277  0.5103
 4428TIP3    H137479   2.144   5.070  10.319 -0.9889 -2.0088  0.6804
 4428TIP3    H237480   2.282   5.012  10.344 -0.0207  0.0263  0.2227
 4429TIP3   OH237481   2.926   8.183   9.459 -0.0879  0.0420  0.4110
 4429TIP3    H137482   2.896   8.205   9.370 -0.8494  0.3053  0.7252
 4429TIP3    H237483   3.021   8.190   9.454 -0.0585 -0.8563 -0.6241
 4430TIP3   OH237484   4.159   7.706  10.321 -0.4755 -0.0004  0.4374
 4430TIP3    H137485   4.191   7.640  10.260  0.7034  1.4957 -0.6457
 4430TIP3    H237486   4.120   7.656  10.393  1.2224 -1.8912  0.1322
 4431TIP3   OH237487   7.400   1.982  10.046  0.0033 -0.6049  0.3423
 4431TIP3    H137488   7.415   2.062  10.097  1.6091 -0.6282 -0.0423
 4431TIP3    H237489   7.309   1.990  10.016 -0.0671  0.7663  0.8312
 4432TIP3   OH237490   5.134   7.238  10.579 -0.1581 -0.0670 -0.1497
 4432TIP3    H137491   5.217   7.192  10.582  0.7310  1.4698  0.2305
 4432TIP3    H237492   5.121   7.259  10.486 -0.9917 -1.7421 -0.4453
 4433TIP3   OH237493   4.192   3.625   9.709 -0.0759 -0.1960 -0.3151
 4433TIP3    H137494   4.135   3.548   9.711 -0.2896 -0.1795 -2.7770
 4433TIP3    H237495   4.276   3.591   9.677  0.8252  0.0853  1.6193
 4434TIP3   OH237496   6.861   8.594  10.545 -0.6008 -0.0352 -0.1522
 4434TIP3    H137497   6.790   8.530  10.543 -1.0869  0.4982 -0.3733
 4434TIP3    H237498   6.941   8.541  10.548 -0.7626 -0.7984 -3.9221
 4435TIP3   OH237499   2.178   0.223   9.740 -0.0638  0.0212  0.6111
 4435TIP3    H137500   2.178   0.318   9.727  0.3321 -0.2299 -1.5273
 4435TIP3    H237501   2.091   0.195   9.712  0.0970 -0.3308  0.4587
 4436TIP3   OH237502   0.702   2.030  10.242  0.4399  0.2250  0.1998
 4436TIP3    H137503   0.634   1.988  10.294  0.9238  0.2078  0.8420
 4436TIP3    H237504   0.696   1.991  10.156 -0.3941  0.2618  0.2416
 4437TIP3   OH237505   5.948   4.444   9.596 -0.2368 -0.2606  0.3071
 4437TIP3    H137506   5.929   4.531   9.560  1.5129 -0.7443 -2.0620
 4437TIP3    H237507   6.040   4.448   9.622  0.8753 -2.1410 -2.7452
 4438TIP3   OH237508   7.256   4.433   9.571 -0.0795  0.2336  0.5266
 4438TIP3    H137509   7.270   4.493   9.645  1.3039  1.7581 -0.8989
 4438TIP3    H237510   7.175   4.387   9.593  0.0904  0.8717  2.8122
 4439TIP3   OH237511   1.277   4.078   9.662  0.1869  0.9048 -0.1494
 4439TIP3    H137512   1.349   4.014   9.671 -2.0847 -1.5518  3.0216
 4439TIP3    H237513   1.318   4.162   9.683  2.2181 -0.3601  1.4576
 4440TIP3   OH237514   7.338   2.641  10.500 -0.1002  0.0271 -0.0032
 4440TIP3    H137515   7.325   2.706  10.431 -0.5254 -2.0368 -1.9910
 4440TIP3    H237516   7.430   2.651  10.525 -0.0745  1.1837 -0.4910
 4441TIP3   OH237517   5.389   6.842  10.102  0.4580  0.0653 -0.3746
 4441TIP3    H137518   5.432   6.761  10.075 -1.9209 -1.5747  0.4479
 4441TIP3    H237519   5.296   6.828  10.081 -0.2604  1.9262  1.2826
 4442TIP3   OH237520   7.469   6.289  10.819 -0.2666 -0.2277  0.2585
 4442TIP3    H137521   7.487   6.198  10.797 -0.0285 -0.3024  0.7467
 4442TIP3    H237522   7.447   6.288  10.913 -0.9559  0.1204  0.1131
 4443TIP3   OH237523   0.894   7.864   9.531  0.0924 -0.2166  0.8122
 4443TIP3    H137524   0.909   7.956   9.553 -1.0519  0.4857 -1.1682
 4443TIP3    H237525   0.981   7.830   9.513  0.3297  1.2554 -1.1688
 4444TIP3   OH237526   3.172   2.699  10.082  0.1432 -0.5381  0.3691
 4444TIP3    H137527   3.187   2.792  10.064  0.4399 -0.6369  0.0958
 4444TIP3    H237528   3.200   2.654  10.003 -1.6110 -0.7410 -0.1870
 4445TIP3   OH237529   4.758   6.588  10.941  0.4172  0.1993 -0.0024
 4445TIP3    H137530   4.738   6.642  11.018  2.6240  2.5049 -0.8609
 4445TIP3    H237531   4.703   6.624  10.872  1.3651  0.9116 -0.4072
 4446TIP3   OH237532   9.138   8.031  10.792  0.4502  0.4812 -0.1017
 4446TIP3    H137533   9.161   8.014  10.883  0.2611 -0.6149 -0.2366
 4446TIP3    H237534   9.165   8.121  10.776  3.1735 -0.2230  0.1911
 4447TIP3   OH237535   0.733   5.608  10.070 -0.3158  0.0984 -0.3102
 4447TIP3    H137536   0.741   5.564  10.154 -0.1695 -2.4961 -1.5805
 4447TIP3    H237537   0.783   5.553  10.009 -1.9519  0.8046 -2.4334
 4448TIP3   OH237538   5.285   2.439  10.881 -0.1007  0.2667  0.3892
 4448TIP3    H137539   5.323   2.486  10.807  0.4929 -0.2630  0.3465
 4448TIP3    H237540   5.224   2.376  10.841  1.4762 -1.2140  0.1870
 4449TIP3   OH237541   7.824   4.578  10.693  0.4849 -0.3566 -1.0713
 4449TIP3    H137542   7.797   4.659  10.650 -2.5514 -0.4256  0.4447
 4449TIP3    H237543   7.748   4.520  10.684  0.8456 -1.4134  1.7083
 4450TIP3   OH237544   6.047   8.473  10.570 -0.0694 -0.1609  0.8160
 4450TIP3    H137545   5.985   8.400  10.577  0.2180 -0.2619  2.6187
 4450TIP3    H237546   6.131   8.430  10.551 -0.3663 -0.0764 -0.8442
 4451TIP3   OH237547   0.651   6.612  11.080  0.4012 -0.0293  0.2167
 4451TIP3    H137548   0.708   6.678  11.040 -1.8804  0.2798 -3.0197
 4451TIP3    H237549   0.676   6.530  11.037  0.2014 -0.3907  0.7896
 4452TIP3   OH237550   0.587   3.884  10.974 -0.6713  0.4843  0.5922
 4452TIP3    H137551   0.625   3.951  10.917 -1.4975  1.5937  1.3037
 4452TIP3    H237552   0.657   3.819  10.985 -0.1807  0.7121 -0.9078
 4453TIP3   OH237553   4.200   0.190   9.306  0.2443 -0.7198  0.0056
 4453TIP3    H137554   4.236   0.251   9.371 -3.6838 -0.5313  2.3531
 4453TIP3    H237555   4.175   0.246   9.233  2.8903 -0.6473 -0.9435
 4454TIP3   OH237556   5.659   3.241   9.468  0.0536  0.2628 -0.1045
 4454TIP3    H137557   5.580   3.281   9.505 -0.0326  0.4729 -0.5097
 4454TIP3    H237558   5.718   3.315   9.451  0.6076  0.0493  0.8143
 4455TIP3   OH237559   8.563   6.794   9.369 -0.3454 -0.0829  0.1039
 4455TIP3    H137560   8.623   6.744   9.425 -1.0827 -1.1543 -0.0196
 4455TIP3    H237561   8.620   6.846   9.312  0.4295  0.6419  1.4775
 4456TIP3   OH237562   1.819   6.821  10.788  0.2944  0.1262 -0.5386
 4456TIP3    H137563   1.831   6.726  10.788  0.3448  0.1020  0.9718
 4456TIP3    H237564   1.899   6.855  10.830 -0.2494  0.7326  0.0248
 4457TIP3   OH237565   7.329   0.673  10.839  0.3734  0.4777 -0.1737
 4457TIP3    H137566   7.314   0.615  10.764  2.2261 -1.8368  1.1142
 4457TIP3    H237567   7.423   0.694  10.835  0.3426  0.9425  1.0657
 4458TIP3   OH237568   0.613   8.835  10.405 -0.3484 -0.1691 -0.2859
 4458TIP3    H137569   0.536   8.890  10.419 -0.1591 -0.2547  1.1776
 4458TIP3    H237570   0.578   8.746  10.395 -0.5719  0.0446 -1.6622
 4459TIP3   OH237571   0.683   0.294   9.983  0.2461  0.1357  0.6387
 4459TIP3    H137572   0.653   0.373  10.028  0.1096  0.1194  0.5758
 4459TIP3    H237573   0.769   0.318   9.948  0.2177  0.2471  0.6445
 4460TIP3   OH237574   5.451   7.596  11.110  0.4288  0.0560 -0.1891
 4460TIP3    H137575   5.522   7.594  11.173 -0.0635 -0.2525  0.3576
 4460TIP3    H237576   5.377   7.555  11.154  0.2261 -0.6543 -1.1489
 4461TIP3   OH237577   5.693   7.603   9.411  0.3564 -0.0517 -0.5845
 4461TIP3    H137578   5.717   7.694   9.397  2.3655 -0.4039  0.2174
 4461TIP3    H237579   5.713   7.559   9.328  0.1148  0.0900 -0.7197
 4462TIP3   OH237580   1.080   5.534  10.263  0.6590 -0.3295 -0.5139
 4462TIP3    H137581   1.027   5.467  10.220  0.6297  0.5319 -1.8748
 4462TIP3    H237582   1.162   5.490  10.283  0.6625 -0.7763 -1.4362
 4463TIP3   OH237583   6.928   8.492   9.793  0.4356  0.1902  0.5119
 4463TIP3    H137584   6.946   8.577   9.752  0.1017 -0.3203 -0.7330
 4463TIP3    H237585   6.861   8.453   9.737  2.6882 -2.1958 -0.7213
 4464TIP3   OH237586   8.833   2.774  10.822 -0.6350  0.1248  0.3401
 4464TIP3    H137587   8.913   2.811  10.785  0.3271 -0.6768  1.5299
 4464TIP3    H237588   8.861   2.693  10.865 -2.1293 -0.2979  0.5896
 4465TIP3   OH237589   0.961   6.411  10.865  0.4128 -0.2950  0.0638
 4465TIP3    H137590   0.866   6.422  10.870  0.3889 -0.4793  0.0189
 4465TIP3    H237591   0.974   6.317  10.862  0.6774 -0.3467  1.7072
 4466TIP3   OH237592   5.077   7.337  10.904 -0.0334 -0.2607 -0.0804
 4466TIP3    H137593   5.058   7.338  10.811  1.8217 -1.8192 -0.5644
 4466TIP3    H237594   5.021   7.267  10.939 -1.6955  1.1901  0.2768
 4467TIP3   OH237595   3.360   7.480  10.833 -0.4622  0.6512  0.3768
 4467TIP3    H137596   3.320   7.437  10.909  0.9055  2.3468  2.1604
 4467TIP3    H237597   3.295   7.544  10.805 -0.6963  0.4853  0.5317
 4468TIP3   OH237598   1.440   8.341  10.065  0.2242 -0.1445 -0.0601
 4468TIP3    H137599   1.431   8.321  10.158  0.1897  1.2053  0.2520
 4468TIP3    H237600   1.446   8.256  10.022 -1.1001 -0.8236  1.0321
 4469TIP3   OH237601   5.423   5.675   9.854  0.2660  0.1381  0.4739
 4469TIP3    H137602   5.504   5.680   9.802  1.3793 -0.7364  2.0400
 4469TIP3    H237603   5.411   5.764   9.888  0.8038  0.1828  0.5621
 4470TIP3   OH237604   7.611   3.956  11.027 -0.0910 -0.4434 -0.5973
 4470TIP3    H137605   7.706   3.947  11.032 -0.1981 -1.2233  0.1745
 4470TIP3    H237606   7.577   3.869  11.048 -1.0139  0.3066  1.2154
 4471TIP3   OH237607   5.291   6.494  11.113  0.6549 -0.7120 -0.7315
 4471TIP3    H137608   5.352   6.549  11.064  0.6042  1.6350  1.6100
 4471TIP3    H237609   5.207   6.507  11.070  0.5737  1.4500 -0.0447
 4472TIP3   OH237610   0.388   1.983  10.293  0.1682 -0.0320  0.1063
 4472TIP3    H137611   0.361   2.014  10.206  1.0913 -0.3003 -0.2864
 4472TIP3    H237612   0.379   1.888  10.289 -2.3726  0.0894  1.2167
 4473TIP3   OH237613   1.599   2.049  10.286 -0.0418 -0.2100 -0.0632
 4473TIP3    H137614   1.561   2.000  10.359  1.0256 -0.2399  0.4864
 4473TIP3    H237615   1.527   2.059  10.224 -0.6373 -1.2617  0.4377
 4474TIP3   OH237616   9.003   2.733   9.014  0.2698 -0.4323 -0.3218
 4474TIP3    H137617   8.967   2.816   8.985 -0.3069 -0.3122  0.7148
 4474TIP3    H237618   9.098   2.741   9.000  0.3661  0.8646  0.8725
 4475TIP3   OH237619   6.060   5.667  10.630 -0.3709 -0.1028  0.3043
 4475TIP3    H137620   5.999   5.740  10.619  0.0894  0.6070  2.1406
 4475TIP3    H237621   6.037   5.629  10.715  2.4897  0.9759  1.6763
 4476TIP3   OH237622   7.523   4.241  10.192  0.1684 -0.5590  0.4755
 4476TIP3    H137623   7.567   4.214  10.273  0.0220 -1.8221  0.1628
 4476TIP3    H237624   7.432   4.255  10.218  0.1601 -0.7779  0.5665
 4477TIP3   OH237625   0.072   5.135   9.959  0.2973  0.0157  0.0190
 4477TIP3    H137626   0.005   5.082  10.001  0.1372  0.0788 -0.1573
 4477TIP3    H237627   0.026   5.211   9.925  0.9023  1.6146  2.5514
 4478TIP3   OH237628   7.907   1.759  11.227 -0.3806 -0.1149 -0.5570
 4478TIP3    H137629   7.949   1.676  11.250 -0.4287  0.2870  1.1241
 4478TIP3    H237630   7.814   1.745  11.245 -0.2905  0.5162  0.5240
 4479TIP3   OH237631   5.472   4.239  10.646 -0.0610  0.5721 -0.2101
 4479TIP3    H137632   5.390   4.194  10.663  0.1971  0.7663  1.7251
 4479TIP3    H237633   5.448   4.331  10.640  0.0614  0.7003  0.9855
 4480TIP3   OH237634   5.500   6.554  10.944  0.1887  0.1295  0.2245
 4480TIP3    H137635   5.576   6.512  10.984 -0.6794 -0.8323  0.9443
 4480TIP3    H237636   5.510   6.541  10.850  0.7155 -0.3291  0.3451
 4481TIP3   OH237637   7.948   7.626   9.053  0.2480  0.3793  0.3249
 4481TIP3    H137638   7.879   7.634   8.986  1.4049 -1.1137 -1.1529
 4481TIP3    H237639   7.908   7.572   9.122 -0.5938  0.9319  0.2816
 4482TIP3   OH237640   2.056   8.727  10.550 -0.0237  0.0700 -0.0749
 4482TIP3    H137641   2.124   8.667  10.579 -0.3824  0.4745  1.7042
 4482TIP3    H237642   2.030   8.775  10.629 -0.5295  1.7813 -1.2062
 4483TIP3   OH237643   7.590   3.257  10.783  0.0885 -0.1885 -0.0246
 4483TIP3    H137644   7.592   3.351  10.799  1.1807 -0.1797 -0.1664
 4483TIP3    H237645   7.624   3.247  10.694 -0.0915 -0.7220 -0.0389
 4484TIP3   OH237646   6.243   4.243   9.869  0.3130 -0.4046  0.0599
 4484TIP3    H137647   6.265   4.320   9.816 -1.9309  1.2566  1.3802
 4484TIP3    H237648   6.214   4.177   9.806  0.1152  0.6227 -0.9488
 4485TIP3   OH237649   0.235   5.839  10.221  0.0261  0.1112 -0.1658
 4485TIP3    H137650   0.267   5.830  10.311 -2.2489  1.7048  0.9020
 4485TIP3    H237651   0.285   5.775  10.171 -0.9249 -3.2783  2.8285
 4486TIP3   OH237652   7.583   0.092  10.533  0.1301 -0.1448 -0.7316
 4486TIP3    H137653   7.561   0.153  10.463  0.9047  0.6585 -0.2964
 4486TIP3    H237654   7.602   0.009  10.489 -0.8324 -0.0578 -1.3363
 4487TIP3   OH237655   4.924   5.211  11.035  0.0495  0.0850  0.6059
 4487TIP3    H137656   4.838   5.179  11.008  0.9978 -1.0565 -1.2629
 4487TIP3    H237657   4.945   5.159  11.113 -0.7459  0.0684  0.8267
 4488TIP3   OH237658   4.574   4.618  10.971  0.2014 -0.3583  0.0456
 4488TIP3    H137659   4.492   4.647  10.931  2.0953  3.5955 -1.5697
 4488TIP3    H237660   4.582   4.672  11.050  1.2377 -0.6641  0.1658
 4489TIP3   OH237661   7.868   7.814   9.829  0.6329 -0.4069  0.0084
 4489TIP3    H137662   7.908   7.890   9.786  0.6256 -0.4009  0.0112
 4489TIP3    H237663   7.782   7.807   9.789  0.2805  0.1437  0.6566
 4490TIP3   OH237664   4.464   3.301  11.118  0.5096 -0.3206 -0.4708
 4490TIP3    H137665   4.475   3.270  11.207 -0.4561  0.8659  0.0871
 4490TIP3    H237666   4.541   3.356  11.102  1.1021 -1.1825 -0.6913
 4491TIP3   OH237667   4.754   8.655  11.199  0.2963  0.1162  0.0029
 4491TIP3    H137668   4.665   8.690  11.195 -0.2632 -1.2386  0.2938
 4491TIP3    H237669   4.780   8.644  11.108 -0.2816 -0.5613 -0.0873
 4492TIP3   OH237670   8.101   0.127   9.349  0.0923 -0.0815  0.0294
 4492TIP3    H137671   8.123   0.153   9.438 -0.7356  2.2679 -0.3642
 4492TIP3    H237672   8.160   0.178   9.294  0.1117 -0.9671 -0.7948
 4493TIP3   OH237673   1.667   8.815   9.415  0.1442 -0.2496  0.6306
 4493TIP3    H137674   1.728   8.744   9.396 -1.3775 -1.6243  0.6860
 4493TIP3    H237675   1.593   8.772   9.458  0.0403  1.6536  2.5291
 4494TIP3   OH237676   5.793   7.469   9.697  0.1718  0.1159 -0.8320
 4494TIP3    H137677   5.849   7.479   9.621 -0.1464  1.1694 -0.9378
 4494TIP3    H237678   5.762   7.557   9.716  0.6200 -0.0451  0.8053
 4495TIP3   OH237679   4.872   2.542  10.844 -0.4663  0.5340 -0.1717
 4495TIP3    H137680   4.857   2.494  10.926 -1.0416  0.9357 -0.0418
 4495TIP3    H237681   4.852   2.479  10.775  0.0853  0.1726 -0.0095
 4496TIP3   OH237682   3.207   3.305  10.730  0.3492 -0.2140 -0.1230
 4496TIP3    H137683   3.222   3.224  10.779  1.0544 -0.4069 -0.6430
 4496TIP3    H237684   3.177   3.367  10.796  1.7938 -0.3168  0.6774
 4497TIP3   OH237685   1.616   5.414  10.925 -0.3379 -0.2001  0.4447
 4497TIP3    H137686   1.545   5.360  10.890 -0.5602 -0.4397  1.2380
 4497TIP3    H237687   1.678   5.350  10.961 -0.4381  0.0556  1.0824
 4498TIP3   OH237688   4.156   7.486  10.099 -0.3232  0.2772 -0.0038
 4498TIP3    H137689   4.233   7.431  10.087 -1.0723 -1.2685  1.6433
 4498TIP3    H237690   4.179   7.570  10.060  1.2044 -0.9299 -1.8672
 4499TIP3   OH237691   8.875   2.792   9.590  0.4217  0.0384 -0.4604
 4499TIP3    H137692   8.842   2.871   9.546 -3.0858 -1.0539 -0.1045
 4499TIP3    H237693   8.868   2.723   9.523 -3.3754 -1.2931  1.0631
 4500TIP3   OH237694   2.840   8.944   9.531  0.3500 -0.4724  0.2823
 4500TIP3    H137695   2.874   8.862   9.495 -0.7021  0.0521 -2.0808
 4500TIP3    H237696   2.825   9.000   9.455 -1.9430  0.7739  1.5482
 4501TIP3   OH237697   5.534   7.486  10.131  0.3899  0.6435  0.3517
 4501TIP3    H137698   5.527   7.568  10.082 -0.1461  0.3463 -0.0790
 4501TIP3    H237699   5.507   7.509  10.220  1.5689  1.2296  0.5841
 4502TIP3   OH237700   3.863   4.324  10.481 -0.2654 -0.3691 -0.3485
 4502TIP3    H137701   3.809   4.335  10.559  1.0783  0.2922  0.5256
 4502TIP3    H237702   3.835   4.395  10.422 -1.8361 -1.3507 -0.8368
 4503TIP3   OH237703   1.907   8.242   9.996 -1.0168  0.3511  0.3643
 4503TIP3    H137704   1.875   8.259  10.084 -1.3290  0.1254  0.2973
 4503TIP3    H237705   1.832   8.261   9.939 -1.2954 -0.9502  0.2664
 4504TIP3   OH237706   5.729   1.775  10.721 -0.5627 -0.0453 -0.3893
 4504TIP3    H137707   5.683   1.851  10.684 -0.6174  0.4770  0.6876
 4504TIP3    H237708   5.801   1.813  10.771 -2.2921 -0.4083  2.6555
 4505TIP3   OH237709   4.331   0.991  10.580  0.5317 -0.0943 -0.4005
 4505TIP3    H137710   4.273   1.061  10.549 -0.8805 -0.7685  0.6592
 4505TIP3    H237711   4.391   1.035  10.639 -0.4215  0.2311  0.3516
 4506TIP3   OH237712   2.115   0.202  10.821  0.7236 -0.0468  0.0777
 4506TIP3    H137713   2.141   0.124  10.772  0.5283  0.2613 -0.5155
 4506TIP3    H237714   2.047   0.171  10.881  0.8307 -0.3832  0.0267
 4507TIP3   OH237715   7.383   8.329  10.771 -0.4445  0.3163  0.3817
 4507TIP3    H137716   7.338   8.249  10.797 -0.2942  0.1605  0.1633
 4507TIP3    H237717   7.475   8.306  10.770 -0.4348  0.3663 -0.1217
 4508TIP3   OH237718   1.435   6.096   9.636 -0.0719  0.4887  0.4552
 4508TIP3    H137719   1.345   6.127   9.641 -0.6483 -0.7371 -1.3636
 4508TIP3    H237720   1.478   6.157   9.576 -0.0668  0.2341  0.2019
 4509TIP3   OH237721   2.239   2.486   9.806  0.2787 -0.4102 -0.7941
 4509TIP3    H137722   2.166   2.424   9.801 -0.5376  0.5965 -1.7058
 4509TIP3    H237723   2.265   2.501   9.715 -0.8316  2.0594 -0.7689
 4510TIP3   OH237724   3.369   3.035  11.280  0.3405 -0.3845 -0.2425
 4510TIP3    H137725   3.316   2.961  11.252  0.2673 -1.7763  3.1343
 4510TIP3    H237726   3.448   2.995  11.317  1.2573  1.3609 -0.2076
 4511TIP3   OH237727   0.069   5.271  10.295 -0.3425 -0.0631 -0.4803
 4511TIP3    H137728   0.009   5.207  10.332 -0.1573  0.2711  0.4229
 4511TIP3    H237729   0.014   5.326  10.240 -0.8209  0.0652  0.1175
 4512TIP3   OH237730   6.949   4.357  10.295 -0.1824  0.1608 -0.3852
 4512TIP3    H137731   6.979   4.317  10.377 -0.5900 -1.0012 -0.7819
 4512TIP3    H237732   7.011   4.428  10.279 -0.0003  0.3068  0.8370
 4513TIP3   OH237733   8.864   8.662  10.502  0.0812 -0.7445  0.3558
 4513TIP3    H137734   8.804   8.592  10.530  1.3950 -1.5645  1.2764
 4513TIP3    H237735   8.830   8.690  10.418 -1.4664 -1.3205  0.7434
 4514TIP3   OH237736   7.461   7.554  10.099  0.0148  0.0362  0.5658
 4514TIP3    H137737   7.424   7.466  10.100  0.4273 -0.1377  1.6202
 4514TIP3    H237738   7.462   7.578  10.006  1.9255 -1.9338 -0.0004
 4515TIP3   OH237739   4.972   0.891  10.092 -0.1402  0.3127 -0.2586
 4515TIP3    H137740   5.049   0.841  10.063  1.2853  0.8349  2.3156
 4515TIP3    H237741   4.911   0.826  10.124 -0.2974 -0.0382 -1.2472
 4516TIP3   OH237742   7.535   6.027  10.827  0.0959 -0.3726  0.3588
 4516TIP3    H137743   7.607   6.001  10.885  1.8973 -1.0943 -2.0319
 4516TIP3    H237744   7.478   5.950  10.825  0.9380 -0.9993 -0.1304
 4517TIP3   OH237745   1.661   5.982  10.034  0.4835  0.4543  0.1376
 4517TIP3    H137746   1.639   5.928   9.959  0.3212 -1.1257  1.2789
 4517TIP3    H237747   1.756   5.989  10.031  0.3948  1.5768 -0.9630
 4518TIP3   OH237748   3.582   4.136   9.639 -0.6416 -0.3804  0.1632
 4518TIP3    H137749   3.604   4.212   9.585 -0.4752 -0.2834  0.3667
 4518TIP3    H237750   3.492   4.115   9.616 -1.0554  0.5359  0.8958
 4519TIP3   OH237751   1.299   0.114  10.469  0.0553  1.0051  0.2714
 4519TIP3    H137752   1.207   0.088  10.471 -0.4671  2.7812  1.9855
 4519TIP3    H237753   1.318   0.127  10.376 -0.9158 -0.8977 -0.2508
 4520TIP3   OH237754   3.561   2.839  11.306  0.5700  0.0199  0.2873
 4520TIP3    H137755   3.649   2.849  11.343  0.8628 -1.4445  0.0419
 4520TIP3    H237756   3.571   2.861  11.214  0.3911  1.1289  0.5227
 4521TIP3   OH237757   2.175   3.610  10.117 -0.0841  0.5155 -0.4796
 4521TIP3    H137758   2.167   3.582  10.026  1.1847 -2.4408  0.1717
 4521TIP3    H237759   2.122   3.547  10.166  1.3682  0.3780  1.0006
 4522TIP3   OH237760   8.564   5.021  10.270  0.4705 -0.1584 -0.4296
 4522TIP3    H137761   8.604   4.990  10.189  1.2884  1.8390 -0.8547
 4522TIP3    H237762   8.490   5.075  10.241  0.3159 -0.0347  0.1795
 4523TIP3   OH237763   5.888   1.018  10.860  0.7083  0.0148  0.2764
 4523TIP3    H137764   5.872   0.936  10.908 -2.2318  0.9371  1.0805
 4523TIP3    H237765   5.947   1.068  10.918  0.6256 -0.5880  0.8984
 4524TIP3   OH237766   3.362   2.102   9.837 -0.0975 -0.3525  0.7054
 4524TIP3    H137767   3.297   2.044   9.796 -0.2988  0.4276 -0.1023
 4524TIP3    H237768   3.372   2.067   9.926 -0.3918 -1.4748  0.3153
 4525TIP3   OH237769   7.129   7.280  10.245 -0.0879 -0.1122  0.6165
 4525TIP3    H137770   7.077   7.337  10.188 -1.1050 -0.0159  1.6041
 4525TIP3    H237771   7.068   7.252  10.313  0.8368 -1.0432  1.0888
 4526TIP3   OH237772   7.149   1.957   9.959 -0.2249 -0.6474 -0.6202
 4526TIP3    H137773   7.123   1.900  10.031  1.9648 -1.5420 -0.4864
 4526TIP3    H237774   7.066   1.996   9.929 -1.1411  0.5323  2.9493
 4527TIP3   OH237775   4.251   0.041  11.161  0.4270  0.1386  0.1530
 4527TIP3    H137776   4.314  -0.004  11.217  0.3707  0.3415  0.3776
 4527TIP3    H237777   4.175   0.056  11.217  0.1042 -0.2683 -0.1691
 4528TIP3   OH237778   1.494   4.140  10.281 -0.3257  0.0975 -0.8909
 4528TIP3    H137779   1.418   4.198  10.276  0.0888  0.6527 -0.8841
 4528TIP3    H237780   1.560   4.183  10.228  0.0189 -0.3236 -0.8032
 4529TIP3   OH237781   8.272   7.502  10.448 -0.1261 -0.2513  0.7506
 4529TIP3    H137782   8.350   7.553  10.424 -1.3815  1.2245 -0.4372
 4529TIP3    H237783   8.268   7.432  10.384 -1.1144  1.1725 -0.8252
 4530TIP3   OH237784   5.291   7.752   9.756  0.0997 -0.1675  0.2194
 4530TIP3    H137785   5.318   7.823   9.815  3.6489 -0.3563 -0.9593
 4530TIP3    H237786   5.206   7.781   9.721  0.5224  2.5670  1.2142
 4531TIP3   OH237787   8.250   2.543   9.516  0.1144 -0.1289  0.3762
 4531TIP3    H137788   8.158   2.554   9.539  0.5330  1.0572  1.5866
 4531TIP3    H237789   8.282   2.474   9.575  0.6288  1.3209  1.8431
 4532TIP3   OH237790   7.029   5.633   9.219 -0.3495  0.7647 -0.5597
 4532TIP3    H137791   6.984   5.711   9.185  1.3705  1.8553 -0.4474
 4532TIP3    H237792   7.120   5.643   9.190  0.0352 -0.9220 -0.0372
 4533TIP3   OH237793   7.859   5.599   9.381 -0.4600  0.1437  0.1110
 4533TIP3    H137794   7.785   5.549   9.346  1.2279 -1.2053 -1.7554
 4533TIP3    H237795   7.911   5.534   9.429  0.7662  0.5173 -0.6737
 4534TIP3   OH237796   7.836   6.618  11.143 -0.3290  0.2389  0.3819
 4534TIP3    H137797   7.826   6.524  11.131  0.1893  0.1429  0.6641
 4534TIP3    H237798   7.807   6.634  11.233 -1.4650  0.5223 -0.0152
 4535TIP3   OH237799   3.323   6.237  10.477 -0.9159  0.0183 -0.2359
 4535TIP3    H137800   3.273   6.171  10.525  0.0496 -0.6871 -0.1424
 4535TIP3    H237801   3.270   6.258  10.401 -0.2229 -2.7436 -1.6212
 4536TIP3   OH237802   8.449   4.421   9.835 -0.1801  0.4434  0.3051
 4536TIP3    H137803   8.410   4.335   9.818 -1.0852  0.8431  0.2915
 4536TIP3    H237804   8.374   4.477   9.858  0.1520  1.6504 -1.3547
 4537TIP3   OH237805   7.853   5.810  10.532  0.6720  0.2075 -0.1321
 4537TIP3    H137806   7.883   5.878  10.473  1.6747 -0.7672 -0.8017
 4537TIP3    H237807   7.934   5.778  10.574  0.0823  0.2769  1.1074
 4538TIP3   OH237808   4.692   0.759   9.938  0.0375 -0.1605 -0.3035
 4538TIP3    H137809   4.733   0.844   9.924  0.5909 -0.5118 -0.8924
 4538TIP3    H237810   4.598   0.776   9.935  0.1433  0.4449 -0.2903
 4539TIP3   OH237811   5.828   8.558  10.416 -0.2241  0.0005 -0.1728
 4539TIP3    H137812   5.802   8.607  10.494 -1.1009  0.4768 -0.7406
 4539TIP3    H237813   5.913   8.520  10.438 -0.6561 -0.2404  1.1756
 4540TIP3   OH237814   1.559   3.706  10.692 -0.1153  0.6392  0.2463
 4540TIP3    H137815   1.590   3.672  10.608 -0.1768 -1.1122  0.8937
 4540TIP3    H237816   1.464   3.708  10.683 -0.1741 -0.3070  0.5169
 4541TIP3   OH237817   1.199   8.020  10.544  0.0787  0.4456  0.2458
 4541TIP3    H137818   1.140   7.956  10.506  2.3012  0.2987 -3.4322
 4541TIP3    H237819   1.206   8.089  10.478  1.3117  2.1982  2.0626
 4542TIP3   OH237820   9.048   4.262  10.478 -0.2347 -0.3357 -0.8448
 4542TIP3    H137821   9.046   4.197  10.548  2.0777  1.7667  1.4071
 4542TIP3    H237822   8.996   4.336  10.512 -1.5506 -0.3437 -2.6845
 4543TIP3   OH237823   3.832   1.008  10.820 -0.6328  0.8061 -0.1151
 4543TIP3    H137824   3.901   1.072  10.806 -0.2784  0.6026  0.6475
 4543TIP3    H237825   3.814   1.011  10.914 -1.4333  0.6227 -0.2518
 4544TIP3   OH237826   7.303   8.975   9.674 -0.2235 -0.0185  0.4481
 4544TIP3    H137827   7.232   9.034   9.696 -0.9674 -0.7171 -0.0375
 4544TIP3    H237828   7.355   9.023   9.609 -0.3254  0.4407  0.7047
 4545TIP3   OH237829   6.635   7.968   9.176 -0.3584 -0.0492 -0.2790
 4545TIP3    H137830   6.555   7.944   9.129 -1.3374 -0.2997  1.4298
 4545TIP3    H237831   6.688   7.888   9.175 -1.8295 -1.1450  1.8472
 4546TIP3   OH237832   8.865   7.149   9.717  0.3129 -0.5058  0.2243
 4546TIP3    H137833   8.880   7.236   9.755 -0.3076 -0.0081 -0.6077
 4546TIP3    H237834   8.875   7.163   9.622 -0.6905 -1.1283  0.0041
 4547TIP3   OH237835   9.135   8.947   9.833  0.0976  0.1047 -0.5943
 4547TIP3    H137836   9.146   8.964   9.740  1.2553 -1.3921 -0.7802
 4547TIP3    H237837   9.196   8.875   9.851 -1.4153 -0.8605  0.9359
 4548TIP3   OH237838   6.882   4.244  11.309 -0.3176  0.5240 -0.1253
 4548TIP3    H137839   6.899   4.150  11.313  1.9021  0.9130  0.8146
 4548TIP3    H237840   6.796   4.254  11.349 -0.1519 -1.0081  0.6998
 4549TIP3   OH237841   5.319   1.575  10.416  0.7950 -0.3307  0.2151
 4549TIP3    H137842   5.298   1.668  10.429 -1.6977 -0.9217  0.9847
 4549TIP3    H237843   5.337   1.567  10.322  0.1209  0.7831 -0.0270
 4550TIP3   OH237844   4.130   8.515   9.837 -0.3307 -0.0045 -0.2515
 4550TIP3    H137845   4.112   8.440   9.781 -0.6922 -0.8179  0.9252
 4550TIP3    H237846   4.171   8.580   9.779 -1.5873 -0.4377 -1.6543
 4551TIP3   OH237847   1.546   0.977  10.622 -0.1510 -0.3457 -0.2686
 4551TIP3    H137848   1.451   0.977  10.633 -0.1073  0.6186  0.2396
 4551TIP3    H237849   1.566   1.062  10.582  0.8400  1.2817  3.2985
 4552TIP3   OH237850   0.567   2.129  10.494  0.4512 -0.1571 -0.1843
 4552TIP3    H137851   0.588   2.112  10.585 -0.6031  2.0246  0.5309
 4552TIP3    H237852   0.488   2.078  10.477  0.1282  0.1339  0.4127
 4553TIP3   OH237853   6.227   6.863  11.001  0.0041 -0.1926  0.3123
 4553TIP3    H137854   6.163   6.871  11.072 -0.2514 -1.5276  0.2585
 4553TIP3    H237855   6.176   6.838  10.925  0.4779 -0.3297  0.0362
 4554TIP3   OH237856   0.018   7.985  10.140 -0.5044 -0.2749  0.6719
 4554TIP3    H137857  -0.003   8.075  10.117 -0.5697  0.0585  1.9785
 4554TIP3    H237858   0.026   7.940  10.056 -2.0757  0.5714  0.0456
 4555TIP3   OH237859   8.412   6.893  10.574 -0.0675  0.5246  0.4437
 4555TIP3    H137860   8.391   6.832  10.645  2.0462 -0.6661  0.1435
 4555TIP3    H237861   8.356   6.866  10.501 -2.0656  1.5895  1.5010
 4556TIP3   OH237862   5.794   7.382  10.385  0.2788  0.3040  0.1248
 4556TIP3    H137863   5.857   7.409  10.450 -0.3274  0.1644  0.7860
 4556TIP3    H237864   5.714   7.364  10.435 -0.9927  2.6677 -0.9261
 4557TIP3   OH237865   7.696   6.833  10.015 -0.1737 -0.0467 -0.1468
 4557TIP3    H137866   7.675   6.803  10.104 -0.3029  1.1026  0.2279
 4557TIP3    H237867   7.792   6.843  10.016 -0.2054  0.2603 -0.0333
 4558TIP3   OH237868   7.563   1.419  11.199 -0.0522  0.1675  0.4950
 4558TIP3    H137869   7.616   1.379  11.268  3.2635  0.4568 -1.6284
 4558TIP3    H237870   7.581   1.513  11.206  1.7932  0.0671 -1.6893
 4559TIP3   OH237871   8.265   0.163   9.681  0.4923 -0.4119  0.1726
 4559TIP3    H137872   8.351   0.194   9.708  0.3403  0.4091 -0.2760
 4559TIP3    H237873   8.232   0.116   9.757  1.6838 -1.4764  0.0639
 4560TIP3   OH237874   7.133   4.639  10.178 -0.7228 -0.0781 -0.6075
 4560TIP3    H137875   7.160   4.557  10.137  1.4804 -0.6918  1.8050
 4560TIP3    H237876   7.042   4.625  10.204 -0.0727 -2.2167  0.7197
 4561TIP3   OH237877   5.933   6.240  10.703 -0.2883 -0.0451  0.1620
 4561TIP3    H137878   6.022   6.208  10.717  0.1340  1.5595  1.4398
 4561TIP3    H237879   5.878   6.162  10.711  0.8099 -0.7056  1.7332
 4562TIP3   OH237880   5.701   4.045   9.570  0.1851 -0.0199  0.2062
 4562TIP3    H137881   5.650   4.114   9.613 -0.0524  0.0009 -0.1083
 4562TIP3    H237882   5.639   3.974   9.557 -0.1577  0.5346 -1.4736
 4563TIP3   OH237883   8.050   2.451  10.819  0.1118 -0.1715  0.1497
 4563TIP3    H137884   7.966   2.495  10.809 -0.0100 -0.6655 -1.2484
 4563TIP3    H237885   8.039   2.395  10.896 -0.6092  0.2546  0.3650
 4564TIP3   OH237886   7.988   8.872  10.097 -0.3151  0.0168  0.2197
 4564TIP3    H137887   8.016   8.794  10.146 -1.7711 -0.9381 -0.3975
 4564TIP3    H237888   8.015   8.854  10.007  0.3402  0.7636  0.2511
 4565TIP3   OH237889   4.938   8.148   9.499  0.3573 -0.1231  0.4380
 4565TIP3    H137890   4.954   8.226   9.446 -1.3330  0.5682  0.8775
 4565TIP3    H237891   5.004   8.085   9.469 -0.6479  0.1257 -2.6992
 4566TIP3   OH237892   8.914   3.747  10.145 -1.1096  0.7124 -0.2873
 4566TIP3    H137893   8.888   3.838  10.130  0.6800  1.3799  0.3383
 4566TIP3    H237894   8.998   3.753  10.190  0.6856 -1.2001 -2.9914
 4567TIP3   OH237895   4.019   6.759   9.766 -0.0483 -0.3001  0.4029
 4567TIP3    H137896   4.004   6.761   9.672 -0.5396  0.0535  0.4890
 4567TIP3    H237897   4.094   6.817   9.779 -0.5062  0.3229  0.3218
 4568TIP3   OH237898   1.423   2.655  10.241  0.0396 -0.0108 -0.3082
 4568TIP3    H137899   1.496   2.621  10.190  0.5216 -0.3524  0.5740
 4568TIP3    H237900   1.456   2.655  10.332 -1.2604 -0.7299  0.1819
 4569TIP3   OH237901   8.609   3.719  10.676  0.2435  0.1852  0.0367
 4569TIP3    H137902   8.602   3.700  10.770  0.5957 -0.1400 -0.0006
 4569TIP3    H237903   8.553   3.795  10.663 -1.8811 -1.3032  0.0268
 4570TIP3   OH237904   2.597   8.914  10.798  0.4359  0.0402 -0.0214
 4570TIP3    H137905   2.571   8.822  10.806  0.0067  0.3155  3.0469
 4570TIP3    H237906   2.691   8.914  10.811  0.2799  0.0997  1.2287
 4571TIP3   OH237907   4.122   5.298  10.756  0.2650 -0.6227  0.0250
 4571TIP3    H137908   4.144   5.205  10.752 -1.9641 -1.2167  0.2372
 4571TIP3    H237909   4.186   5.341  10.699  1.7326 -2.1743  0.4208
 4572TIP3   OH237910   7.129   6.660  10.237 -0.1751  0.2703  0.4573
 4572TIP3    H137911   7.146   6.596  10.307  0.8661 -0.8022 -0.7133
 4572TIP3    H237912   7.209   6.712  10.232 -0.2721  0.3880  0.1066
 4573TIP3   OH237913   5.204   3.765  10.598 -0.2087  0.4510 -0.0451
 4573TIP3    H137914   5.183   3.803  10.683 -1.1250  1.3226 -0.6327
 4573TIP3    H237915   5.126   3.781  10.545 -0.2435 -1.4185 -0.6178
 4574TIP3   OH237916   0.401   0.889   9.592  0.6751  0.0827 -0.5294
 4574TIP3    H137917   0.481   0.857   9.633 -0.0064  0.7699  1.4174
 4574TIP3    H237918   0.431   0.955   9.529  1.6048  1.4155  1.2247
 4575TIP3   OH237919   5.844   2.562  10.195 -0.6222 -0.6342 -0.5376
 4575TIP3    H137920   5.779   2.609  10.248 -1.0178 -2.9730  1.2430
 4575TIP3    H237921   5.808   2.561  10.107 -0.2816  2.8030 -0.8596
 4576TIP3   OH237922   1.272   4.277  10.769  0.5346 -0.4790  0.1186
 4576TIP3    H137923   1.279   4.295  10.676  0.2030  0.1959  0.2193
 4576TIP3    H237924   1.297   4.185  10.778 -0.0303 -0.7242 -0.7172
 4577TIP3   OH237925   5.355   3.173  11.367  0.5873 -0.4608  0.0494
 4577TIP3    H137926   5.432   3.224  11.394  0.4790 -1.0498  1.5630
 4577TIP3    H237927   5.316   3.224  11.296  3.5491 -1.1825 -2.2971
 4578TIP3   OH237928   7.546   2.149   9.324  0.2923  0.2771  0.3226
 4578TIP3    H137929   7.452   2.161   9.309  0.2765  0.2941  0.4355
 4578TIP3    H237930   7.571   2.078   9.265  0.4233  0.9793 -0.4777
 4579TIP3   OH237931   3.410   2.859  10.737 -0.0470 -0.2436  0.5922
 4579TIP3    H137932   3.454   2.900  10.662  1.2367  0.1137  1.4950
 4579TIP3    H237933   3.331   2.911  10.750 -1.7146 -1.9311 -2.1233
 4580TIP3   OH237934   4.025   1.862  10.310  0.1003  0.1756  0.5923
 4580TIP3    H137935   4.119   1.861  10.292  0.1792  2.1734  0.5818
 4580TIP3    H237936   4.010   1.948  10.351 -1.5646 -0.5090  1.5190
 4581TIP3   OH237937   1.375   9.107   9.658 -0.3093 -0.4267 -0.3184
 4581TIP3    H137938   1.437   9.064   9.598 -1.6494 -2.3482 -0.4126
 4581TIP3    H237939   1.292   9.105   9.611 -0.9167  0.0529  0.7193
 4582TIP3   OH237940   8.875   3.376  10.142 -0.3011  0.5900 -0.6138
 4582TIP3    H137941   8.885   3.397  10.235 -0.9253  1.4454 -0.7292
 4582TIP3    H237942   8.805   3.310  10.139 -0.1331  0.4056 -0.4619
 4583TIP3   OH237943   2.293   3.930   9.889  0.0546 -0.6835 -0.2648
 4583TIP3    H137944   2.202   3.950   9.868  1.2266  3.5519 -2.5826
 4583TIP3    H237945   2.332   3.905   9.805  1.6511  0.8598 -0.0330
 4584TIP3   OH237946   6.889   1.670  10.774 -0.0084 -0.4523  0.0480
 4584TIP3    H137947   6.874   1.712  10.859  0.4013 -0.1115 -0.0482
 4584TIP3    H237948   6.976   1.699  10.748 -0.7716  0.8078 -1.2648
 4585TIP3   OH237949   6.883   2.765   9.867  0.1661  0.5050  0.2026
 4585TIP3    H137950   6.810   2.729   9.919  0.1386 -0.0452 -0.2035
 4585TIP3    H237951   6.918   2.835   9.921 -0.9331  1.0640  0.2240
 4586TIP3   OH237952   8.061   8.812   9.833 -0.0299 -0.3837  0.3584
 4586TIP3    H137953   7.976   8.769   9.835 -0.2506 -0.0798 -1.2143
 4586TIP3    H237954   8.074   8.836   9.741  1.2434  0.5894  0.7577
 4587TIP3   OH237955   0.694   5.860  11.080  0.2653  0.1015 -0.5623
 4587TIP3    H137956   0.700   5.883  11.173 -0.2874  0.1228 -0.5262
 4587TIP3    H237957   0.618   5.801  11.076 -0.8979  1.6009 -1.2880
 4588TIP3   OH237958   3.492   3.231  10.487  0.0256  0.2123 -0.1265
 4588TIP3    H137959   3.435   3.261  10.557  0.0333 -1.1879  0.5128
 4588TIP3    H237960   3.577   3.217  10.528 -0.2672 -1.7746 -0.0938
 4589TIP3   OH237961   7.264   4.578  10.667  0.1299 -0.0904 -0.1354
 4589TIP3    H137962   7.225   4.530  10.740 -0.3142  0.5142  0.0255
 4589TIP3    H237963   7.338   4.625  10.705 -0.3828  0.5932  0.0188
 4590TIP3   OH237964   4.215   5.403  10.097 -0.2151 -0.5547  0.4450
 4590TIP3    H137965   4.211   5.480  10.041  0.1899 -0.6147  0.3280
 4590TIP3    H237966   4.124   5.386  10.122 -0.2301  0.4383  1.1338
 4591TIP3   OH237967   6.472   7.958  11.032  0.1920  0.2426  0.3982
 4591TIP3    H137968   6.476   7.863  11.042  1.9348 -0.0976 -2.4749
 4591TIP3    H237969   6.379   7.979  11.042 -0.2340 -1.7281  1.0762
 4592TIP3   OH237970   7.725   8.485   9.586  0.7747  0.0388 -0.1490
 4592TIP3    H137971   7.764   8.562   9.545 -0.4034  0.1491 -1.1071
 4592TIP3    H237972   7.680   8.440   9.515  1.6868 -1.7144  0.3367
 4593TIP3   OH237973   5.447   6.303   9.601  0.1519  0.0052  0.3293
 4593TIP3    H137974   5.501   6.236   9.558 -1.0790  0.3985 -1.9973
 4593TIP3    H237975   5.399   6.255   9.669  1.1259 -0.9495  0.3738
 4594TIP3   OH237976   5.951   3.479  10.382 -0.4897 -0.3802  0.5097
 4594TIP3    H137977   5.944   3.490  10.288  0.5018  0.1590  0.4887
 4594TIP3    H237978   5.866   3.444  10.408 -0.6290 -0.9237 -0.6267
 4595TIP3   OH237979   1.697   4.110   9.961 -0.0678 -0.0434 -0.5199
 4595TIP3    H137980   1.625   4.140   9.906 -0.9318 -1.6706 -0.3270
 4595TIP3    H237981   1.706   4.178  10.028 -0.4570  0.8673 -1.3684
 4596TIP3   OH237982   9.207   1.411  10.857 -0.1150  0.1643 -0.0276
 4596TIP3    H137983   9.291   1.377  10.887  0.2545  2.0952  1.2896
 4596TIP3    H237984   9.205   1.393  10.763  0.4694 -2.4856  0.3832
 4597TIP3   OH237985   1.836   0.805  10.557 -0.0442  0.4107  0.4570
 4597TIP3    H137986   1.857   0.722  10.514  0.3482  0.9500 -0.4050
 4597TIP3    H237987   1.764   0.842  10.505  0.3907  1.0414  0.2948
 4598TIP3   OH237988   6.853   0.271  10.780  0.0436 -0.1699 -0.1582
 4598TIP3    H137989   6.905   0.227  10.714 -0.5007 -0.2097 -0.5715
 4598TIP3    H237990   6.852   0.211  10.854  1.6166  0.3769  0.3373
 4599TIP3   OH237991   9.158   3.386   9.507  0.0562  0.0382 -0.3584
 4599TIP3    H137992   9.097   3.319   9.537  0.2799 -0.7138 -1.5096
 4599TIP3    H237993   9.106   3.466   9.502  0.0953  0.3251  2.3509
 4600TIP3   OH237994   1.286   1.763   9.587  0.4204  0.3913 -0.1771
 4600TIP3    H137995   1.290   1.686   9.530 -0.3339 -1.0656  1.6252
 4600TIP3    H237996   1.197   1.762   9.623  0.4838  1.9644  0.0883
 4601TIP3   OH237997   2.335   3.826  10.134 -0.0940 -0.0132  0.4905
 4601TIP3    H137998   2.314   3.895  10.071 -0.3307  0.7826  1.4202
 4601TIP3    H237999   2.280   3.752  10.108  0.9277 -0.2342 -1.1464
 4602TIP3   OH238000   6.704   8.806   9.605  0.2470  0.2256 -0.3685
 4602TIP3    H138001   6.701   8.804   9.509  0.3188  0.6669 -0.3799
 4602TIP3    H238002   6.789   8.767   9.627 -0.3885 -1.2619 -0.4264
 4603TIP3   OH238003   2.995   2.548  10.619 -0.0504 -0.1797 -0.5584
 4603TIP3    H138004   2.950   2.488  10.679 -0.1828 -0.8436 -1.3152
 4603TIP3    H238005   2.925   2.598  10.578  0.1162  2.4203  1.9514
 4604TIP3   OH238006   3.764   8.480  10.638 -0.2179 -0.5865 -0.7824
 4604TIP3    H138007   3.846   8.430  10.640 -1.0603 -2.0830 -1.6947
 4604TIP3    H238008   3.790   8.566  10.603  1.1784 -0.5035  0.3362
 4605TIP3   OH238009   6.378   6.062   9.665 -0.4402 -0.0780  0.9772
 4605TIP3    H138010   6.460   6.109   9.683  0.1839 -1.3042  1.4580
 4605TIP3    H238011   6.321   6.128   9.625  1.1503  0.5400 -0.3929
 4606TIP3   OH238012   4.281   0.951   9.342 -0.3979 -0.1466 -0.3374
 4606TIP3    H138013   4.224   0.878   9.317 -1.0630 -0.1408  1.0475
 4606TIP3    H238014   4.229   1.029   9.323  1.3144  0.2376 -4.4221
 4607TIP3   OH238015   2.029   3.419  10.249  0.3694  0.4726 -0.6287
 4607TIP3    H138016   2.094   3.365  10.204  0.4218  0.1415 -0.1694
 4607TIP3    H238017   2.046   3.405  10.342 -1.0036 -0.4554 -0.4766
 4608TIP3   OH238018   8.967   6.726   9.903  0.0122 -0.0491  0.3329
 4608TIP3    H138019   8.961   6.820   9.923  3.5404  0.5724 -0.7985
 4608TIP3    H238020   8.877   6.695   9.907 -1.3160  3.3800  0.7369
 4609TIP3   OH238021   2.090   8.245   9.350  0.1822 -1.0452 -0.0601
 4609TIP3    H138022   2.131   8.291   9.423 -0.5216 -1.0393  0.3314
 4609TIP3    H238023   2.009   8.209   9.386 -0.2684 -0.8767 -0.8877
 4610TIP3   OH238024   6.604   8.216   9.913 -0.4232 -0.1963 -0.9038
 4610TIP3    H138025   6.630   8.221   9.821  1.1926 -0.8337 -0.5212
 4610TIP3    H238026   6.683   8.242   9.961 -1.0750 -0.4027  0.3176
 4611TIP3   OH238027   8.456   7.121   9.734  0.1786 -0.1400  0.4050
 4611TIP3    H138028   8.380   7.068   9.709 -0.0341  1.2610 -2.2624
 4611TIP3    H238029   8.531   7.072   9.702  0.1986 -0.1359  0.4446
 4612TIP3   OH238030   8.233   6.761  10.411 -0.0389  0.4910 -0.0176
 4612TIP3    H138031   8.251   6.667  10.413 -0.6195  0.3394 -1.0954
 4612TIP3    H238032   8.168   6.775  10.479  0.6251  0.2576  0.6833
 4613TIP3   OH238033   1.596   9.031   9.814  0.0178 -0.4088 -0.0921
 4613TIP3    H138034   1.650   9.096   9.769 -0.1568  0.8181  1.3913
 4613TIP3    H238035   1.507   9.048   9.782  0.3383 -2.0543 -2.0965
 4614TIP3   OH238036   5.831   3.847  10.441  0.7270 -0.0410  0.0287
 4614TIP3    H138037   5.917   3.890  10.448 -0.0903  1.8243 -0.6056
 4614TIP3    H238038   5.822   3.826  10.348 -0.4481  1.9995 -0.3769
 4615TIP3   OH238039   3.037   1.315   9.299 -0.3101  0.0331 -0.3550
 4615TIP3    H138040   3.016   1.407   9.315 -0.5209 -0.1396  0.4009
 4615TIP3    H238041   2.958   1.268   9.326 -0.4437 -0.3354 -1.3239
 4616TIP3   OH238042   2.595   8.639   9.802 -0.1594  0.1395  0.4316
 4616TIP3    H138043   2.571   8.546   9.798  0.4421 -0.0611  1.2414
 4616TIP3    H238044   2.603   8.658   9.896  0.8773  0.7077  0.2429
 4617TIP3   OH238045   5.236   7.402  10.180 -0.5645 -0.6628 -0.1268
 4617TIP3    H138046   5.236   7.461  10.255 -1.4398  1.1136 -1.4526
 4617TIP3    H238047   5.177   7.331  10.206  0.1859 -0.7952  1.3412
 4618TIP3   OH238048   5.036   1.978   9.744  0.1381 -0.0690  0.0881
 4618TIP3    H138049   5.009   1.929   9.822 -0.1847  1.7904  1.1994
 4618TIP3    H238050   4.957   2.025   9.717  0.6597  0.5434 -0.3970
 4619TIP3   OH238051   4.271   0.455  10.477  0.0383  0.1357  0.0200
 4619TIP3    H138052   4.275   0.499  10.392  3.0827 -1.7285 -0.9559
 4619TIP3    H238053   4.315   0.515  10.537 -0.1281  0.4990 -0.2201
 4620TIP3   OH238054   3.357   3.874   9.329  0.4965 -0.2037 -0.8943
 4620TIP3    H138055   3.414   3.804   9.297  1.1243 -1.8289  3.0931
 4620TIP3    H238056   3.285   3.827   9.372 -1.2315  1.7644 -1.4870
 4621TIP3   OH238057   3.875   6.215  10.884 -0.3636  0.0273 -0.1218
 4621TIP3    H138058   3.799   6.159  10.869 -1.0698  0.7320  0.7473
 4621TIP3    H238059   3.863   6.289  10.824 -0.0737 -0.1295 -0.3780
 4622TIP3   OH238060   2.986   5.640   9.394  0.0795  0.3455 -0.2933
 4622TIP3    H138061   2.897   5.607   9.383  0.2739 -0.4649  0.3974
 4622TIP3    H238062   2.982   5.691   9.475  0.0879  0.9123 -0.6447
 4623TIP3   OH238063   3.022   7.934  10.827 -0.4792 -0.2095  0.0459
 4623TIP3    H138064   3.070   7.943  10.744  1.6976  1.8742  1.4174
 4623TIP3    H238065   3.086   7.896  10.888 -0.9030  1.4749  1.6199
 4624TIP3   OH238066   4.995   8.478  10.637 -0.3398 -0.0704 -0.0857
 4624TIP3    H138067   5.060   8.456  10.704 -1.3534  0.0664  0.9744
 4624TIP3    H238068   4.960   8.393  10.610 -0.9385 -0.0566  0.6120
 4625TIP3   OH238069   6.196   6.456  11.160 -0.5393  0.4964 -0.6379
 4625TIP3    H138070   6.234   6.369  11.173 -1.8498  0.1756  1.4905
 4625TIP3    H238071   6.148   6.449  11.077  0.5753 -0.3239 -1.2401
 4626TIP3   OH238072   8.380   2.388  10.927  0.3661  0.3442 -0.2545
 4626TIP3    H138073   8.318   2.359  10.859  1.4869  1.4146 -1.8047
 4626TIP3    H238074   8.326   2.441  10.986 -0.5961 -0.4405 -0.3847
 4627TIP3   OH238075   7.762   6.567  10.472  0.0609 -0.5444 -0.1926
 4627TIP3    H138076   7.713   6.547  10.551 -0.1101  1.1986  0.1800
 4627TIP3    H238077   7.826   6.495  10.465  0.3275 -0.5574  1.7207
 4628TIP3   OH238078   1.728   7.973   9.697 -0.2270  0.1877 -0.1917
 4628TIP3    H138079   1.641   7.972   9.738 -0.9919  1.9817 -1.6240
 4628TIP3    H238080   1.753   7.881   9.691 -1.7195 -0.3286  0.8508
 4629TIP3   OH238081   1.126   8.166  10.060  0.5355  0.8160  0.1641
 4629TIP3    H138082   1.186   8.181   9.987 -2.1644  0.5976 -2.2620
 4629TIP3    H238083   1.103   8.074  10.054  0.7944  0.5992  1.8161
 4630TIP3   OH238084   2.258   7.262  10.272 -0.3409  0.3062  0.1648
 4630TIP3    H138085   2.278   7.232  10.183  0.2507 -0.3692  0.5136
 4630TIP3    H238086   2.172   7.223  10.292  0.1862 -0.7869  0.4193
 4631TIP3   OH238087   7.684   0.196   8.991 -0.0131  0.4436  0.2462
 4631TIP3    H138088   7.704   0.109   8.956 -2.3215 -0.4780  1.0563
 4631TIP3    H238089   7.770   0.233   9.013  1.0324 -1.5649 -0.2106
 4632TIP3   OH238090   7.077   0.450   9.662  0.3937  0.3247 -0.0315
 4632TIP3    H138091   7.055   0.359   9.681  0.1017  0.2321 -0.7766
 4632TIP3    H238092   7.151   0.444   9.602  0.7102  0.5931  0.3295
 4633TIP3   OH238093   5.810   2.634  10.593 -0.0583 -1.3319  0.0403
 4633TIP3    H138094   5.865   2.666  10.522 -0.3239 -0.1520  0.3376
 4633TIP3    H238095   5.764   2.558  10.557  0.3094 -1.1466 -0.8249
 4634TIP3   OH238096   6.523   5.707  10.226  0.3036 -0.0990  0.3562
 4634TIP3    H138097   6.536   5.745  10.313 -1.0063 -0.5569  0.7800
 4634TIP3    H238098   6.599   5.651  10.212  0.4162 -0.1964  1.3120
 4635TIP3   OH238099   8.516   4.962   9.810  0.0094  0.3157 -0.2297
 4635TIP3    H138100   8.609   4.981   9.794  0.4436  0.4175  2.0686
 4635TIP3    H238101   8.470   5.020   9.750  1.4261  1.1641 -0.5598
 4636TIP3   OH238102   1.087   0.404  11.157 -0.5000  0.5486  0.4573
 4636TIP3    H138103   1.179   0.387  11.174 -0.2421  0.6046 -0.7846
 4636TIP3    H238104   1.065   0.348  11.082 -1.0829  1.5924 -0.1779
 4637TIP3   OH238105   0.387   2.218   9.911 -0.1368  0.2319 -0.1982
 4637TIP3    H138106   0.332   2.171   9.973  0.2545 -0.2247 -0.1956
 4637TIP3    H238107   0.326   2.245   9.842 -0.4125 -0.0423 -0.0670
 4638TIP3   OH238108   1.342   2.115  10.189 -0.4037  0.4437  0.0012
 4638TIP3    H138109   1.285   2.038  10.193 -0.1445  0.2305 -0.3145
 4638TIP3    H238110   1.283   2.189  10.200 -0.7193  0.2165 -0.1426
 4639TIP3   OH238111   5.985   2.127  11.223 -0.2427  0.4543 -0.3904
 4639TIP3    H138112   6.063   2.182  11.225 -0.4782  0.7935 -0.4749
 4639TIP3    H238113   5.913   2.187  11.203 -0.3241 -0.0661 -1.7974
 4640TIP3   OH238114   0.188   0.662  10.929 -0.1357  0.3378  0.0408
 4640TIP3    H138115   0.220   0.748  10.956 -0.7318 -0.0025  2.0490
 4640TIP3    H238116   0.266   0.606  10.932  0.1559  0.6954 -0.7724
 4641TIP3   OH238117   5.932   9.033   9.910  0.0741 -0.3395 -0.3571
 4641TIP3    H138118   6.015   8.987   9.922 -0.6840 -1.2839  1.7381
 4641TIP3    H238119   5.937   9.108   9.970  0.5319  1.3418 -2.3711
 4642TIP3   OH238120   6.371   2.173   9.296  0.2974  0.8278  0.0743
 4642TIP3    H138121   6.435   2.243   9.313  1.7084 -0.8214  1.9700
 4642TIP3    H238122   6.410   2.121   9.226  0.5306  0.4363  0.4914
 4643TIP3   OH238123   5.740   4.226  10.281 -0.1274 -0.2280  0.2120
 4643TIP3    H138124   5.812   4.164  10.297 -1.9132 -2.2028  1.1617
 4643TIP3    H238125   5.762   4.267  10.198  2.7803  0.3032  1.1089
 4644TIP3   OH238126   5.570   9.043  10.839  0.2696 -0.4821  0.5422
 4644TIP3    H138127   5.623   9.043  10.919 -2.0431 -0.7908  2.1678
 4644TIP3    H238128   5.481   9.025  10.869 -1.3099  2.6398 -1.6699
 4645TIP3   OH238129   6.935   8.038  10.275 -0.1609  0.1441  0.1255
 4645TIP3    H138130   7.011   7.993  10.311  0.1126  0.0163 -0.6007
 4645TIP3    H238131   6.860   7.988  10.308  0.1451 -1.0554 -0.9137
 4646TIP3   OH238132   4.209   8.736  10.370  0.4264  0.1344  0.0554
 4646TIP3    H138133   4.161   8.806  10.415  0.6570 -0.4027  1.1523
 4646TIP3    H238134   4.272   8.783  10.314  0.7903  0.8036  1.0020
 4647TIP3   OH238135   6.882   3.125   9.722 -0.2729 -0.1091  0.8643
 4647TIP3    H138136   6.883   3.115   9.818 -1.1668  1.3255  1.0466
 4647TIP3    H238137   6.927   3.208   9.706 -0.3844 -0.1975  0.0448
 4648TIP3   OH238138   1.540   7.174   9.833  0.2458  0.7076  0.2098
 4648TIP3    H138139   1.460   7.122   9.829 -0.0088  1.1537 -0.7477
 4648TIP3    H238140   1.569   7.180   9.742  1.7575 -0.0423  0.6062
 4649TIP3   OH238141   1.488   7.490  10.165  0.5403  0.1841 -0.2450
 4649TIP3    H138142   1.426   7.563  10.164  0.8571  0.4963  1.2417
 4649TIP3    H238143   1.556   7.516  10.102 -1.2000 -0.5595 -2.5880
 4650TIP3   OH238144   6.942   1.365  11.116  0.1061 -0.1652 -0.0123
 4650TIP3    H138145   6.855   1.349  11.080 -0.1357 -1.6623  1.1377
 4650TIP3    H238146   6.984   1.279  11.119  0.6994  0.1405  1.7098
 4651TIP3   OH238147   1.687   6.241  10.912  0.6970  0.0150  0.0448
 4651TIP3    H138148   1.631   6.313  10.884  1.3063  1.5437  2.4431
 4651TIP3    H238149   1.626   6.172  10.938 -0.2225  1.5876  2.4685
 4652TIP3   OH238150   2.409   1.311   9.242 -0.1324  0.7269  0.2373
 4652TIP3    H138151   2.477   1.247   9.222 -1.7899 -1.0574  0.0396
 4652TIP3    H238152   2.389   1.352   9.158  0.7744  1.3646  0.3226
 4653TIP3   OH238153   1.081   1.172  10.677 -0.0567 -0.6953  0.1455
 4653TIP3    H138154   1.102   1.099  10.619  1.6163 -1.3703  1.5086
 4653TIP3    H238155   0.992   1.154  10.707 -0.4471 -1.0275 -1.1379
 4654TIP3   OH238156   3.905   5.954   9.380  0.0243 -0.3105 -0.2633
 4654TIP3    H138157   3.916   5.863   9.407  0.2382 -0.5777 -1.2248
 4654TIP3    H238158   3.993   5.991   9.386  0.0236 -0.2970 -0.3415
 4655TIP3   OH238159   6.286   0.225   9.923  1.1999  0.0125 -0.2204
 4655TIP3    H138160   6.363   0.211   9.978  0.9659  0.8308  0.3309
 4655TIP3    H238161   6.321   0.248   9.837  1.5762  0.6535  0.1002
 4656TIP3   OH238162   5.070   7.198  10.270 -0.1252  0.0075  0.0880
 4656TIP3    H138163   5.000   7.134  10.282  0.8509 -0.8467  1.3776
 4656TIP3    H238164   5.143   7.149  10.234  0.0784  0.7512 -0.5506
 4657TIP3   OH238165   3.035   2.321  10.461 -0.2370 -0.3665 -0.0510
 4657TIP3    H138166   3.041   2.407  10.501  0.4400 -0.1115 -0.6695
 4657TIP3    H238167   2.941   2.305  10.451 -0.3688  0.9000 -1.1641
 4658TIP3   OH238168   2.930   2.803   9.548 -0.0592  0.1743 -0.4919
 4658TIP3    H138169   2.919   2.767   9.636 -0.1912 -1.3030 -1.0829
 4658TIP3    H238170   2.842   2.799   9.510 -0.1604  1.5582 -0.4260
 4659TIP3   OH238171   2.539   7.755  10.355  0.0055 -0.1524 -0.3507
 4659TIP3    H138172   2.541   7.743  10.450 -0.8862 -0.8654 -0.4097
 4659TIP3    H238173   2.579   7.841  10.341  1.9393 -0.8456  0.5003
 4660TIP3   OH238174   7.585   3.667  11.134  0.2919 -0.4210  0.1308
 4660TIP3    H138175   7.679   3.649  11.134  0.4055  0.1481  1.0797
 4660TIP3    H238176   7.549   3.609  11.201 -0.3254 -1.9790 -1.4718
 4661TIP3   OH238177   5.992   6.074  11.476  0.2425  0.1890 -0.1178
 4661TIP3    H138178   6.019   6.163  11.500  0.5577  0.1195 -0.2055
 4661TIP3    H238179   5.916   6.057  11.531  2.2180 -0.8182  2.5667
 4662TIP3   OH238180   4.654   0.658  10.559 -0.3543 -0.4305 -0.0034
 4662TIP3    H138181   4.643   0.581  10.614 -2.0412 -0.1493  0.1081
 4662TIP3    H238182   4.641   0.625  10.470 -2.3247 -0.1172  0.1213
 4663TIP3   OH238183   3.397   9.117  10.105  0.4422  0.5760  0.0735
 4663TIP3    H138184   3.330   9.160  10.158  0.4206  0.9451 -0.2544
 4663TIP3    H238185   3.371   9.133  10.015  2.2828  2.9438 -0.1525
 4664TIP3   OH238186   6.473   6.255  11.042 -0.2997  0.1421 -0.8147
 4664TIP3    H138187   6.413   6.211  11.103 -0.1580  1.5114  0.3613
 4664TIP3    H238188   6.423   6.263  10.961 -0.1101 -2.6986 -1.2945
 4665TIP3   OH238189   5.582   5.543  11.407 -0.8497  0.2699  0.1149
 4665TIP3    H138190   5.543   5.619  11.364 -0.5913 -0.4421 -1.4456
 4665TIP3    H238191   5.513   5.477  11.407 -0.2560 -0.3850 -1.0161
 4666TIP3   OH238192   1.174   6.034   9.866  0.0488  0.0434 -0.3528
 4666TIP3    H138193   1.119   6.112   9.872  1.6862  1.1393  1.9306
 4666TIP3    H238194   1.143   5.989   9.787 -3.8218  0.7280  0.5582
 4667TIP3   OH238195   5.194   3.441  10.147 -0.0564  0.1791 -0.0615
 4667TIP3    H138196   5.276   3.391  10.151 -0.8189 -1.0133  2.0184
 4667TIP3    H238197   5.220   3.527  10.115  1.7686 -0.6303 -0.8915
 4668TIP3   OH238198   0.997   4.270  10.825 -0.1819  0.4665 -0.1657
 4668TIP3    H138199   1.089   4.293  10.812  0.1703  0.1439  1.4783
 4668TIP3    H238200   0.999   4.199  10.888 -1.5333 -0.1817 -0.8162
 4669TIP3   OH238201   5.401   6.510  10.409  0.1371  0.4128 -0.7319
 4669TIP3    H138202   5.464   6.453  10.366 -1.1216 -1.3713 -0.3132
 4669TIP3    H238203   5.422   6.598  10.376  2.3514 -0.2041 -1.1254
 4670TIP3   OH238204   8.023   8.321  10.035 -0.1015  0.2771  0.0678
 4670TIP3    H138205   8.017   8.324  10.131  1.0801  2.8732  0.1408
 4670TIP3    H238206   7.946   8.370  10.005  0.1141  0.4205 -0.2530
 4671TIP3   OH238207   1.950   0.648   9.757  0.0578 -0.3826  0.2605
 4671TIP3    H138208   1.885   0.716   9.742  0.1788 -0.2556  0.3022
 4671TIP3    H238209   1.916   0.571   9.713  0.2120 -0.1290 -0.3147
 4672TIP3   OH238210   8.767   0.145  10.956  0.1113 -0.1144  0.1149
 4672TIP3    H138211   8.828   0.080  10.919 -0.3381 -0.5355  0.1077
 4672TIP3    H238212   8.692   0.093  10.985  0.1709  0.2864  1.0158
 4673TIP3   OH238213   3.954   1.353   9.476  0.1749 -0.3042 -0.1318
 4673TIP3    H138214   3.888   1.306   9.425  0.0561 -0.3650  0.0785
 4673TIP3    H238215   3.911   1.374   9.558 -0.1148  1.1141 -0.6244
 4674TIP3   OH238216   0.956   6.599  10.258  0.8304 -0.4346 -0.5197
 4674TIP3    H138217   0.966   6.615  10.352  0.4615  1.0539 -0.7132
 4674TIP3    H238218   0.907   6.516  10.253  0.6169 -0.3927  0.5968
 4675TIP3   OH238219   2.602   2.614  10.989 -0.0678 -0.0605 -0.5548
 4675TIP3    H138220   2.630   2.542  10.932  1.0802  0.7387 -1.0533
 4675TIP3    H238221   2.538   2.575  11.048  0.3752 -1.4371 -0.9470
 4676TIP3   OH238222   2.002   7.423  10.110  0.2539 -0.6182 -0.0386
 4676TIP3    H138223   1.972   7.395  10.197  2.2851 -0.8687  0.6366
 4676TIP3    H238224   2.014   7.518  10.118  1.3229 -0.7695  0.2592
 4677TIP3   OH238225   3.092   4.168  10.671 -0.3251 -0.6713 -0.2551
 4677TIP3    H138226   3.108   4.139  10.760  1.4272  1.1432  0.0725
 4677TIP3    H238227   3.061   4.258  10.679 -1.0196 -0.7754 -1.4462
 4678TIP3   OH238228   1.547   7.337  10.385 -0.5058 -0.1912 -0.2394
 4678TIP3    H138229   1.472   7.286  10.414 -1.0147 -0.6437 -2.1908
 4678TIP3    H238230   1.518   7.380  10.304  0.8649  0.8208 -0.2428
 4679TIP3   OH238231   7.571   4.863   9.700  0.2524  0.6066  0.0702
 4679TIP3    H138232   7.541   4.911   9.623 -0.2918 -0.0019 -0.1082
 4679TIP3    H238233   7.553   4.771   9.679  2.1166  0.2122  0.0049
 4680TIP3   OH238234   8.674   1.704  10.125 -0.1565 -0.1526 -0.6955
 4680TIP3    H138235   8.724   1.662  10.195 -0.9339 -0.0908 -0.0797
 4680TIP3    H238236   8.585   1.711  10.160  0.1088  2.8979 -0.3253
 4681TIP3   OH238237   6.570   8.580   9.792  0.1722 -0.2058  0.0673
 4681TIP3    H138238   6.520   8.570   9.873 -0.0973 -2.6314 -0.3159
 4681TIP3    H238239   6.537   8.661   9.753 -2.7294 -1.1573  0.3426
 4682TIP3   OH238240   4.957   0.376   9.710 -0.3542  0.0890 -0.2253
 4682TIP3    H138241   4.889   0.444   9.704 -0.8259 -0.3145  0.5142
 4682TIP3    H238242   4.913   0.301   9.750  0.8606  0.2635  1.5213
 4683TIP3   OH238243   3.018   5.099  10.172  0.3869 -0.3817 -0.3569
 4683TIP3    H138244   2.973   5.096  10.256  0.4662 -0.0056 -0.2983
 4683TIP3    H238245   3.084   5.030  10.177 -0.4622 -1.2275 -0.6096
 4684TIP3   OH238246   1.721   6.289  10.456 -0.1215  0.2307  0.1989
 4684TIP3    H138247   1.654   6.249  10.401 -0.9324  0.0199  1.3013
 4684TIP3    H238248   1.801   6.242  10.434 -0.5717 -0.3417 -0.2649
 4685TIP3   OH238249   7.626   0.216  10.139 -0.5956 -0.1071  0.6400
 4685TIP3    H138250   7.645   0.128  10.106  2.7460  0.0902  1.7332
 4685TIP3    H238251   7.616   0.269  10.060  1.1579 -0.7891 -0.0819
 4686TIP3   OH238252   1.778   1.143  10.306  0.0765  0.0578  0.5660
 4686TIP3    H138253   1.793   1.225  10.259  0.3292 -0.3136 -0.0100
 4686TIP3    H238254   1.852   1.087  10.282 -0.1686 -0.3927  0.8392
 4687TIP3   OH238255   2.670   4.504   9.993 -0.3020 -0.2737  0.0224
 4687TIP3    H138256   2.765   4.497   9.985 -0.0859 -0.6453  2.2745
 4687TIP3    H238257   2.643   4.549   9.913  1.8857  0.9393 -0.1227
 4688TIP3   OH238258   3.197   2.611   9.171 -0.5343  0.6745 -0.6772
 4688TIP3    H138259   3.127   2.656   9.218  0.0724  1.0863 -0.1521
 4688TIP3    H238260   3.237   2.679   9.117  1.9805  1.4486  1.9346
 4689TIP3   OH238261   4.906   6.506  10.086  0.6729  0.4425 -0.4595
 4689TIP3    H138262   4.954   6.438  10.134 -2.6385 -1.4676  0.5366
 4689TIP3    H238263   4.898   6.578  10.148  0.5237 -0.0654  0.1220
 4690TIP3   OH238264   7.970   3.645  10.533 -0.1262  0.0224  0.2043
 4690TIP3    H138265   7.989   3.578  10.468  1.6042  0.2038  0.4962
 4690TIP3    H238266   7.981   3.601  10.617  0.1418  0.4376  0.3908
 4691TIP3   OH238267   7.835   2.012  11.095 -0.3090 -0.6777 -0.1272
 4691TIP3    H138268   7.813   1.956  11.021 -0.8588 -0.8719  0.1820
 4691TIP3    H238269   7.836   1.954  11.170 -1.3553 -0.2058  0.2754
 4692TIP3   OH238270   2.570   1.267   9.751 -0.3115 -0.2140  0.4564
 4692TIP3    H138271   2.513   1.203   9.710  0.3031 -0.2439 -0.3870
 4692TIP3    H238272   2.652   1.220   9.765  0.1688  0.3878 -0.2455
 4693TIP3   OH238273   5.664   5.125  11.507  0.2020 -0.2360  0.4387
 4693TIP3    H138274   5.731   5.057  11.515  1.7039  1.1503  0.1220
 4693TIP3    H238275   5.634   5.118  11.416  1.2380  0.2857  0.0369
 4694TIP3   OH238276   5.053   0.950  10.426  0.1066  0.6174 -0.2405
 4694TIP3    H138277   5.101   1.032  10.412 -1.2529  1.1853 -1.7910
 4694TIP3    H238278   4.961   0.974  10.419 -0.3377 -1.0054 -0.3945
 4695TIP3   OH238279   8.739   6.998  10.060 -0.0158 -0.3584 -0.1091
 4695TIP3    H138280   8.672   7.063  10.040  0.5617 -0.2594 -1.8860
 4695TIP3    H238281   8.821   7.039  10.033  0.5442 -1.2171  0.2485
 4696TIP3   OH238282   1.818   7.569  10.746  0.6705  0.0245 -0.2789
 4696TIP3    H138283   1.833   7.651  10.698 -0.5078  1.0701  1.0176
 4696TIP3    H238284   1.905   7.539  10.771  1.3602 -0.6438 -3.0690
 4697TIP3   OH238285   3.076   5.703  10.382 -0.4820  0.3141 -0.5567
 4697TIP3    H138286   3.135   5.699  10.307  0.8176 -1.0800  0.4820
 4697TIP3    H238287   3.113   5.770  10.439 -0.2347 -0.1288 -0.1875
 4698TIP3   OH238288   4.454   1.478   9.862  0.1219 -0.3074  0.4353
 4698TIP3    H138289   4.467   1.503   9.954  0.2188  1.1959  0.0273
 4698TIP3    H238290   4.368   1.511   9.839  0.6485  0.5334 -0.3987
 4699TIP3   OH238291   2.406   8.473   9.582  0.1731 -0.1081  0.2603
 4699TIP3    H138292   2.327   8.452   9.532 -0.8706  1.6940  1.0392
 4699TIP3    H238293   2.387   8.442   9.670  0.3015  0.3769  0.4613
 4700TIP3   OH238294   4.079   4.624  10.827  0.2176  0.0262  0.1112
 4700TIP3    H138295   3.996   4.659  10.795 -0.7091 -0.3027  1.9955
 4700TIP3    H238296   4.095   4.545  10.776 -1.2264 -0.5147  0.4618
 4701TIP3   OH238297   4.163   7.560  10.754  0.0374  0.2444  0.3540
 4701TIP3    H138298   4.171   7.609  10.835  1.4702  2.5927 -1.0834
 4701TIP3    H238299   4.156   7.627  10.686 -0.8163 -1.6148 -1.5113
 4702TIP3   OH238300   0.346   8.756   9.670  0.0113 -0.5143 -0.0449
 4702TIP3    H138301   0.385   8.696   9.607  1.6773  2.2371 -1.8701
 4702TIP3    H238302   0.408   8.757   9.743  1.0490  0.3454 -0.8862
 4703TIP3   OH238303   5.590   8.689  10.943 -0.5452 -0.5847  0.0128
 4703TIP3    H138304   5.586   8.748  11.018 -2.0463 -1.2137  0.4636
 4703TIP3    H238305   5.500   8.660  10.930 -0.4985  0.2901 -2.7009
 4704TIP3   OH238306   0.073   0.305   9.526  0.1767 -0.0180 -0.9242
 4704TIP3    H138307   0.111   0.264   9.448  0.3953  0.4323 -1.0609
 4704TIP3    H238308   0.020   0.237   9.566  1.5315 -0.8401 -0.4586
 4705TIP3   OH238309   1.935   5.127  10.499  0.5199  0.1086  0.5059
 4705TIP3    H138310   1.985   5.047  10.514  0.1025 -0.4170 -0.7914
 4705TIP3    H238311   1.846   5.105  10.527  0.3221 -0.0058 -0.2132
 4706TIP3   OH238312   3.654   4.524   9.735  0.1217  0.3321  0.0253
 4706TIP3    H138313   3.586   4.582   9.701 -0.0699 -0.6460 -1.3326
 4706TIP3    H238314   3.711   4.508   9.660  0.2648 -1.0710  0.4097
 4707TIP3   OH238315   5.212   7.913  10.203 -0.3193  0.2324 -0.4518
 4707TIP3    H138316   5.150   7.936  10.272 -0.4663 -1.2808 -0.0472
 4707TIP3    H238317   5.298   7.913  10.247 -0.5526 -2.0935  0.1485
 4708TIP3   OH238318   1.635   5.826  10.744 -0.0633  0.3332 -0.2948
 4708TIP3    H138319   1.730   5.813  10.735  0.1727  0.0490  1.9565
 4708TIP3    H238320   1.603   5.834  10.654  2.0503  0.1414 -1.1231
 4709TIP3   OH238321   5.099   5.310  11.328  0.2037 -0.0934 -0.5290
 4709TIP3    H138322   5.162   5.282  11.261  0.7238  0.1904 -0.1649
 4709TIP3    H238323   5.050   5.381  11.287 -0.0571 -0.4839 -0.9031
 4710TIP3   OH238324   0.004   3.249  10.725  0.8171 -0.4838 -0.6460
 4710TIP3    H138325   0.023   3.341  10.705  0.3311 -0.5613 -1.5083
 4710TIP3    H238326   0.026   3.202  10.645  2.0287 -1.2745  0.1069
 4711TIP3   OH238327   3.209   6.280  11.100  0.0871 -0.1529  0.4334
 4711TIP3    H138328   3.154   6.221  11.152  1.6445 -2.0189  0.0711
 4711TIP3    H238329   3.188   6.367  11.133 -0.8121 -1.0637  2.4226
 4712TIP3   OH238330   0.585   5.426   9.282  0.1645 -0.2257 -0.2050
 4712TIP3    H138331   0.628   5.357   9.332  4.9180  2.4740  0.0519
 4712TIP3    H238332   0.623   5.507   9.316 -3.9519  2.5414 -1.4729
 4713TIP3   OH238333   0.094   9.199  10.412  0.3460  0.4070 -0.6753
 4713TIP3    H138334   0.165   9.250  10.451  0.8221 -2.1710  2.1850
 4713TIP3    H238335   0.014   9.247  10.436  0.8109  0.2549  1.3310
 4714TIP3   OH238336   8.206   0.298  10.207  0.4992 -0.0119 -0.3284
 4714TIP3    H138337   8.275   0.232  10.216  1.3769  0.7525 -1.1867
 4714TIP3    H238338   8.148   0.282  10.281  1.1140 -1.2384 -0.0774
 4715TIP3   OH238339   1.566   7.813  10.378 -0.0851 -0.3214  0.4091
 4715TIP3    H138340   1.544   7.742  10.438 -2.0152  0.1844  0.3729
 4715TIP3    H238341   1.607   7.770  10.303 -1.0088 -1.3862  0.4937
 4716TIP3   OH238342   9.095   0.707   9.993  0.2671 -0.3845  0.5768
 4716TIP3    H138343   9.080   0.761   9.916  1.1235 -0.6493  0.2156
 4716TIP3    H238344   9.190   0.693   9.996  0.2014 -0.7704  1.4076
 4717TIP3   OH238345   6.486   5.093  11.076  0.0134 -0.3728 -0.0861
 4717TIP3    H138346   6.530   5.018  11.115  0.0006 -0.2095  0.2524
 4717TIP3    H238347   6.557   5.144  11.036  0.0714 -0.3701  0.0179
 4718TIP3   OH238348   1.269   7.085   9.825  0.4455  0.3756  0.3047
 4718TIP3    H138349   1.243   7.069   9.916  0.2643  1.3952  0.4449
 4718TIP3    H238350   1.216   7.025   9.774  1.6176 -1.2890  0.9626
 4719TIP3   OH238351   0.525   4.370  10.468 -0.3011 -0.0587 -0.9119
 4719TIP3    H138352   0.547   4.373  10.375  0.1574  1.1719 -0.7832
 4719TIP3    H238353   0.441   4.416  10.474  0.2027  0.8459 -0.5912
 4720TIP3   OH238354   0.914   1.023   9.365 -0.1384 -0.3764  0.1941
 4720TIP3    H138355   0.986   1.078   9.335  0.2245 -0.2595  1.2249
 4720TIP3    H238356   0.882   0.979   9.286  0.1724  0.6006 -0.4958
 4721TIP3   OH238357   0.602   6.700   9.836  0.1501 -0.4852 -0.1274
 4721TIP3    H138358   0.522   6.743   9.806  0.2465 -0.5303 -0.4565
 4721TIP3    H238359   0.670   6.767   9.829 -0.1071 -0.0156  1.4856
 4722TIP3   OH238360   2.888   9.180   9.799  0.4586  0.1391 -0.4727
 4722TIP3    H138361   2.905   9.239   9.725 -1.1990  1.7078  0.2866
 4722TIP3    H238362   2.971   9.137   9.816  2.0816  2.9978 -0.4999
 4723TIP3   OH238363   9.208   4.993   9.661 -0.0418 -0.7504  0.0759
 4723TIP3    H138364   9.113   5.002   9.650 -0.1918 -1.5216  0.7120
 4723TIP3    H238365   9.239   5.083   9.674 -0.8768 -0.6263  1.3694
 4724TIP3   OH238366   2.192   0.571  10.425 -0.4628 -0.2744 -0.9294
 4724TIP3    H138367   2.222   0.561  10.515 -0.0157 -0.9868 -1.1514
 4724TIP3    H238368   2.096   0.578  10.431 -0.5079 -1.2465 -0.4773
 4725TIP3   OH238369   8.006   5.374  10.485 -0.0685 -0.2168 -0.1548
 4725TIP3    H138370   7.952   5.316  10.431  2.6598 -0.4688 -2.9094
 4725TIP3    H238371   7.974   5.462  10.464 -1.3744 -0.4805  0.6538
 4726TIP3   OH238372   7.054   5.746  10.294 -0.1998  0.0567  0.3913
 4726TIP3    H138373   6.971   5.707  10.320 -0.6675 -1.1969 -2.5495
 4726TIP3    H238374   7.035   5.840  10.290 -1.4441 -0.1844 -0.0256
 4727TIP3   OH238375   6.209   4.475   9.690 -0.1869 -0.3976 -0.1663
 4727TIP3    H138376   6.291   4.512   9.657 -1.3427  1.4081 -1.1472
 4727TIP3    H238377   6.186   4.530   9.765  0.1820 -1.7928  1.0345
 4728TIP3   OH238378   3.451   0.949   9.257 -0.1081 -0.1203  0.3593
 4728TIP3    H138379   3.387   1.016   9.232 -1.3644 -1.7402 -0.9822
 4728TIP3    H238380   3.494   0.986   9.334 -2.4449  1.1839  1.1571
 4729TIP3   OH238381   8.418   7.329   9.307  0.1151 -0.2108  1.2466
 4729TIP3    H138382   8.399   7.331   9.401  1.6896 -0.7043  1.5928
 4729TIP3    H238383   8.417   7.236   9.284  0.4702 -0.1377  0.9252
 4730TIP3   OH238384   3.471   8.576   9.631 -0.1167 -0.1242  0.1296
 4730TIP3    H138385   3.400   8.629   9.594  0.3399  1.8017  1.8026
 4730TIP3    H238386   3.448   8.565   9.723  0.5886 -1.5479  0.1640
 4731TIP3   OH238387   3.307   0.406   9.705 -0.6496  0.1827 -0.7110
 4731TIP3    H138388   3.337   0.404   9.614 -1.7544 -0.8970 -1.0818
 4731TIP3    H238389   3.246   0.332   9.711  0.1724 -0.3962  1.1748
 4732TIP3   OH238390   8.699   8.383   9.164  0.2681  1.0621  0.6285
 4732TIP3    H138391   8.674   8.345   9.248 -1.7873 -0.4257 -0.5612
 4732TIP3    H238392   8.656   8.468   9.163 -1.3881  0.2608  0.3263
 4733TIP3   OH238393   0.179   8.093   9.609  0.0034  0.3124  0.7040
 4733TIP3    H138394   0.139   8.092   9.696  0.3438 -0.5593  0.8658
 4733TIP3    H238395   0.264   8.052   9.622  1.2050  2.5708  0.4714
 4734TIP3   OH238396   5.944   6.817  11.490  0.0121  0.1652 -0.2423
 4734TIP3    H138397   6.019   6.779  11.445  0.2834  0.3709  0.0215
 4734TIP3    H238398   5.969   6.816  11.583 -1.5374 -2.5307  0.2393
 4735TIP3   OH238399   9.150   8.940   9.291  0.3185  0.1207 -0.1981
 4735TIP3    H138400   9.203   9.019   9.301 -0.9393  1.1834 -1.5348
 4735TIP3    H238401   9.211   8.873   9.260  0.7927  1.5001 -2.4174
 4736TIP3   OH238402   3.384   2.371  10.221 -0.2088 -0.2060 -0.2490
 4736TIP3    H138403   3.406   2.331  10.136 -0.3885 -0.2533 -0.2741
 4736TIP3    H238404   3.289   2.385  10.217  0.0751  1.8555 -0.9385
 4737TIP3   OH238405   1.228   4.789  10.243 -0.1640  0.4116 -0.9538
 4737TIP3    H138406   1.263   4.875  10.268 -0.1014  0.3726 -0.9061
 4737TIP3    H238407   1.305   4.732  10.240 -0.1527  0.4465 -1.3654
 4738TIP3   OH238408   3.638   5.919  10.548  0.7660  0.2695 -0.2472
 4738TIP3    H138409   3.652   6.004  10.590  0.0770  0.3298 -0.1255
 4738TIP3    H238410   3.594   5.940  10.465  1.0760  0.0678 -0.4653
 4739TIP3   OH238411   5.616   0.081  10.431  0.3587  0.6934  0.1954
 4739TIP3    H138412   5.563   0.083  10.351 -3.0476  0.2022  2.2468
 4739TIP3    H238413   5.685   0.017  10.413  1.8418  2.9776 -3.4056
 4740TIP3   OH238414   6.143   2.503   9.464 -0.4457  0.0524  0.1580
 4740TIP3    H138415   6.058   2.544   9.449  0.4381  1.8296 -0.2436
 4740TIP3    H238416   6.206   2.575   9.454  1.1738 -1.3981 -0.4471
 4741TIP3   OH238417   6.060   8.257  10.078  0.0956 -0.0213 -0.1539
 4741TIP3    H138418   6.104   8.253   9.993 -0.0483 -0.2700 -0.2182
 4741TIP3    H238419   6.081   8.344  10.112  0.3865 -0.0269 -0.3184
 4742TIP3   OH238420   8.318   3.742  10.413 -0.3103  0.3995 -0.3070
 4742TIP3    H138421   8.333   3.761  10.505 -2.1213 -0.9893  0.3376
 4742TIP3    H238422   8.296   3.826  10.374 -2.8482  0.5721  1.2877
 4743TIP3   OH238423   6.486   1.614   9.768 -0.0215 -0.1358 -0.0064
 4743TIP3    H138424   6.479   1.657   9.683 -0.2336 -1.1533 -0.5187
 4743TIP3    H238425   6.532   1.677   9.823  0.9120  0.1946 -1.1213
 4744TIP3   OH238426   5.587   8.647   9.918 -0.5179  0.7817 -0.4379
 4744TIP3    H138427   5.664   8.703   9.909 -0.0635 -0.0790 -2.1600
 4744TIP3    H238428   5.595   8.609  10.005  0.3747  1.5915 -0.1487
 4745TIP3   OH238429   5.727   1.647  10.212  0.1917  0.9647 -0.2078
 4745TIP3    H138430   5.638   1.681  10.221  0.9978  3.6173 -1.3145
 4745TIP3    H238431   5.750   1.616  10.300 -1.3959  1.2951  0.3471
 4746TIP3   OH238432   5.968   5.531  10.856  0.0570  0.6134  0.3732
 4746TIP3    H138433   5.974   5.520  10.951 -0.4663  1.1296  0.4713
 4746TIP3    H238434   5.877   5.507  10.835  0.4667 -0.5663 -0.1532
 4747TIP3   OH238435   5.005   7.405   9.358 -0.1459 -0.5775  0.0404
 4747TIP3    H138436   4.930   7.380   9.411  0.6043  0.5092  1.6886
 4747TIP3    H238437   5.035   7.323   9.318 -0.6752 -1.4495  1.3753
 4748TIP3   OH238438   4.599   2.441  10.493  0.1818 -0.1508  0.4233
 4748TIP3    H138439   4.540   2.386  10.441  2.2121  0.4821 -2.8926
 4748TIP3    H238440   4.584   2.529  10.460  1.2818  0.3511  1.2319
 4749TIP3   OH238441   3.693   1.739   9.683 -0.0969  0.8631 -0.1243
 4749TIP3    H138442   3.608   1.785   9.683  0.0729  1.2019  1.1863
 4749TIP3    H238443   3.756   1.804   9.713  0.3868  0.1933  0.3520
 4750TIP3   OH238444   5.690   1.042  10.261  0.6608  0.3975  0.2658
 4750TIP3    H138445   5.636   1.073  10.188  0.0766  1.4611  1.1337
 4750TIP3    H238446   5.744   1.117  10.285  1.4714 -0.2094  0.3807
 4751TIP3   OH238447   0.690   7.724  10.546  0.1798  0.0540 -0.1881
 4751TIP3    H138448   0.714   7.809  10.510  2.0169 -0.0782  0.6052
 4751TIP3    H238449   0.595   7.728  10.558 -0.0836  1.1433 -2.2458
 4752TIP3   OH238450   8.152   4.405   9.844 -0.3786  0.3449  0.0794
 4752TIP3    H138451   8.128   4.336   9.783  1.0670  0.2111 -0.3616
 4752TIP3    H238452   8.140   4.486   9.795 -2.6459  0.5051  0.7807
 4753TIP3   OH238453   1.228   3.359   9.420 -0.2098  0.2693 -0.2336
 4753TIP3    H138454   1.153   3.349   9.480  0.2734  0.2031  0.3700
 4753TIP3    H238455   1.261   3.270   9.409  1.0731  0.5211  1.2090
 4754TIP3   OH238456   4.295   9.160   9.861  0.6456 -0.6847  0.9839
 4754TIP3    H138457   4.289   9.255   9.848 -0.2355 -0.6738  1.4033
 4754TIP3    H238458   4.349   9.129   9.788  1.8329  0.2640  1.4197
 4755TIP3   OH238459   4.548   8.874  11.148  0.1206  0.5046 -0.2354
 4755TIP3    H138460   4.507   8.797  11.189 -1.7589  0.7221 -1.5628
 4755TIP3    H238461   4.528   8.865  11.055  1.1507  1.8661 -0.6192
 4756TIP3   OH238462   1.190   9.012  10.143  0.4538  0.1349 -0.2641
 4756TIP3    H138463   1.174   9.099  10.106  1.7219  0.1237 -0.8786
 4756TIP3    H238464   1.118   8.959  10.110 -1.1096  1.2227  1.1985
 4757TIP3   OH238465   2.618   3.870  10.227  0.4799  0.0033  0.2295
 4757TIP3    H138466   2.641   3.961  10.206  1.7469 -0.4579 -0.5222
 4757TIP3    H238467   2.523   3.866  10.213  0.3399  1.2986  0.6572
 4758TIP3   OH238468   0.481   0.453   9.674 -0.6219  0.1311 -0.1677
 4758TIP3    H138469   0.565   0.410   9.658 -1.3819 -0.6193 -2.5595
 4758TIP3    H238470   0.495   0.544   9.647 -0.6157 -0.0190 -0.6675
 4759TIP3   OH238471   2.915   0.040  10.803 -0.0266  0.1503  0.3868
 4759TIP3    H138472   3.010   0.043  10.809 -0.0355  2.1732  0.0453
 4759TIP3    H238473   2.887   0.131  10.800 -1.8933 -0.3895 -0.9372
 4760TIP3   OH238474   0.339   3.216   9.790 -0.2243 -0.5778 -0.0805
 4760TIP3    H138475   0.257   3.266   9.785 -0.1699 -0.4606  0.1917
 4760TIP3    H238476   0.342   3.184   9.880  0.6126  0.4198  0.2634
 4761TIP3   OH238477   7.367   3.535  10.805 -0.4322  0.1719 -0.0852
 4761TIP3    H138478   7.370   3.631  10.806 -1.0520  0.2414 -2.0033
 4761TIP3    H238479   7.450   3.508  10.845 -1.0684  1.4381  2.3335
 4762TIP3   OH238480   8.084   4.181   9.706  0.0615 -0.2169 -0.3950
 4762TIP3    H138481   8.116   4.171   9.616  0.4361 -0.7743 -0.2024
 4762TIP3    H238482   8.038   4.099   9.725  1.7730 -0.9844  0.6331
 4763TIP3   OH238483   5.559   8.303   9.885  0.3549  0.2952  0.0111
 4763TIP3    H138484   5.635   8.358   9.866  0.5033  0.7053  1.6387
 4763TIP3    H238485   5.493   8.329   9.820  0.6424  1.9617  0.3440
 4764TIP3   OH238486   1.211   3.425  10.680  0.5838  0.3038 -0.3659
 4764TIP3    H138487   1.230   3.333  10.698 -2.2380 -0.4927 -1.0193
 4764TIP3    H238488   1.144   3.448  10.744  1.8855  2.2194  0.3769
 4765TIP3   OH238489   8.876   1.175   9.817  0.2530  0.2913 -0.3081
 4765TIP3    H138490   8.896   1.143   9.729 -0.3550  1.6004 -0.9431
 4765TIP3    H238491   8.879   1.270   9.809 -0.2469  0.4335  0.9948
 4766TIP3   OH238492   2.908   4.765   9.804 -0.5816 -0.1087  0.4412
 4766TIP3    H138493   2.858   4.693   9.766 -0.2669  0.8528 -1.9776
 4766TIP3    H238494   2.999   4.743   9.787 -0.5264  1.9231 -2.7136
 4767TIP3   OH238495   0.011   4.829   9.413 -0.3552  0.0911  0.1078
 4767TIP3    H138496   0.041   4.868   9.495  0.1728 -0.0901  0.0046
 4767TIP3    H238497   0.018   4.900   9.349  2.9723 -0.7254 -0.6427
 4768TIP3   OH238498   8.681   4.280  10.332  0.7624  0.4139 -0.2163
 4768TIP3    H138499   8.703   4.373  10.336  2.5964  0.0043  0.7106
 4768TIP3    H238500   8.744   4.243  10.270 -0.3690 -0.1236 -1.0699
 4769TIP3   OH238501   4.073   5.940  11.246  0.5778 -0.1625  0.2729
 4769TIP3    H138502   4.128   5.876  11.200  0.3854 -0.9671  1.1439
 4769TIP3    H238503   4.135   6.003  11.283  0.8655 -0.6435  0.6143
 4770TIP3   OH238504   7.679   4.200  10.444  0.0932 -0.4868 -0.0246
 4770TIP3    H138505   7.616   4.225  10.511 -1.0710  0.6394 -1.4679
 4770TIP3    H238506   7.734   4.278  10.432 -0.8234 -0.0076 -1.5328
 4771TIP3   OH238507   4.720   5.426  11.136 -0.1536  0.0880 -0.0725
 4771TIP3    H138508   4.681   5.498  11.184 -1.3990 -0.3758 -0.3525
 4771TIP3    H238509   4.805   5.459  11.107  0.0004  0.8594  1.1996
 4772TIP3   OH238510   8.325   4.333  10.596 -0.3404 -0.6522 -0.7181
 4772TIP3    H138511   8.366   4.369  10.517  0.7469  0.0574  0.1353
 4772TIP3    H238512   8.267   4.403  10.627  0.9026 -0.0383  0.3044
 4773TIP3   OH238513   5.073   2.015  10.579 -0.1741 -0.8549 -0.3408
 4773TIP3    H138514   5.071   2.001  10.484 -0.9606  2.0753 -0.8660
 4773TIP3    H238515   5.163   1.992  10.604  0.9414  0.8717 -2.3463
 4774TIP3   OH238516   4.101   2.275   9.872 -0.5683 -0.5411  0.1996
 4774TIP3    H138517   4.044   2.342   9.836 -2.2352 -1.0117  1.8042
 4774TIP3    H238518   4.162   2.323   9.928  0.6060 -0.0557 -1.3970
 4775TIP3   OH238519   6.345   3.342   9.521  0.4306  0.0428  0.1668
 4775TIP3    H138520   6.253   3.369   9.517  0.1880 -0.5719  1.2724
 4775TIP3    H238521   6.394   3.420   9.493 -0.3546  0.9622  1.2889
 4776TIP3   OH238522   0.449   5.112  10.801 -0.2973  0.6959  0.2838
 4776TIP3    H138523   0.479   5.059  10.875  2.7610  0.7237 -0.7848
 4776TIP3    H238524   0.517   5.178  10.789 -0.6749  0.7000 -2.5284
 4777TIP3   OH238525   4.957   6.864   9.226 -0.3914  0.0065  0.0543
 4777TIP3    H138526   4.967   6.873   9.131  3.7609  1.2008  0.3975
 4777TIP3    H238527   5.014   6.790   9.249 -0.7139  0.2288  1.7036
 4778TIP3   OH238528   4.219   0.709   9.864  0.5440 -0.0375  0.7132
 4778TIP3    H138529   4.203   0.802   9.879  0.5716  0.2440 -0.8687
 4778TIP3    H238530   4.243   0.703   9.771  1.7610 -1.4623  1.0736
 4779TIP3   OH238531   6.672   0.003  10.641 -0.0373  0.0545 -0.3379
 4779TIP3    H138532   6.668  -0.030  10.731  0.0516 -0.3920 -0.4951
 4779TIP3    H238533   6.738  -0.052  10.598 -1.4695 -1.0782 -1.2102
 4780TIP3   OH238534   9.216   1.025  10.339 -0.0681  0.6328  0.4151
 4780TIP3    H138535   9.169   0.975  10.272  1.2707  2.8323 -2.4237
 4780TIP3    H238536   9.151   1.084  10.376 -0.2523  1.5969 -1.3454
 4781TIP3   OH238537   6.404   9.146   9.899  0.1672  0.1812 -0.0742
 4781TIP3    H138538   6.323   9.094   9.904  0.7114 -0.8779 -1.5085
 4781TIP3    H238539   6.416   9.180   9.988 -0.1641 -2.2543  0.9822
 4782TIP3   OH238540   7.665   2.060  10.420 -0.3142  0.0028  0.3552
 4782TIP3    H138541   7.719   2.041  10.497  0.0859 -0.2812  0.0095
 4782TIP3    H238542   7.692   2.148  10.393 -1.8735  0.9775  1.7100
 4783TIP3   OH238543   0.886   2.327  10.783 -0.2057 -0.0194 -0.3291
 4783TIP3    H138544   0.912   2.405  10.832  0.6665  0.3141 -1.2880
 4783TIP3    H238545   0.837   2.274  10.846 -0.8082  1.2908  0.3398
 4784TIP3   OH238546   5.964   7.725  11.283 -0.0708 -0.1268  0.4354
 4784TIP3    H138547   5.901   7.786  11.245  1.2681  0.6201 -0.6785
 4784TIP3    H238548   6.033   7.717  11.217  1.1534 -0.6823  1.7212
 4785TIP3   OH238549   8.206   1.095  11.300 -0.4086 -0.5715 -0.3989
 4785TIP3    H138550   8.246   1.058  11.221  0.9587  0.2067 -0.1064
 4785TIP3    H238551   8.263   1.168  11.324 -2.0665  0.6486  0.0236
 4786TIP3   OH238552   8.197   3.804   9.521 -0.0302 -0.2062 -0.6758
 4786TIP3    H138553   8.213   3.847   9.605  1.3499 -2.6579  0.4225
 4786TIP3    H238554   8.102   3.796   9.516 -0.2861  2.1308 -0.5711
 4787TIP3   OH238555   5.778   2.154  10.906 -0.4858  0.3826 -0.2909
 4787TIP3    H138556   5.767   2.242  10.870  0.1342 -0.0451 -1.5583
 4787TIP3    H238557   5.764   2.166  11.000 -1.0873  1.7107 -0.5186
 4788TIP3   OH238558   6.211   3.383  10.830 -0.1695  0.2511  0.4407
 4788TIP3    H138559   6.230   3.340  10.747  1.5118 -0.6355  1.2278
 4788TIP3    H238560   6.173   3.468  10.806 -0.0041 -0.1121 -1.2004
 4789TIP3   OH238561   3.439   4.369  11.009  0.1195 -0.4316 -0.2884
 4789TIP3    H138562   3.449   4.324  11.093  0.6104 -2.2070 -1.2550
 4789TIP3    H238563   3.370   4.434  11.025  0.3123 -0.6187  1.5187
 4790TIP3   OH238564   6.065   0.438  10.305  0.4127  0.2336  0.1431
 4790TIP3    H138565   6.020   0.394  10.378 -0.2763  0.4042 -0.1750
 4790TIP3    H238566   6.155   0.449  10.336  0.5602 -1.2335  0.3057
 4791TIP3   OH238567   2.947   3.171  10.795  0.3652  0.2046  0.1063
 4791TIP3    H138568   2.926   3.263  10.811  2.0696  0.1418  3.8366
 4791TIP3    H238569   2.966   3.166  10.701 -2.0868  3.0652 -0.6890
 4792TIP3   OH238570   5.711   0.260  11.018  0.5662  0.4977 -0.4538
 4792TIP3    H138571   5.701   0.189  10.953  1.3542  0.1553 -0.2180
 4792TIP3    H238572   5.634   0.251  11.074 -0.0942  0.7523 -1.2901
 4793TIP3   OH238573   6.185   2.953   9.475  0.0696  0.4730  0.3763
 4793TIP3    H138574   6.151   3.017   9.413 -1.0071  0.1287  0.5945
 4793TIP3    H238575   6.214   2.879   9.421  0.2643  0.6714  0.2065
 4794TIP3   OH238576   5.274   1.340  11.103  1.2513  0.3089 -0.2454
 4794TIP3    H138577   5.322   1.269  11.145  1.2884  0.2754 -0.3431
 4794TIP3    H238578   5.186   1.306  11.091  0.7076  0.9789  1.5011
 4795TIP3   OH238579   6.720   0.953  10.528  0.5554 -0.0882 -0.2168
 4795TIP3    H138580   6.649   1.016  10.525  0.5415  0.0652  1.7514
 4795TIP3    H238581   6.765   0.962  10.445 -1.7042 -0.1933 -1.5239
 4796TIP3   OH238582   5.201   4.603  10.760  0.5626  0.0599 -0.4119
 4796TIP3    H138583   5.229   4.694  10.767 -0.9423  0.5632 -0.5180
 4796TIP3    H238584   5.109   4.609  10.734  0.8805 -1.5018 -2.0991
 4797TIP3   OH238585   6.466   2.216  10.245  0.6556 -0.5361 -0.0943
 4797TIP3    H138586   6.416   2.165  10.181 -0.2126  0.2839 -0.1037
 4797TIP3    H238587   6.431   2.188  10.330  0.6995 -0.4950 -0.0628
 4798TIP3   OH238588   0.995   3.383  10.496 -0.4354  0.2731  0.0341
 4798TIP3    H138589   1.062   3.361  10.561 -1.1722  1.7041  1.3659
 4798TIP3    H238590   1.044   3.423  10.424  0.1832  1.3322  1.0024
 4799TIP3   OH238591   8.648   6.980  10.733  0.5926  0.0360  0.1655
 4799TIP3    H138592   8.737   7.009  10.715  0.6007  0.1625  0.3991
 4799TIP3    H238593   8.613   6.953  10.648  1.1089 -0.7259  0.1916
 4800TIP3   OH238594   0.865   7.126   9.715  0.1129 -0.1047  0.5976
 4800TIP3    H138595   0.874   7.125   9.620  0.6211 -1.4085  0.6333
 4800TIP3    H238596   0.948   7.091   9.747  0.4415  1.5181  1.5819
 4801TIP3   OH238597   0.751   0.640  10.965  0.2554 -0.4122 -0.2447
 4801TIP3    H138598   0.817   0.630  11.034 -0.2189 -0.6016  0.1923
 4801TIP3    H238599   0.752   0.556  10.919 -1.3191 -1.3500  1.2619
 4802TIP3   OH238600   4.675   4.433  10.763  0.1506  0.0211 -0.2010
 4802TIP3    H138601   4.655   4.516  10.720  1.2474 -0.0647 -0.9434
 4802TIP3    H238602   4.659   4.449  10.856 -0.9136  0.6491 -0.4751
 4803TIP3   OH238603   1.930   8.060  10.682 -0.4175  0.6974 -0.4412
 4803TIP3    H138604   1.929   7.971  10.717 -1.0560  1.4826  1.7537
 4803TIP3    H238605   1.944   8.049  10.588  2.5665 -1.5642  0.0919
 4804TIP3   OH238606   8.880   7.536  10.372  0.1558  1.0343 -0.0320
 4804TIP3    H138607   8.794   7.500  10.394  0.3108  0.3561 -0.4889
 4804TIP3    H238608   8.913   7.572  10.454 -0.7044  1.5967  0.0725
 4805TIP3   OH238609   8.557   3.324  10.791  0.5655  0.1851 -0.1599
 4805TIP3    H138610   8.517   3.257  10.847  1.8362  0.6515  1.3859
 4805TIP3    H238611   8.650   3.304  10.793  0.6162 -0.1920 -2.7647
 4806TIP3   OH238612   8.514   2.962   9.787  0.1295  0.1376  0.0871
 4806TIP3    H138613   8.422   2.937   9.798  0.6216 -0.7129  3.1285
 4806TIP3    H238614   8.556   2.886   9.747 -0.3467  0.3258 -0.8023
 4807TIP3   OH238615   3.563   4.014  11.151  0.4670  0.1845 -0.1992
 4807TIP3    H138616   3.519   3.954  11.212  2.7532  0.1493  1.5422
 4807TIP3    H238617   3.585   4.090  11.205 -0.3395  1.6587 -1.8340
 4808TIP3   OH238618   1.533   0.253   9.965  0.1839 -0.3275  0.5402
 4808TIP3    H138619   1.595   0.289   9.901 -0.0883 -0.2061  0.3477
 4808TIP3    H238620   1.508   0.329  10.018  0.0089 -0.3321  0.4623
 4809TIP3   OH238621   7.787   2.927  10.782  0.5441  0.1450 -0.5188
 4809TIP3    H138622   7.721   2.978  10.829  0.6271  1.7665 -2.0610
 4809TIP3    H238623   7.760   2.836  10.795 -2.3286  0.7394 -1.5269
 4810TIP3   OH238624   7.277   0.022   9.907 -0.3465 -0.0898 -0.2677
 4810TIP3    H138625   7.277  -0.014   9.996  0.1295  0.9480  0.1788
 4810TIP3    H238626   7.211  -0.029   9.860 -0.9329 -0.3588  0.8037
 4811TIP3   OH238627   1.236   5.121  10.511 -0.5011  0.1415  0.6859
 4811TIP3    H138628   1.165   5.163  10.560  0.3402 -0.9453  3.0006
 4811TIP3    H238629   1.313   5.174  10.531  0.0626 -0.9437  1.4574
 4812TIP3   OH238630   3.838   5.634  10.046  0.2220  0.0551 -0.0583
 4812TIP3    H138631   3.881   5.582  10.114 -0.1204 -0.4100 -0.1925
 4812TIP3    H238632   3.779   5.573  10.003  1.2608  0.0439 -1.5361
 4813TIP3   OH238633   5.495   1.975   9.732  0.1718  0.1186 -0.2564
 4813TIP3    H138634   5.551   2.001   9.658  0.7583  1.9314  0.7657
 4813TIP3    H238635   5.554   1.925   9.789  0.8430  2.1215  0.8732
 4814TIP3   OH238636   4.787   9.015  11.192  0.4909  0.6970 -0.2360
 4814TIP3    H138637   4.710   8.960  11.202  0.3023  1.2346  1.5542
 4814TIP3    H238638   4.753   9.099  11.162  0.6612  0.2332 -1.8168
 4815TIP3   OH238639   1.444   7.752   9.639 -0.4667 -0.5652 -0.1056
 4815TIP3    H138640   1.411   7.795   9.717 -0.9187 -0.5390 -0.3107
 4815TIP3    H238641   1.488   7.822   9.590  2.2645 -1.0641  1.3970
 4816TIP3   OH238642   0.023   1.568   9.192  0.1764 -0.5154  0.1820
 4816TIP3    H138643   0.044   1.658   9.217  1.0359 -0.4151 -0.8338
 4816TIP3    H238644  -0.053   1.575   9.135 -0.6886 -0.5910  1.2802
 4817TIP3   OH238645   0.867   0.487  10.133 -0.2132  0.4422  0.4637
 4817TIP3    H138646   0.865   0.512  10.225  1.0165  3.2694 -0.1800
 4817TIP3    H238647   0.777   0.498  10.103 -0.4106  0.4932  1.0686
 4818TIP3   OH238648   0.961   7.683   9.973 -0.2689 -0.2260  0.1691
 4818TIP3    H138649   1.019   7.759   9.986 -1.0525  0.1483  1.6864
 4818TIP3    H238650   0.886   7.719   9.925 -0.5005 -0.0976  0.6218
 4819TIP3   OH238651   2.925   0.323  10.679  0.6827  0.1842  0.1053
 4819TIP3    H138652   2.872   0.281  10.611 -0.9354  0.5365  1.0733
 4819TIP3    H238653   3.008   0.275  10.679  0.5233 -0.1394 -1.7440
 4820TIP3   OH238654   1.872   6.893  10.031 -0.2577 -0.1817 -0.2472
 4820TIP3    H138655   1.832   6.977  10.055  0.9638 -0.1191  1.8275
 4820TIP3    H238656   1.906   6.908   9.943  1.8476  2.3509  0.8240
 4821TIP3   OH238657   3.017   3.770   9.872 -0.1623 -0.0628  0.2584
 4821TIP3    H138658   3.104   3.798   9.844 -1.1825  1.9631 -1.1267
 4821TIP3    H238659   3.018   3.781   9.968  1.0019  0.2003  0.2324
 4822TIP3   OH238660   7.725   1.908  10.857 -0.1244 -0.6546  0.3114
 4822TIP3    H138661   7.647   1.872  10.900 -0.1238 -0.5068  0.4389
 4822TIP3    H238662   7.691   1.975  10.797  0.0204  1.0412  1.9904
 4823TIP3   OH238663   4.614   5.473   9.742  0.1333  0.1564 -0.0374
 4823TIP3    H138664   4.621   5.527   9.821 -0.4701 -0.0317  0.1473
 4823TIP3    H238665   4.530   5.429   9.750  0.0551  0.1508 -0.8024
 4824TIP3   OH238666   1.459   2.118   9.234  0.2442 -0.2228 -0.2726
 4824TIP3    H138667   1.393   2.051   9.251  0.3860 -0.5825 -1.0837
 4824TIP3    H238668   1.523   2.075   9.178  0.4481  0.5216 -0.6203
 4825TIP3   OH238669   0.824   1.299  10.642 -0.3732 -0.1635 -0.4578
 4825TIP3    H138670   0.781   1.306  10.557  0.3695  1.2452 -0.7463
 4825TIP3    H238671   0.916   1.319  10.624 -0.1282 -0.2799  0.6017
 4826TIP3   OH238672   8.388   2.751   9.333 -0.0967 -0.0107 -0.1958
 4826TIP3    H138673   8.364   2.676   9.387 -0.5068  0.5933  0.4924
 4826TIP3    H238674   8.319   2.755   9.266 -0.3432  0.0344  0.0574
 4827TIP3   OH238675   4.574   0.887  11.378 -0.6379 -0.5781  0.0662
 4827TIP3    H138676   4.549   0.855  11.291  2.2983  0.1313 -1.1773
 4827TIP3    H238677   4.658   0.845  11.395  0.0294  1.1905  1.4267
 4828TIP3   OH238678   0.795   1.069   9.885 -0.1604  0.4525  0.1309
 4828TIP3    H138679   0.744   1.102   9.959 -2.3251  1.2912 -1.6223
 4828TIP3    H238680   0.754   1.108   9.808  0.9471 -1.6982 -1.6680
 4829TIP3   OH238681   4.435   2.232  10.383  0.1421  0.4784  0.0652
 4829TIP3    H138682   4.485   2.202  10.307  1.1245  1.4164  0.3149
 4829TIP3    H238683   4.344   2.209  10.363  0.0542  2.5366 -2.3389
 4830TIP3   OH238684   5.240   6.477  10.084  0.1752 -0.0928 -0.1759
 4830TIP3    H138685   5.328   6.446  10.102  0.1272  0.1581  0.5097
 4830TIP3    H238686   5.190   6.399  10.061  0.9792 -0.0530 -2.3211
 4831TIP3   OH238687   0.611   2.215  11.698 -0.0779 -0.1259 -0.0990
 4831TIP3    H138688   0.522   2.249  11.694 -0.2970 -0.5489  0.8760
 4831TIP3    H238689   0.658   2.261  11.629 -1.3184 -0.7133 -1.3732
 4832TIP3   OH238690   7.419   7.214  10.832  0.7370 -0.0968  0.5024
 4832TIP3    H138691   7.501   7.231  10.877  1.0372 -1.0027  0.3113
 4832TIP3    H238692   7.408   7.119  10.837  0.4062 -0.1363 -0.6854
 4833TIP3   OH238693   2.403   6.022   9.794  0.0710 -0.2178 -0.2934
 4833TIP3    H138694   2.421   5.939   9.748 -0.5495  0.3780 -1.6912
 4833TIP3    H238695   2.486   6.069   9.792  0.5633 -0.9806  0.9509
 4834TIP3   OH238696   4.902   4.286  10.890  0.3461 -0.1802 -0.4503
 4834TIP3    H138697   4.934   4.221  10.827 -2.3330 -2.5427  0.4048
 4834TIP3    H238698   4.836   4.336  10.841 -0.3124 -0.7038 -0.1270
 4835TIP3   OH238699   0.748   1.795   9.533  0.1422 -0.2147  0.7471
 4835TIP3    H138700   0.664   1.761   9.564  0.0982 -0.1668  0.6810
 4835TIP3    H238701   0.727   1.880   9.494  0.2576 -0.0970  0.9386
 4836TIP3   OH238702   8.692   1.956  10.434  0.1611  0.0043  0.3347
 4836TIP3    H138703   8.731   1.868  10.428 -0.3616 -0.2256  0.2028
 4836TIP3    H238704   8.636   1.952  10.511 -2.4307 -0.8567 -1.4214
 4837TIP3   OH238705   5.540   8.568  10.194  0.6754  0.3754 -0.0813
 4837TIP3    H138706   5.633   8.543  10.189  1.3238  2.2314  1.6516
 4837TIP3    H238707   5.524   8.584  10.287 -1.9680 -1.7756 -0.0303
 4838TIP3   OH238708   4.745   1.226  10.077  0.0705  0.6588 -0.0782
 4838TIP3    H138709   4.714   1.276  10.002 -0.3106  0.5219 -0.0158
 4838TIP3    H238710   4.752   1.291  10.147 -0.8251  0.5679  0.1168
 4839TIP3   OH238711   7.641   1.297  10.668 -0.4785  0.4964 -0.2404
 4839TIP3    H138712   7.687   1.221  10.702 -1.1616  0.4162  0.5343
 4839TIP3    H238713   7.710   1.361  10.649 -0.0796  0.5936  1.4356
 4840TIP3   OH238714   6.573   8.077  11.303  0.0277 -0.3889  0.6156
 4840TIP3    H138715   6.616   7.995  11.326  1.0565 -0.3282 -0.9257
 4840TIP3    H238716   6.512   8.055  11.233  2.9089  0.5837 -2.4642
 4841TIP3   OH238717   5.845   8.887  10.931  0.5462 -0.5484 -0.2447
 4841TIP3    H138718   5.772   8.876  10.870  0.5304 -0.7831 -0.1856
 4841TIP3    H238719   5.891   8.803  10.928  0.5754 -0.5410  0.0270
 4842TIP3   OH238720   8.667   2.735   9.759  0.2149 -0.0549  0.2577
 4842TIP3    H138721   8.747   2.766   9.717  0.5823 -0.5247  0.6058
 4842TIP3    H238722   8.655   2.646   9.727 -1.0342  0.5110 -1.0128
 4843TIP3   OH238723   7.186   0.474  10.546 -0.4186  0.1095  0.5725
 4843TIP3    H138724   7.268   0.425  10.558 -0.3020  0.0980 -0.2503
 4843TIP3    H238725   7.207   0.539  10.479 -2.0064 -2.1366 -2.3247
 4844TIP3   OH238726   3.628   6.374  10.133  0.4435  0.0252 -0.3561
 4844TIP3    H138727   3.538   6.354  10.157  0.4011  1.0598  0.3779
 4844TIP3    H238728   3.623   6.405  10.042 -0.3185  2.4987  0.4551
 4845TIP3   OH238729   4.847   4.191  11.144  0.1134  0.3745  0.0416
 4845TIP3    H138730   4.861   4.208  11.051  1.9984 -0.3267  0.1461
 4845TIP3    H238731   4.848   4.277  11.185 -1.6527  0.7753 -0.6416
 4846TIP3   OH238732   8.610   6.436   9.874 -0.5329  0.1440 -0.0141
 4846TIP3    H138733   8.681   6.497   9.890  0.1361  0.0357 -2.2832
 4846TIP3    H238734   8.610   6.379   9.951 -0.6567  2.4221  1.7757
 4847TIP3   OH238735   4.508   9.047  10.024 -0.5827 -0.7366 -1.2509
 4847TIP3    H138736   4.570   9.007   9.964 -0.3826  2.0179 -3.0894
 4847TIP3    H238737   4.424   9.041   9.980 -0.9241 -0.9667 -0.5885
 4848TIP3   OH238738   8.828   2.317   9.356  0.1887  0.0794 -0.3154
 4848TIP3    H138739   8.767   2.385   9.325  0.4946 -0.3560 -1.9780
 4848TIP3    H238740   8.793   2.236   9.320  0.3602 -0.5387  0.8608
 4849TIP3   OH238741   4.101   5.940   9.148 -0.1590  0.0519  0.0268
 4849TIP3    H138742   4.022   5.958   9.200 -0.1835  0.5990 -0.1910
 4849TIP3    H238743   4.170   5.990   9.192 -0.3588  1.2493 -0.9710
 4850TIP3   OH238744   6.462   5.082   9.364  0.3871  0.2174 -0.6790
 4850TIP3    H138745   6.444   5.121   9.278 -0.5127 -1.5297 -1.3177
 4850TIP3    H238746   6.423   5.143   9.426  1.3379  1.6821 -1.4470
 4851TIP3   OH238747   1.696   5.176  10.163  0.5782 -0.1849 -0.2506
 4851TIP3    H138748   1.668   5.105  10.220 -0.4239 -0.2320 -0.7859
 4851TIP3    H238749   1.709   5.251  10.222 -1.3699  0.0322 -0.0438
 4852TIP3   OH238750   1.806   0.881  10.825 -0.0360  0.9085  0.2536
 4852TIP3    H138751   1.750   0.952  10.794  1.0616  1.8319  0.3411
 4852TIP3    H238752   1.847   0.847  10.745  0.3627  1.1808  0.3405
 4853TIP3   OH238753   2.740   1.404  10.641  0.6755  0.3903 -0.1164
 4853TIP3    H138754   2.645   1.396  10.648  0.8803 -0.4922  2.4659
 4853TIP3    H238755   2.775   1.343  10.706  2.9900  1.6621 -0.0534
 4854TIP3   OH238756   0.634   2.090  10.771 -0.0898 -0.2437  0.2702
 4854TIP3    H138757   0.682   2.124  10.846 -0.8930 -0.2033  0.7857
 4854TIP3    H238758   0.663   1.999  10.763  0.6336  0.0004  0.0911
 4855TIP3   OH238759   5.148   9.144  10.154 -0.4516  0.7159 -0.5518
 4855TIP3    H138760   5.163   9.236  10.136  1.5596  0.3397 -1.0346
 4855TIP3    H238761   5.175   9.132  10.246  0.2954  0.4244 -0.8015
 4856TIP3   OH238762   6.644   1.921   9.270 -0.4482 -0.5391 -0.0624
 4856TIP3    H138763   6.647   1.907   9.365 -1.0357  0.5220  0.1304
 4856TIP3    H238764   6.673   2.011   9.259 -0.6654 -0.5640 -0.8627
 4857TIP3   OH238765   1.009   1.661  11.082  0.2055 -0.1912 -0.2850
 4857TIP3    H138766   0.971   1.582  11.044  1.4404 -0.6299 -0.6623
 4857TIP3    H238767   1.063   1.629  11.154 -1.7537  0.5884  1.6425
 4858TIP3   OH238768   1.432   8.722  10.402  0.7471  1.0741 -0.4254
 4858TIP3    H138769   1.453   8.755  10.314  1.2376  0.4811 -0.5376
 4858TIP3    H238770   1.518   8.706  10.442  0.5186  0.2903 -0.2450
 4859TIP3   OH238771   1.689   0.058   9.690 -0.8915 -0.1022  0.3084
 4859TIP3    H138772   1.761   0.064   9.754  1.2533  0.7596 -2.0087
 4859TIP3    H238773   1.663   0.149   9.675 -0.5614 -0.1749 -0.8230
 4860TIP3   OH238774   6.996   7.588  10.428 -0.7434 -0.0724  0.3346
 4860TIP3    H138775   6.961   7.500  10.414 -1.4535  0.3405 -0.6170
 4860TIP3    H238776   7.061   7.599  10.359 -1.3729  0.5034 -0.1859
 4861TIP3   OH238777   2.992   4.132  10.074 -0.1592  0.2418 -0.3173
 4861TIP3    H138778   3.002   4.169   9.987 -0.2279  0.7216 -0.1241
 4861TIP3    H238779   3.071   4.079  10.087 -0.1260  0.2086 -0.6474
 4862TIP3   OH238780   3.213   0.982   9.832  0.1493 -0.1030  0.1150
 4862TIP3    H138781   3.147   1.014   9.894 -1.1754 -1.8568 -0.3227
 4862TIP3    H238782   3.296   0.991   9.880 -0.7611 -0.7999  1.9273
 4863TIP3   OH238783   8.147   3.230  10.978  0.0957  0.6159  0.4370
 4863TIP3    H138784   8.118   3.311  10.936  0.5786  0.3351 -0.4650
 4863TIP3    H238785   8.101   3.161  10.930  1.9378  0.1817 -0.7961
 4864TIP3   OH238786   1.035   4.970   9.631  0.2497  0.1481 -0.2333
 4864TIP3    H138787   1.091   4.897   9.604  0.2449  0.3315 -0.7507
 4864TIP3    H238788   1.050   4.978   9.725  1.6324  0.6358 -0.4699
 4865TIP3   OH238789   2.106   9.113  10.975 -0.2498  0.2667  0.0846
 4865TIP3    H138790   2.198   9.129  10.952 -0.1799 -0.1316  0.0720
 4865TIP3    H238791   2.088   9.026  10.939  0.2690 -1.0094  2.6670
 4866TIP3   OH238792   6.638   6.390  11.216  0.0739  0.0426 -0.1964
 4866TIP3    H138793   6.571   6.335  11.177  1.3195 -0.5700 -1.5534
 4866TIP3    H238794   6.699   6.328  11.257  0.2680  0.5446  0.2843
 4867TIP3   OH238795   8.184   3.429  10.497  0.2886 -0.0652  0.2748
 4867TIP3    H138796   8.270   3.464  10.516  0.6926 -1.1505  0.5149
 4867TIP3    H238797   8.198   3.335  10.488 -0.8771 -0.2609  0.3567
 4868TIP3   OH238798   0.910   4.322   9.142  0.4352  0.4037  0.3070
 4868TIP3    H138799   0.820   4.354   9.142  1.2584  3.2252  2.8597
 4868TIP3    H238800   0.957   4.383   9.086  0.6597 -1.9256 -2.2502
 4869TIP3   OH238801   3.682   7.947  10.398 -0.4808 -0.2440  0.5007
 4869TIP3    H138802   3.671   8.041  10.382 -0.5943 -0.3627 -0.1648
 4869TIP3    H238803   3.751   7.920  10.336 -0.7520 -0.6792  0.3802
 4870TIP3   OH238804   5.373   6.516  11.385  0.6969  0.6931  0.2848
 4870TIP3    H138805   5.385   6.611  11.386 -2.9264  1.2780  0.2982
 4870TIP3    H238806   5.356   6.494  11.294  0.2635  0.2621  0.4656
 4871TIP3   OH238807   4.123   1.092  10.226 -0.1169 -0.0458 -0.7386
 4871TIP3    H138808   4.092   1.112  10.314 -0.7145 -0.2282 -0.9028
 4871TIP3    H238809   4.056   1.033  10.190  0.6417 -0.8040 -0.9379
 4872TIP3   OH238810   2.219   4.262  11.111 -0.2503  0.4887 -0.1835
 4872TIP3    H138811   2.212   4.214  11.029 -2.6168  0.7640 -0.1962
 4872TIP3    H238812   2.188   4.201  11.178 -1.4708  1.3260  0.0493
 4873TIP3   OH238813   0.788   0.631   9.542 -0.2566  0.1585 -0.5331
 4873TIP3    H138814   0.870   0.647   9.495  0.0475  1.7914  0.4797
 4873TIP3    H238815   0.806   0.661   9.631 -0.9947 -2.2747  0.5228
 4874TIP3   OH238816   8.767   0.017   9.682  0.3532 -0.0506  0.5270
 4874TIP3    H138817   8.675   0.028   9.706  0.0510 -0.8165 -0.2160
 4874TIP3    H238818   8.805   0.104   9.693 -0.2610  0.0994  1.6200
 4875TIP3   OH238819   5.880   5.257  11.177 -0.2217  0.1363 -0.3878
 4875TIP3    H138820   5.807   5.295  11.129 -0.2866 -0.1349 -0.4992
 4875TIP3    H238821   5.904   5.179  11.128  0.0814  0.1702 -0.2983
 4876TIP3   OH238822   1.169   7.781   9.573  0.2684 -0.1880  0.5386
 4876TIP3    H138823   1.257   7.758   9.600  0.6273 -2.4393 -2.1337
 4876TIP3    H238824   1.129   7.698   9.547 -1.4147  1.1725 -1.5651
 4877TIP3   OH238825   1.648   7.945  10.599  0.1867 -1.1558  0.2355
 4877TIP3    H138826   1.596   7.904  10.531  0.0497 -1.2294  0.3834
 4877TIP3    H238827   1.705   7.875  10.631 -0.9036 -1.5820  1.3450
 4878TIP3   OH238828   2.826   2.742  10.366  0.1854  0.4607  0.5399
 4878TIP3    H138829   2.878   2.823  10.369  1.5968 -0.3863 -0.1427
 4878TIP3    H238830   2.736   2.773  10.368  0.6521  2.1786 -1.2994
 4879TIP3   OH238831   3.311   0.479  10.763  0.3353 -0.3261 -0.1868
 4879TIP3    H138832   3.229   0.527  10.776  0.9197  0.5392  0.5116
 4879TIP3    H238833   3.371   0.519  10.826  1.9701  0.7208 -2.2932
 4880TIP3   OH238834   4.201   6.085  10.480  0.0844 -0.1443 -0.2109
 4880TIP3    H138835   4.171   6.144  10.549  0.8787 -1.5159  1.3431
 4880TIP3    H238836   4.142   6.010  10.485  1.2676 -1.0601  0.1928
 4881TIP3   OH238837   1.965   9.099  10.617 -0.2099 -0.7989 -0.3672
 4881TIP3    H138838   1.884   9.104  10.668 -1.1732 -1.0323 -1.8466
 4881TIP3    H238839   1.937   9.079  10.528  1.6230 -3.4821 -0.4404
 4882TIP3   OH238840   0.808   7.536  10.706 -0.5674 -0.3781  0.3959
 4882TIP3    H138841   0.758   7.587  10.643 -1.0052 -1.9425 -0.5666
 4882TIP3    H238842   0.786   7.575  10.791  1.0118  2.5801 -0.4466
 4883TIP3   OH238843   0.202   7.631   9.775  0.0671  0.4765 -0.0831
 4883TIP3    H138844   0.150   7.599   9.702 -2.1448 -1.7474  2.2679
 4883TIP3    H238845   0.144   7.693   9.820  0.1628 -0.5044  1.4548
 4884TIP3   OH238846   6.796   5.213  11.246  0.0057  0.4168  0.0240
 4884TIP3    H138847   6.755   5.284  11.197 -0.4397  0.0891 -0.0894
 4884TIP3    H238848   6.807   5.143  11.181 -0.4627  0.0300  0.3594
 4885TIP3   OH238849   0.481   3.706   9.230 -0.2380 -0.0718 -0.7066
 4885TIP3    H138850   0.537   3.699   9.153  2.3130 -2.1077  1.1541
 4885TIP3    H238851   0.411   3.643   9.214  0.6637 -1.0117 -1.1048
 4886TIP3   OH238852   0.363   2.544  10.072 -0.4545 -0.4548 -0.9932
 4886TIP3    H138853   0.295   2.585  10.125  1.8345  0.9036  1.0779
 4886TIP3    H238854   0.416   2.616  10.039 -0.5049 -1.4178 -3.3996
 4887TIP3   OH238855   3.250   8.293   9.561  0.1455  0.9255 -0.3542
 4887TIP3    H138856   3.219   8.370   9.514 -0.0898  0.3466 -1.1796
 4887TIP3    H238857   3.340   8.281   9.532 -0.2456  0.1061 -1.3157
 4888TIP3   OH238858   1.614   6.347  10.117 -0.1497  0.2217 -0.0324
 4888TIP3    H138859   1.708   6.352  10.105 -0.1949 -0.5003 -0.8270
 4888TIP3    H238860   1.583   6.293  10.044 -1.2708  1.0755 -0.2267
 4889TIP3   OH238861   9.088   1.343  11.155 -0.6701 -0.1309 -0.4120
 4889TIP3    H138862   9.112   1.349  11.063 -0.1659 -2.8068 -0.5206
 4889TIP3    H238863   9.166   1.372  11.202  0.3839 -2.1127 -0.8430
 4890TIP3   OH238864   1.005   4.972  10.306 -0.8363  0.6752  0.0551
 4890TIP3    H138865   1.023   5.059  10.269  0.0426  1.2472  1.7206
 4890TIP3    H238866   1.061   4.913  10.256  0.2694  1.4216  0.3706
 4891TIP3   OH238867   3.558   3.709   9.205  0.0405 -0.3569  0.1120
 4891TIP3    H138868   3.645   3.669   9.205 -0.0522 -0.6149  1.8634
 4891TIP3    H238869   3.499   3.638   9.230 -0.6775 -0.1335 -0.8510
 4892TIP3   OH238870   3.838   1.102  11.090 -0.2993  0.2181 -0.2134
 4892TIP3    H138871   3.820   1.194  11.112  0.2769  0.4903 -0.8279
 4892TIP3    H238872   3.917   1.081  11.139 -0.5181 -0.0016  0.0463
 4893TIP3   OH238873   3.693   6.043   9.526  0.7967 -0.5012  0.1810
 4893TIP3    H138874   3.756   6.077   9.464  0.5541 -0.6409 -0.1452
 4893TIP3    H238875   3.673   5.955   9.494 -1.3114  0.3519 -1.0678
 4894TIP3   OH238876   5.783   1.357  10.034 -0.2009 -0.5588 -0.1888
 4894TIP3    H138877   5.788   1.407   9.952  0.9177 -0.5775 -0.1444
 4894TIP3    H238878   5.734   1.413  10.094  2.0940  1.0770  0.2654
 4895TIP3   OH238879   5.778   7.061   9.367 -0.7753  0.2400  0.1549
 4895TIP3    H138880   5.861   7.092   9.332  0.1388 -2.2220 -0.0282
 4895TIP3    H238881   5.771   7.102   9.453  1.7243 -1.0843  1.0965
 4896TIP3   OH238882   8.801   2.559  10.606  0.0376  0.4116  0.5613
 4896TIP3    H138883   8.888   2.555  10.644  0.0731 -1.3356  0.3548
 4896TIP3    H238884   8.742   2.559  10.682  0.1989  1.2073  0.6902
 4897TIP3   OH238885   1.680   3.989  10.767 -0.3131  0.2940 -0.7054
 4897TIP3    H138886   1.705   3.957  10.854  1.0933  1.2960 -0.6966
 4897TIP3    H238887   1.621   3.922  10.733 -0.1582 -0.5823  0.6475
 4898TIP3   OH238888   0.571   4.284   9.476  0.5458  0.2212  0.4559
 4898TIP3    H138889   0.553   4.364   9.525  2.5240  0.0037  1.6550
 4898TIP3    H238890   0.631   4.234   9.532 -1.0131 -2.3978  0.0097
 4899TIP3   OH238891   4.318   2.861  10.425  0.4311 -0.4383 -0.3715
 4899TIP3    H138892   4.331   2.899  10.339  0.5110  0.1895 -0.0891
 4899TIP3    H238893   4.365   2.920  10.485  0.1290 -0.6996  0.1322
 4900TIP3   OH238894   7.988   3.227  10.119  0.0157 -0.1569  0.6935
 4900TIP3    H138895   8.082   3.243  10.126  0.1979 -0.2683 -1.0047
 4900TIP3    H238896   7.957   3.295  10.059 -1.0862  0.1755  1.6055
 4901TIP3   OH238897   0.850   2.344  10.188 -0.3548  0.1367 -0.1131
 4901TIP3    H138898   0.934   2.302  10.202 -0.6277 -0.2683  0.3543
 4901TIP3    H238899   0.830   2.328  10.096 -1.0958 -2.0136  0.3555
 4902TIP3   OH238900   4.604   4.208   9.700  0.4632  0.0218  0.2602
 4902TIP3    H138901   4.610   4.255   9.616 -1.3594 -0.0875  0.0450
 4902TIP3    H238902   4.555   4.267   9.757 -1.9397 -1.5716 -0.0289
 4903TIP3   OH238903   8.303   1.041  10.545  0.6362  0.4539  0.6611
 4903TIP3    H138904   8.262   1.094  10.477  2.2295  0.8128 -0.0658
 4903TIP3    H238905   8.351   0.973  10.496  0.7403 -0.0713  1.4814
 4904TIP3   OH238906   3.563   1.890  11.073 -0.5066 -0.1358  0.4564
 4904TIP3    H138907   3.508   1.938  11.135  2.3227  2.1310  1.4391
 4904TIP3    H238908   3.631   1.850  11.127  1.0546  0.4501 -0.9814
 4905TIP3   OH238909   7.332   3.438  11.203  0.2842  0.2782  0.2812
 4905TIP3    H138910   7.360   3.353  11.168  1.0481  0.0036  1.4809
 4905TIP3    H238911   7.265   3.415  11.268 -1.0641  0.7699 -0.8923
 4906TIP3   OH238912   3.587   1.471   9.374 -0.3121  0.3405 -0.4915
 4906TIP3    H138913   3.638   1.482   9.294  0.2612 -3.2673 -0.7859
 4906TIP3    H238914   3.498   1.455   9.343  0.1298 -2.3363 -0.6354
 4907TIP3   OH238915   4.659   3.782  10.697 -0.4776  0.0104  0.4828
 4907TIP3    H138916   4.736   3.728  10.716 -0.3798 -0.1147 -0.2531
 4907TIP3    H238917   4.680   3.867  10.734  0.9569  0.6217 -1.5675
 4908TIP3   OH238918   8.694   1.995   9.960  0.7702  0.1207 -0.5262
 4908TIP3    H138919   8.696   1.917  10.016  2.0286 -0.9002 -1.8909
 4908TIP3    H238920   8.601   2.017   9.953  0.5623  0.3364  1.9359
 4909TIP3   OH238921   1.982   4.824  10.297 -0.0166 -0.3508  0.3072
 4909TIP3    H138922   1.952   4.744  10.254 -0.0405 -1.1222  1.6984
 4909TIP3    H238923   2.077   4.822  10.287 -0.1766  0.9770 -2.1905
 4910TIP3   OH238924   6.569   7.354  10.566  0.6951 -0.1422  0.5666
 4910TIP3    H138925   6.635   7.309  10.514  0.5389  1.2887 -0.9564
 4910TIP3    H238926   6.521   7.408  10.502 -0.8824  0.0979  1.8770
 4911TIP3   OH238927   4.896   9.069  10.116 -0.6652 -0.4174 -0.5122
 4911TIP3    H138928   4.981   9.087  10.156 -0.7926  0.5430 -0.6623
 4911TIP3    H238929   4.906   9.095  10.025 -0.5100 -2.1912 -1.0374
 4912TIP3   OH238930   2.874   1.159   9.427  0.9351 -0.2553 -0.4791
 4912TIP3    H138931   2.927   1.107   9.487 -0.6133 -0.5996  0.6603
 4912TIP3    H238932   2.811   1.096   9.391 -0.3700  0.6265  0.2014
 4913TIP3   OH238933   6.661   2.256   9.542 -0.3789  0.3737 -0.2340
 4913TIP3    H138934   6.620   2.342   9.529  0.8602  0.9477 -0.5380
 4913TIP3    H238935   6.745   2.263   9.497 -0.1477 -0.9188 -0.0297
 4914TIP3   OH238936   1.559   0.602   9.709  0.5335  0.1153 -0.3336
 4914TIP3    H138937   1.476   0.555   9.698  0.7920  0.0113 -2.1154
 4914TIP3    H238938   1.622   0.551   9.658  1.4241  0.8770 -0.0119
 4915TIP3   OH238939   1.886   2.073   9.785  0.2229  0.8136  0.0976
 4915TIP3    H138940   1.926   2.159   9.797  1.4014  0.2741  0.2557
 4915TIP3    H238941   1.944   2.013   9.833 -1.8084  0.1932  1.9933
 4916TIP3   OH238942   0.729   6.930  10.119 -0.0043  0.3813  0.0336
 4916TIP3    H138943   0.708   6.946  10.027 -1.5609  3.1643  0.7496
 4916TIP3    H238944   0.743   7.017  10.156 -0.9540 -0.5047  2.7442
 4917TIP3   OH238945   9.171   9.163  10.838  0.1427  0.0681 -0.1590
 4917TIP3    H138946   9.238   9.101  10.865  1.4777  2.1540  1.7440
 4917TIP3    H238947   9.209   9.208  10.762  0.3090  0.3067  0.0637
 4918TIP3   OH238948   2.049   2.643  10.242 -0.3867  0.2780  0.0265
 4918TIP3    H138949   1.967   2.596  10.256 -0.2290  0.6163  2.7588
 4918TIP3    H238950   2.077   2.667  10.330  3.2230 -0.7585 -0.6915
 4919TIP3   OH238951   5.985   4.645  11.473  0.0316 -0.1919 -0.5441
 4919TIP3    H138952   5.902   4.605  11.500  1.0644 -1.2762  1.2917
 4919TIP3    H238953   5.996   4.720  11.531  0.6133 -0.4276 -0.3340
 4920TIP3   OH238954   8.176   4.726   9.503 -0.0726  0.5332 -0.2735
 4920TIP3    H138955   8.168   4.632   9.519  1.1498  0.4201 -0.2512
 4920TIP3    H238956   8.258   4.752   9.545  0.9154  1.1117 -2.3676
 4921TIP3   OH238957   5.622   8.722  11.239 -0.2215  0.2258 -0.1192
 4921TIP3    H138958   5.632   8.634  11.202  2.6830 -0.1668  1.3330
 4921TIP3    H238959   5.553   8.712  11.305 -0.1519 -0.9035 -0.1939
 4922TIP3   OH238960   7.189   8.029  10.584  0.1176  0.2743  0.6809
 4922TIP3    H138961   7.160   7.980  10.507 -0.8894  1.2118  0.4237
 4922TIP3    H238962   7.253   8.092  10.549 -0.3816  0.7383  0.5751
 4923TIP3   OH238963   3.566   8.309   9.548  0.7811 -0.0249 -0.5754
 4923TIP3    H138964   3.604   8.324   9.462 -3.8976 -1.5497 -3.3185
 4923TIP3    H238965   3.531   8.395   9.574  2.4978  0.5131  0.0624
 4924TIP3   OH238966   6.716   2.587   9.653  0.4100 -0.0541 -0.2482
 4924TIP3    H138967   6.803   2.569   9.618 -0.2734 -1.3421 -1.3910
 4924TIP3    H238968   6.727   2.583   9.748  1.6527  0.1435 -0.3617
 4925TIP3   OH238969   8.736   5.573   9.856  0.0514  0.3163  0.2504
 4925TIP3    H138970   8.720   5.539   9.769 -1.7086  0.8843  0.3106
 4925TIP3    H238971   8.690   5.657   9.858 -0.4990  0.0210  1.9068
 4926TIP3   OH238972   5.707   6.981  10.971  0.4546  0.2975  0.3271
 4926TIP3    H138973   5.713   7.036  11.049 -2.7329  0.7013  0.4141
 4926TIP3    H238974   5.710   7.041  10.897  0.1704  0.2533  0.2789
 4927TIP3   OH238975   3.422   7.955  10.086 -0.2508 -0.6288  0.1485
 4927TIP3    H138976   3.497   8.001  10.048 -1.8952  1.5066 -0.7427
 4927TIP3    H238977   3.404   8.002  10.167 -1.3204 -0.3261 -0.2450
 4928TIP3   OH238978   4.422   6.233  10.441  0.1349  0.1811 -0.4580
 4928TIP3    H138979   4.378   6.312  10.410 -0.2548 -0.2758 -1.1076
 4928TIP3    H238980   4.352   6.168  10.449  0.6774 -0.5776 -1.5580
 4929TIP3   OH238981   0.934   5.642  10.581  0.3795  0.9338 -0.3384
 4929TIP3    H138982   0.950   5.713  10.519  2.0238 -0.7512 -1.9747
 4929TIP3    H238983   1.019   5.630  10.626 -0.1161  0.5594  0.5314
 4930TIP3   OH238984   0.295   8.887  10.200 -0.3605 -0.5752 -0.6894
 4930TIP3    H138985   0.260   8.803  10.229 -0.0030 -0.4926 -0.0053
 4930TIP3    H238986   0.351   8.865  10.124 -1.5552 -0.7469 -1.5439
 4931TIP3   OH238987   1.219   8.998  10.842  0.3098  0.3292  0.5807
 4931TIP3    H138988   1.286   8.937  10.874  0.5400  0.4005  0.2483
 4931TIP3    H238989   1.142   8.943  10.828  0.9407 -0.2078 -1.1315
 4932TIP3   OH238990   7.161   7.257   9.853 -0.0486  0.2520 -0.2182
 4932TIP3    H138991   7.068   7.271   9.834  0.3101  2.0930 -0.8595
 4932TIP3    H238992   7.200   7.230   9.770  0.3196  1.5474 -0.4965
 4933TIP3   OH238993   4.701   0.528  11.086  0.6835  0.1492  0.3018
 4933TIP3    H138994   4.772   0.560  11.030 -0.2197  1.3469 -0.1931
 4933TIP3    H238995   4.722   0.436  11.101  0.8421 -0.2892 -2.1980
 4934TIP3   OH238996   6.406   0.025  10.612 -0.2620 -0.2514  0.1594
 4934TIP3    H138997   6.385  -0.066  10.591 -0.6999 -0.6019  1.9240
 4934TIP3    H238998   6.500   0.026  10.627 -0.0538 -0.1296 -1.0318
 4935TIP3   OH238999   4.665   4.037  10.793 -0.1927  0.1191  0.3967
 4935TIP3    H139000   4.589   4.047  10.851 -0.2385  0.5394  0.2674
 4935TIP3    H239001   4.647   4.096  10.720 -0.2743 -0.6181 -0.1933
 4936TIP3   OH239002   5.071   1.639  10.883  0.1258  0.0916 -0.1109
 4936TIP3    H139003   5.156   1.664  10.846 -0.8289 -0.5740 -3.0550
 4936TIP3    H239004   5.079   1.546  10.903  0.1793  0.1032 -0.0786
 4937TIP3   OH239005   1.534   2.096  10.647  0.3093 -0.1077  0.4613
 4937TIP3    H139006   1.499   2.023  10.596  1.2959  0.4965 -1.1378
 4937TIP3    H239007   1.624   2.106  10.616  0.8022  0.5756  2.0285
 4938TIP3   OH239008   0.419   7.464   9.421 -0.1667  0.0479 -0.0313
 4938TIP3    H139009   0.445   7.403   9.490 -0.3081  1.5645  1.4088
 4938TIP3    H239010   0.463   7.432   9.343 -1.2930 -2.6925  0.3305
 4939TIP3   OH239011   7.849   2.258   9.761  0.3467 -0.9446 -0.4581
 4939TIP3    H139012   7.907   2.227   9.691  0.4630 -2.3916  0.2502
 4939TIP3    H239013   7.761   2.253   9.723  0.4437 -1.3492 -0.6365
 4940TIP3   OH239014   7.670   9.081  10.358 -0.2558 -0.1527  0.0196
 4940TIP3    H139015   7.648   9.080  10.265  0.9394  0.1230 -0.2796
 4940TIP3    H239016   7.762   9.109  10.361 -0.4562  0.4324  1.3176
 4941TIP3   OH239017   5.243   8.722  10.741 -1.0936 -0.3479 -0.3089
 4941TIP3    H139018   5.229   8.816  10.749 -2.0028 -0.4273 -0.7854
 4941TIP3    H239019   5.181   8.683  10.804  0.0255 -0.6034  0.6599
 4942TIP3   OH239020   3.452   1.764   9.926  0.2082  0.4577  0.0527
 4942TIP3    H139021   3.461   1.784   9.833 -1.0154 -0.2676 -0.2505
 4942TIP3    H239022   3.411   1.843   9.964 -2.3089 -0.3913 -0.6722
 4943TIP3   OH239023   3.611   7.473   9.682 -0.4456 -0.8719 -0.0293
 4943TIP3    H139024   3.674   7.513   9.622 -1.8430  1.4316 -0.0896
 4943TIP3    H239025   3.663   7.417   9.739  1.4905  0.1407 -0.7375
 4944TIP3   OH239026   0.620   7.323  10.691 -0.5311  0.4418 -0.0959
 4944TIP3    H139027   0.558   7.326  10.764 -0.5658  0.5506 -0.1287
 4944TIP3    H239028   0.671   7.404  10.701  0.0857  0.0001  0.3465
 4945TIP3   OH239029   4.297   1.747   9.609  0.3064 -0.4022 -0.2768
 4945TIP3    H139030   4.291   1.781   9.520 -0.4987 -0.5680 -0.2936
 4945TIP3    H239031   4.209   1.715   9.629 -0.0302  1.2954  1.2606
 4946TIP3   OH239032   1.889   0.557  10.832 -0.2750 -0.0797  0.5451
 4946TIP3    H139033   1.824   0.490  10.854 -0.6663 -0.1263 -0.7094
 4946TIP3    H239034   1.838   0.636  10.816  0.2309  0.7753  2.7574
 4947TIP3   OH239035   2.750   0.842   9.981  0.4310  0.3213 -0.8473
 4947TIP3    H139036   2.818   0.824  10.046 -1.0789 -0.3038  0.6258
 4947TIP3    H239037   2.771   0.784   9.908  1.3293 -0.0442 -0.3243
 4948TIP3   OH239038   3.060   0.986   9.615  0.4637 -0.4832 -0.7150
 4948TIP3    H139039   2.979   0.936   9.627  0.6814 -0.4811  1.0208
 4948TIP3    H239040   3.115   0.960   9.689  2.9253 -2.0488 -2.9484
 4949TIP3   OH239041   8.414   1.281  11.020 -0.0376  0.3688 -0.2899
 4949TIP3    H139042   8.502   1.244  11.032  0.4990  1.5191 -0.5246
 4949TIP3    H239043   8.420   1.329  10.937 -1.0070  0.1625 -0.4884
 4950TIP3   OH239044   7.863   3.449  10.340 -0.2787 -0.5461  0.2103
 4950TIP3    H139045   7.779   3.483  10.309  0.1575 -0.1729 -0.5744
 4950TIP3    H239046   7.853   3.353  10.336 -1.8205 -0.6309  3.2381
 4951TIP3   OH239047   8.778   1.943  11.038  0.5804  0.0592 -0.2532
 4951TIP3    H139048   8.830   1.965  11.116 -1.1404 -0.4473  1.0999
 4951TIP3    H239049   8.775   2.025  10.988  1.4449  0.4810  0.3521
 4952TIP3   OH239050   6.559   7.375   9.693  0.0831  0.3271 -0.3308
 4952TIP3    H139051   6.592   7.403   9.778  1.4929  0.7227 -0.9714
 4952TIP3    H239052   6.501   7.445   9.665  1.1542  1.1666 -0.5320
 4953TIP3   OH239053   4.324   5.616  10.605 -0.2163  0.2771 -0.1711
 4953TIP3    H139054   4.240   5.662  10.607 -1.5930 -2.0520 -0.1284
 4953TIP3    H239055   4.362   5.633  10.691 -0.8914  0.9309  0.0102
 4954TIP3   OH239056   1.196   3.024  10.503 -0.2646  0.0931  0.0773
 4954TIP3    H139057   1.110   2.982  10.501  0.5552 -1.7016  0.4321
 4954TIP3    H239058   1.245   2.980  10.433  1.3499 -1.2702  1.9806
 4955TIP3   OH239059   3.875   1.470  10.646  0.4072 -0.4343  0.2546
 4955TIP3    H139060   3.935   1.524  10.594 -0.8134 -0.4383 -1.2117
 4955TIP3    H239061   3.829   1.417  10.582 -0.8781 -0.7331  1.3912
 4956TIP3   OH239062   7.652   1.733   9.684 -0.1282 -0.0260  0.0478
 4956TIP3    H139063   7.667   1.683   9.603 -0.4269  0.1489 -0.1227
 4956TIP3    H239064   7.605   1.811   9.654  1.2915  0.9041  0.1669
 4957TIP3   OH239065   8.851   0.811   9.085 -0.1137  0.8295 -0.0532
 4957TIP3    H139066   8.780   0.807   9.021  1.0362 -0.6415 -1.3176
 4957TIP3    H239067   8.907   0.737   9.063  1.8060  1.9125  0.9098
 4958TIP3   OH239068   3.629   8.229  10.624  0.4340  0.4696  0.3144
 4958TIP3    H139069   3.660   8.318  10.641  1.2940  0.3577 -0.5626
 4958TIP3    H239070   3.599   8.231  10.533  1.4648 -0.3986 -0.0595
 4959TIP3   OH239071   1.934   8.875  10.151 -0.4963 -0.0885 -0.0757
 4959TIP3    H139072   1.889   8.864  10.067  0.7076 -1.2097 -0.6008
 4959TIP3    H239073   1.968   8.788  10.172 -0.2936  0.3005  1.3045
 4960TIP3   OH239074   7.897   2.774  10.567 -0.3742 -0.1545  0.3092
 4960TIP3    H139075   7.881   2.827  10.645  2.0219 -1.9826  2.1843
 4960TIP3    H239076   7.982   2.804  10.534  0.4121 -1.8590  0.6625
 4961TIP3   OH239077   7.446   2.519  11.022  0.1719 -0.2417 -0.3111
 4961TIP3    H139078   7.393   2.584  10.975  1.1717 -0.7990 -2.3482
 4961TIP3    H239079   7.390   2.491  11.094 -1.3556  0.9045 -0.9741
 4962TIP3   OH239080   6.882   4.128  10.164 -0.2031 -0.6455  0.4945
 4962TIP3    H139081   6.842   4.080  10.237  0.4230 -1.7064  0.1611
 4962TIP3    H239082   6.897   4.216  10.199 -1.1002 -0.7641  1.2226
 4963TIP3   OH239083   5.695   3.738   9.842 -0.2182 -0.2402  0.5574
 4963TIP3    H139084   5.738   3.805   9.896 -0.5050 -0.2726  0.8253
 4963TIP3    H239085   5.626   3.703   9.898 -1.5706  0.8266 -0.3749
 4964TIP3   OH239086   5.955   5.052  11.028  0.0552  0.0486 -0.3575
 4964TIP3    H139087   5.971   4.981  11.091 -0.5782  2.2926  2.5561
 4964TIP3    H239088   5.886   5.018  10.971  0.2707 -1.9289  0.4614
 4965TIP3   OH239089   5.083   0.836  11.171 -0.5307  0.0304  0.6074
 4965TIP3    H139090   5.042   0.866  11.089 -0.6338  2.5064  1.4758
 4965TIP3    H239091   5.009   0.810  11.226 -0.5279 -0.7155  0.2677
 4966TIP3   OH239092   5.426   3.023  10.061  0.0710 -0.2790  0.5247
 4966TIP3    H139093   5.485   3.059   9.995  0.2740 -0.4519  0.6141
 4966TIP3    H239094   5.483   2.986  10.128 -0.1226 -1.8099 -0.1201
 4967TIP3   OH239095   4.012   5.656  11.023 -0.0411  0.9409 -0.4194
 4967TIP3    H139096   4.017   5.728  10.961  0.2256  0.9551 -0.3811
 4967TIP3    H239097   3.929   5.670  11.070  0.1265  1.3541 -0.2451
 4968TIP3   OH239098   6.361   3.251   9.768 -0.2001  0.6438  0.1647
 4968TIP3    H139099   6.367   3.297   9.684 -0.5497  0.1968 -0.1120
 4968TIP3    H239100   6.452   3.236   9.793 -0.0812 -0.2704 -0.7327
 4969TIP3   OH239101   6.323   8.391  10.502  0.5066 -0.7116  0.3879
 4969TIP3    H139102   6.331   8.362  10.593  1.2368  2.0142  1.2796
 4969TIP3    H239103   6.393   8.346  10.455  0.9584 -1.1379  1.4645
 4970TIP3   OH239104   9.157   1.824   9.524  0.4120 -0.2695 -0.2754
 4970TIP3    H139105   9.082   1.812   9.464  1.5621 -1.0618 -1.6132
 4970TIP3    H239106   9.215   1.884   9.477  1.4841 -1.1611 -0.1218
 4971TIP3   OH239107   4.154   1.403  11.083  0.0185 -0.3220  0.5765
 4971TIP3    H139108   4.186   1.490  11.057  0.4348 -0.5620  0.2703
 4971TIP3    H239109   4.217   1.342  11.044 -0.3864 -0.7698  0.6181
 4972TIP3   OH239110   6.748   2.892  11.136 -0.0671 -0.4678  0.3208
 4972TIP3    H139111   6.776   2.981  11.117 -0.5732 -0.4845 -0.5576
 4972TIP3    H239112   6.704   2.863  11.056  0.7444 -1.7652  0.3032
 4973TIP3   OH239113   2.071   1.812   9.800  0.0998  0.2044  0.1302
 4973TIP3    H139114   2.112   1.731   9.830 -2.9985 -1.6225 -0.2384
 4973TIP3    H239115   2.087   1.813   9.706  0.0884 -0.0132  0.1253
 4974TIP3   OH239116   3.577   4.238   9.178 -0.2529 -0.4187  0.0953
 4974TIP3    H139117   3.634   4.164   9.157 -1.6720 -1.5812  0.2438
 4974TIP3    H239118   3.621   4.313   9.139  1.2552 -1.3125 -0.0100
 4975TIP3   OH239119   4.381   8.509  10.591  0.1623  0.2668 -0.5512
 4975TIP3    H139120   4.472   8.522  10.563  0.5765 -2.5199 -0.7436
 4975TIP3    H239121   4.329   8.541  10.517  1.0479  0.0953 -1.2730
 4976TIP3   OH239122   0.151   3.553  10.919  0.0807 -0.0858  0.2181
 4976TIP3    H139123   0.132   3.642  10.949 -2.6584 -0.5830  0.2453
 4976TIP3    H239124   0.145   3.558  10.823 -1.1212 -0.3882  0.2570
 4977TIP3   OH239125   3.048   0.835  10.951  0.5559  0.1662 -0.1117
 4977TIP3    H139126   2.961   0.805  10.977  1.1921 -1.4206  0.2522
 4977TIP3    H239127   3.106   0.761  10.967  2.1620  1.4898  0.5452
 4978TIP3   OH239128   2.960   6.937  10.805 -0.2858 -0.1441 -0.0701
 4978TIP3    H139129   2.924   6.882  10.875  1.6512  0.4354  1.4777
 4978TIP3    H239130   3.010   6.876  10.751 -1.6538 -0.5670 -0.9184
 4979TIP3   OH239131   2.692   3.770  11.078  0.4769 -0.1863  0.1928
 4979TIP3    H139132   2.639   3.849  11.075  1.3201  0.3715 -0.3140
 4979TIP3    H239133   2.673   3.726  10.995 -0.5090 -0.8726  0.7655
 4980TIP3   OH239134   0.518   3.132  10.172 -0.6100  0.4144 -0.3212
 4980TIP3    H139135   0.554   3.215  10.139 -0.0906  0.0565 -0.6594
 4980TIP3    H239136   0.428   3.132  10.140 -0.5645  0.7750 -0.4624
 4981TIP3   OH239137   4.420   0.939  10.152  0.4269  0.1333 -0.4348
 4981TIP3    H139138   4.514   0.959  10.151  0.2951  0.8179  0.0352
 4981TIP3    H239139   4.385   0.983  10.075  0.5200 -0.2666 -0.7050
 4982TIP3   OH239140   2.879   0.320   9.471  0.0446  0.1142  0.7666
 4982TIP3    H139141   2.932   0.278   9.404 -0.3042  0.3068  0.3671
 4982TIP3    H239142   2.908   0.280   9.553  0.8652  0.2675  0.5701
 4983TIP3   OH239143   4.892   3.627  10.158 -0.0332 -0.3382 -0.1941
 4983TIP3    H139144   4.939   3.692  10.106 -0.9332  0.2085 -0.3335
 4983TIP3    H239145   4.961   3.580  10.206  0.6610  0.3424 -0.5156
 4984TIP3   OH239146   2.456   2.316  10.591  0.0066 -0.2408  0.7350
 4984TIP3    H139147   2.502   2.251  10.538 -3.3906 -1.1849 -1.4382
 4984TIP3    H239148   2.378   2.270  10.623  0.0684  1.3855  3.5771
 4985TIP3   OH239149   1.327   8.693   9.755  0.4190  0.6574 -0.5412
 4985TIP3    H139150   1.357   8.683   9.845 -0.2489 -1.2982 -0.4949
 4985TIP3    H239151   1.232   8.677   9.759  0.4876 -0.1379 -1.6756
 4986TIP3   OH239152   5.640   7.277  11.215 -0.2751 -0.0214 -0.2959
 4986TIP3    H139153   5.637   7.342  11.285 -0.4175 -0.0315 -0.2933
 4986TIP3    H239154   5.731   7.280  11.185  0.6634 -2.2631  2.0026
 4987TIP3   OH239155   6.613   6.096  10.727  0.3195 -0.4417  0.0323
 4987TIP3    H139156   6.664   6.037  10.672  2.6313  2.7946 -1.5742
 4987TIP3    H239157   6.658   6.095  10.812  1.8510  0.7394 -0.7206
 4988TIP3   OH239158   3.459   5.263   9.415  0.5884 -0.3691  0.1179
 4988TIP3    H139159   3.431   5.171   9.418  1.8122 -0.7578  0.3212
 4988TIP3    H239160   3.403   5.303   9.349 -2.7327 -0.2423  2.7701
 4989TIP3   OH239161   0.678   6.953   9.828  0.4982  0.2229  0.2744
 4989TIP3    H139162   0.757   7.003   9.809  1.4968 -1.7234 -1.0705
 4989TIP3    H239163   0.618   6.975   9.756  0.9979 -0.5791 -0.4081
 4990TIP3   OH239164   5.045   0.625   9.182  0.0388  0.1131  0.0310
 4990TIP3    H139165   4.996   0.545   9.198 -1.7021  1.5378  2.5898
 4990TIP3    H239166   4.983   0.695   9.203  1.9564  2.1109 -0.6185
 4991TIP3   OH239167   5.171   4.536   9.638 -0.2203 -0.1353 -0.0745
 4991TIP3    H139168   5.149   4.553   9.730 -0.1818  1.2198 -0.2981
 4991TIP3    H239169   5.232   4.606   9.615  1.0465 -1.3841 -0.6878
 4992TIP3   OH239170   4.162   7.317  10.362  0.3008 -0.1647 -0.7107
 4992TIP3    H139171   4.110   7.315  10.442 -0.1651  0.8489 -0.9708
 4992TIP3    H239172   4.103   7.353  10.296  1.1703  0.5346 -1.1315
 4993TIP3   OH239173   3.968   7.556  10.463  0.1191  0.5240 -0.2948
 4993TIP3    H139174   3.879   7.583  10.486 -0.6949 -2.2368  0.2099
 4993TIP3    H239175   4.004   7.522  10.544  1.0694  0.1832 -0.8503
 4994TIP3   OH239176   6.569   2.890  10.901  0.4442  0.2400  0.0854
 4994TIP3    H139177   6.548   2.798  10.887  2.6460 -0.1150 -1.2287
 4994TIP3    H239178   6.489   2.927  10.939 -0.2032 -2.3739  1.5101
 4995TIP3   OH239179   4.669   0.994  10.950 -0.3401  0.4356 -0.2723
 4995TIP3    H139180   4.655   0.963  11.039 -0.5573 -0.3312 -0.5666
 4995TIP3    H239181   4.638   0.923  10.894 -0.2188  0.9102 -0.9629
 4996TIP3   OH239182   7.389   4.341  10.447  0.3263 -0.4103 -0.4510
 4996TIP3    H139183   7.413   4.433  10.460  0.8691 -0.5055 -0.7579
 4996TIP3    H239184   7.298   4.336  10.476  1.1801 -0.4476  2.5106
 4997TIP3   OH239185   8.610   3.583  11.127  0.3910  0.1450  0.3399
 4997TIP3    H139186   8.684   3.536  11.088 -0.3248 -0.6610 -0.0888
 4997TIP3    H239187   8.593   3.536  11.209 -1.4756 -1.5849 -0.9301
 4998TIP3   OH239188   9.169   6.853   9.600  0.3486  0.6999  0.0313
 4998TIP3    H139189   9.249   6.886   9.558 -0.1437  0.9783 -0.6960
 4998TIP3    H239190   9.201   6.789   9.663  1.1822  1.1521  0.0801
 4999TIP3   OH239191   2.717   7.908  10.077  0.0490 -0.0922  0.0726
 4999TIP3    H139192   2.752   7.944  10.158  1.8623  0.3938 -0.8721
 4999TIP3    H239193   2.784   7.927  10.011 -0.6007 -1.9237 -1.2204
 5000TIP3   OH239194   7.543   2.816  10.028 -0.0339  0.1136  0.2628
 5000TIP3    H139195   7.609   2.844  10.092 -1.6663  1.1183  1.5811
 5000TIP3    H239196   7.548   2.721  10.029 -0.8694  0.0118  2.9187
 5001TIP3   OH239197   2.772   6.999   9.805  0.0563 -0.0550  0.0739
 5001TIP3    H139198   2.753   7.087   9.838 -0.5447 -0.4656  0.8390
 5001TIP3    H239199   2.735   6.999   9.717 -0.2270  0.3498  0.1870
 5002TIP3   OH239200   3.857   4.133   9.397 -0.6175 -0.7587  0.1770
 5002TIP3    H139201   3.851   4.105   9.305 -0.0306 -0.9423  0.1915
 5002TIP3    H239202   3.893   4.222   9.392  0.4884 -1.1838  0.2711
 5003TIP3   OH239203   3.351   8.765   9.827 -0.1111  0.0730 -0.6837
 5003TIP3    H139204   3.428   8.821   9.835 -0.4663  0.5386 -0.3940
 5003TIP3    H239205   3.339   8.754   9.733  0.9623 -0.9519 -0.7219
 5004TIP3   OH239206   4.336   4.206  10.547  0.5671 -0.1181 -0.3673
 5004TIP3    H139207   4.290   4.204  10.463  1.0638 -0.1761 -0.6470
 5004TIP3    H239208   4.334   4.115  10.577  1.9630 -0.4599 -1.2119
 5005TIP3   OH239209   0.218   0.325  10.331  0.9392 -0.7358  0.2046
 5005TIP3    H139210   0.130   0.322  10.293  1.5707  0.4510 -1.4963
 5005TIP3    H239211   0.234   0.418  10.347  1.2788 -1.0697  2.1337
 5006TIP3   OH239212   4.734   3.859  11.345 -0.2410  0.2984  0.1295
 5006TIP3    H139213   4.691   3.938  11.378 -0.0333 -0.4145  2.2500
 5006TIP3    H239214   4.826   3.868  11.370 -0.2992 -0.7853  0.8431
 5007TIP3   OH239215   9.004   3.777  10.924 -0.4290  0.1378  0.0631
 5007TIP3    H139216   8.944   3.851  10.937 -1.7223 -0.7573 -0.6304
 5007TIP3    H239217   9.082   3.801  10.974 -1.6031  1.0432  1.5483
 5008TIP3   OH239218   2.031   4.987  10.792  0.4592  0.1946 -0.2834
 5008TIP3    H139219   2.055   4.957  10.704 -1.4407 -0.7508 -0.5363
 5008TIP3    H239220   2.008   4.907  10.839 -0.3901  0.8495  0.4546
 5009TIP3   OH239221   1.399   2.776   9.949 -0.1428 -0.3311  0.1538
 5009TIP3    H139222   1.407   2.761  10.043 -0.9587  2.1046  0.6939
 5009TIP3    H239223   1.476   2.734   9.911  1.2251  0.2449  2.1451
 5010TIP3   OH239224   7.182   7.324  10.820  0.5525  0.3043  0.2576
 5010TIP3    H139225   7.190   7.367  10.735 -0.5088 -0.5181 -0.2772
 5010TIP3    H239226   7.265   7.278  10.832  0.1800 -0.7371 -0.9961
 5011TIP3   OH239227   5.960   4.801  10.206  0.0824 -0.6110  0.8772
 5011TIP3    H139228   6.031   4.864  10.190 -0.3380  0.0460  1.5373
 5011TIP3    H239229   5.907   4.804  10.126  1.0190 -1.4457  0.1824
 5012TIP3   OH239230   7.164   1.308   9.593  0.3993  0.3370 -0.7800
 5012TIP3    H139231   7.232   1.282   9.531  1.5796 -0.3655  0.7311
 5012TIP3    H239232   7.166   1.241   9.661 -0.2235  1.5303  0.4824
 5013TIP3   OH239233   1.682   3.115  10.376 -0.4954 -0.1039  0.5269
 5013TIP3    H139234   1.598   3.070  10.387  0.3446 -1.5743  1.3231
 5013TIP3    H239235   1.664   3.187  10.317 -2.2035 -0.7382  0.2344
 5014TIP3   OH239236   6.978   3.834  10.349 -0.1846  0.1454  0.3388
 5014TIP3    H139237   6.989   3.755  10.400 -1.1894  1.2978  2.4491
 5014TIP3    H239238   6.888   3.831  10.317  0.2034 -0.1994 -0.7889
 5015TIP3   OH239239   9.006   9.017  10.070  0.1681 -0.2583 -0.1953
 5015TIP3    H139240   9.039   9.012   9.980  0.1392 -0.0330 -0.2198
 5015TIP3    H239241   9.082   9.042  10.122  0.3112 -0.9178 -0.0743
 5016TIP3   OH239242   5.398   8.441   9.719  0.0844 -0.2346 -0.4459
 5016TIP3    H139243   5.390   8.536   9.714  0.8102 -0.1482 -0.1200
 5016TIP3    H239244   5.355   8.409   9.640  1.6024  0.4897 -1.6332
 5017TIP3   OH239245   6.863   7.740  11.132 -0.0008  0.2303 -0.6526
 5017TIP3    H139246   6.912   7.662  11.155 -0.5905 -0.5975 -2.0437
 5017TIP3    H239247   6.790   7.743  11.194 -0.4105 -0.7857 -1.0644
 5018TIP3   OH239248   1.406   7.885  10.160  0.7921 -0.8458 -0.1543
 5018TIP3    H139249   1.447   7.964  10.127 -0.6516 -0.2262 -0.5690
 5018TIP3    H239250   1.437   7.877  10.250  1.5054 -0.2119 -0.3400
 5019TIP3   OH239251   3.784   2.118  11.408 -0.1181  0.0309  0.0755
 5019TIP3    H139252   3.695   2.141  11.382 -0.7591 -0.4278  1.7359
 5019TIP3    H239253   3.794   2.154  11.496  1.8170  1.2076 -0.5629
 5020TIP3   OH239254   3.826   7.672   9.529  0.1845  0.3317 -0.2343
 5020TIP3    H139255   3.801   7.702   9.441 -1.6913 -1.7135 -0.4936
 5020TIP3    H239256   3.831   7.752   9.581 -3.6723  1.3190 -1.0496
 5021TIP3   OH239257   0.573   2.943  10.527 -0.2001  0.5328 -0.6185
 5021TIP3    H139258   0.636   3.009  10.496  0.6859  0.3997  0.7951
 5021TIP3    H239259   0.543   2.899  10.447  0.8470  1.1983 -1.4105
 5022TIP3   OH239260   6.997   3.189  10.919  0.5665 -0.1361 -0.6592
 5022TIP3    H139261   7.056   3.114  10.912  0.8004  0.1223 -1.5275
 5022TIP3    H239262   7.049   3.264  10.889  0.2440  0.3276 -0.0747
 5023TIP3   OH239263   6.129   2.548  11.072 -0.1359 -0.1618 -0.0144
 5023TIP3    H139264   6.187   2.591  11.009  0.9213  0.8520  1.5685
 5023TIP3    H239265   6.051   2.602  11.072 -0.5433 -0.7106 -1.1084
 5024TIP3   OH239266   1.723   8.860  10.821 -0.4535 -0.0411 -0.1922
 5024TIP3    H139267   1.672   8.880  10.900 -1.5048 -1.4327 -0.4767
 5024TIP3    H239268   1.695   8.927  10.758 -1.0622 -0.0765  0.0283
 5025TIP3   OH239269   2.140   9.169   9.563  0.5047 -0.5068 -0.6800
 5025TIP3    H139270   2.047   9.165   9.540  0.4888  1.8894 -1.1926
 5025TIP3    H239271   2.186   9.176   9.479  1.0278 -0.0746 -0.3640
 5026TIP3   OH239272   8.933   1.922  10.578 -0.2923  0.9795  0.0672
 5026TIP3    H139273   8.932   1.829  10.557  0.2937  0.8363  0.6345
 5026TIP3    H239274   8.856   1.958  10.534 -0.7733  0.1469  0.2079
 5027TIP3   OH239275   1.042   8.723  11.091 -0.2823  0.1064  0.5560
 5027TIP3    H139276   0.966   8.758  11.045 -0.1074  0.0486  0.2182
 5027TIP3    H239277   1.020   8.631  11.108  0.2190 -0.2540 -0.6638
 5028TIP3   OH239278   8.242   2.530   9.914 -0.5029  0.2975  0.2148
 5028TIP3    H139279   8.304   2.479   9.862 -0.0645  0.8315  0.2082
 5028TIP3    H239280   8.160   2.524   9.865 -0.1940  0.4573 -0.3314
 5029TIP3   OH239281   4.651   8.096  10.750 -0.4192  0.1314  0.0081
 5029TIP3    H139282   4.568   8.049  10.760 -0.6223  0.2078 -1.1452
 5029TIP3    H239283   4.657   8.151  10.828 -1.2227 -0.2290  0.3376
 5030TIP3   OH239284   9.133   0.328   9.969 -0.5289 -0.2845  0.1302
 5030TIP3    H139285   9.184   0.406   9.948  0.1535 -0.2846  1.5894
 5030TIP3    H239286   9.145   0.270   9.894  0.6292  0.2168 -0.0903
 5031TIP3   OH239287   5.167   8.982  10.697  0.0326  0.2158 -0.6558
 5031TIP3    H139288   5.077   8.984  10.666 -0.1584 -1.1059 -0.2422
 5031TIP3    H239289   5.174   9.059  10.754 -1.3700 -0.5672  0.6749
 5032TIP3   OH239290   7.996   5.106  11.242 -0.0118 -0.2757 -0.1246
 5032TIP3    H139291   7.943   5.034  11.277 -0.5347 -0.4520 -1.2284
 5032TIP3    H239292   8.080   5.065  11.220  1.4951  0.4092  3.6073
 5033TIP3   OH239293   5.366   0.630  10.597 -0.6824 -0.3140  0.2551
 5033TIP3    H139294   5.378   0.586  10.681  3.1163 -2.2380 -1.1002
 5033TIP3    H239295   5.348   0.559  10.535  0.2867  0.6295 -1.1447
 5034TIP3   OH239296   4.343   4.538  10.498 -0.3507 -0.1310 -0.2461
 5034TIP3    H139297   4.312   4.583  10.576  1.5634 -1.6104  1.4682
 5034TIP3    H239298   4.425   4.583  10.476  0.1027 -0.9377 -0.2372
 5035TIP3   OH239299   6.271   2.086  10.451 -0.2814 -0.1746 -0.5367
 5035TIP3    H139300   6.224   2.166  10.426  0.7171  0.2956 -0.9959
 5035TIP3    H239301   6.269   2.085  10.546 -0.6469  0.1866 -0.5400
 5036TIP3   OH239302   4.538   4.820  11.178  0.3859 -0.8378  0.6677
 5036TIP3    H139303   4.500   4.904  11.153  1.3315 -1.0715 -1.7981
 5036TIP3    H239304   4.614   4.843  11.231  0.4665 -0.1664  0.2635
 5037TIP3   OH239305   5.516   5.794  10.245 -0.0808 -0.6393 -0.1591
 5037TIP3    H139306   5.462   5.722  10.279 -0.2999 -0.5073 -0.2296
 5037TIP3    H239307   5.605   5.757  10.243  0.1322 -0.3213  1.5681
 5038TIP3   OH239308   6.472   6.348  10.751 -0.1464  0.2233  0.2487
 5038TIP3    H139309   6.533   6.280  10.721 -1.4188 -0.7112 -0.3519
 5038TIP3    H239310   6.527   6.414  10.793  1.5286  0.5348 -2.2354
 5039TIP3   OH239311   8.146   7.013  10.248  0.4466  0.1154 -0.1362
 5039TIP3    H139312   8.192   6.939  10.287  2.0471  0.5278 -1.1893
 5039TIP3    H239313   8.086   7.042  10.317  1.8755 -0.3338  1.3435
 5040TIP3   OH239314   3.437   4.648   9.466 -0.1907 -0.1685  0.1226
 5040TIP3    H139315   3.404   4.657   9.556  1.1112  0.6083  0.5459
 5040TIP3    H239316   3.482   4.564   9.465 -1.5686 -0.9341 -0.2803
 5041TIP3   OH239317   5.256   2.989  10.546  0.5256 -0.7806  0.0049
 5041TIP3    H139318   5.273   3.054  10.478  2.0903  0.1533  1.2004
 5041TIP3    H239319   5.331   2.928  10.541  0.2838 -1.1179  0.4077
 5042TIP3   OH239320   0.440   7.279  11.034  0.2607 -0.2274  0.5253
 5042TIP3    H139321   0.417   7.192  11.002  0.5850 -0.7140  1.5568
 5042TIP3    H239322   0.358   7.328  11.034 -0.0375 -0.7202  0.4945
 5043TIP3   OH239323   8.653   8.624  11.027 -0.8888 -0.3072  0.1317
 5043TIP3    H139324   8.747   8.608  11.017 -0.6204  1.4156 -0.4127
 5043TIP3    H239325   8.643   8.652  11.118 -1.0742 -1.5675  0.5219
 5044TIP3   OH239326   8.881   4.822  10.126 -0.5065  0.0153  0.5702
 5044TIP3    H139327   8.819   4.889  10.096 -0.6564  0.3601  1.6070
 5044TIP3    H239328   8.861   4.746  10.071 -0.9266  0.5395 -0.0330
 5045TIP3   OH239329   5.951   7.685  10.364 -0.0366  0.3300 -0.4307
 5045TIP3    H139330   6.004   7.764  10.356  0.6487 -0.0058  0.5108
 5045TIP3    H239331   5.924   7.664  10.275 -0.7020  1.9343 -0.6363
 5046TIP3   OH239332   4.553   4.187  11.162 -0.0536 -0.6419  0.9482
 5046TIP3    H139333   4.540   4.280  11.180  0.4894  0.2025 -2.2807
 5046TIP3    H239334   4.648   4.175  11.166 -0.1142 -1.0297  1.2580
 5047TIP3   OH239335   5.616   1.410   9.640  0.3055 -0.1721  0.4517
 5047TIP3    H139336   5.523   1.415   9.620  0.2893 -1.6750 -0.0295
 5047TIP3    H239337   5.635   1.316   9.640  2.1831  0.1202 -1.2344
 5048TIP3   OH239338   6.355   2.127   9.985  0.5881 -0.5362 -0.3060
 5048TIP3    H139339   6.355   2.152   9.892  0.4457  1.3931  0.1850
 5048TIP3    H239340   6.268   2.152  10.017  0.7762 -0.8148  0.4423
 5049TIP3   OH239341   1.483   4.870  10.728  0.1426  0.1102 -0.4646
 5049TIP3    H139342   1.555   4.807  10.720 -0.4666 -0.7290  0.2960
 5049TIP3    H239343   1.408   4.825  10.689  0.0123  0.9461 -1.1859
 5050TIP3   OH239344   1.684   5.112  10.688  0.2898  0.1109 -0.0396
 5050TIP3    H139345   1.606   5.066  10.720 -0.3657  0.0651 -1.6199
 5050TIP3    H239346   1.744   5.111  10.763 -0.8396 -0.7046  0.9080
 5051TIP3   OH239347   4.785   1.282   9.798 -0.0719  0.3008  0.5080
 5051TIP3    H139348   4.707   1.274   9.743 -0.0026  1.6521  0.1820
 5051TIP3    H239349   4.817   1.192   9.807 -0.8027 -0.0919 -0.6019
 5052TIP3   OH239350   1.602   2.000   9.850 -0.4839  0.4534  0.3769
 5052TIP3    H139351   1.633   1.919   9.889  2.0537  2.0086  1.8896
 5052TIP3    H239352   1.680   2.041   9.813 -1.2100  3.1405  1.5223
 5053TIP3   OH239353   4.266   4.222  10.286 -0.0375  0.1337 -0.2022
 5053TIP3    H139354   4.254   4.274  10.207 -1.0251  1.5486  0.8211
 5053TIP3    H239355   4.357   4.192  10.283  0.5839  1.9833 -0.8165
 5054TIP3   OH239356   6.915   1.343   9.494  0.2199 -0.1751  0.0235
 5054TIP3    H139357   7.001   1.332   9.535 -0.0556 -0.5643  0.5037
 5054TIP3    H239358   6.857   1.285   9.544  0.4219 -2.9978 -2.6815
 5055TIP3   OH239359   7.550   8.412  10.521  0.0510 -0.2648  0.3451
 5055TIP3    H139360   7.489   8.403  10.595 -0.6034  0.1873 -0.1280
 5055TIP3    H239361   7.534   8.501  10.488 -1.1688 -1.1746 -1.6404
 5056TIP3   OH239362   2.484   8.750  10.434 -0.3551  0.1400 -0.5457
 5056TIP3    H139363   2.522   8.837  10.440 -1.5241  0.6028  0.8789
 5056TIP3    H239364   2.559   8.691  10.431  0.4523  1.1642 -1.2897
 5057TIP3   OH239365   7.095   5.388  10.715 -0.0408  0.3362 -0.6130
 5057TIP3    H139366   7.178   5.435  10.727 -0.5484  0.7826  1.5243
 5057TIP3    H239367   7.028   5.451  10.741 -0.9118 -0.6438 -0.4464
 5058TIP3   OH239368   3.804   9.102  10.726 -0.0524 -0.0944  0.0730
 5058TIP3    H139369   3.741   9.164  10.764  0.4643  0.4496  0.0719
 5058TIP3    H239370   3.753   9.025  10.705 -0.4783 -0.1904  1.3414
 5059TIP3   OH239371   8.021   1.687   9.003  0.3696  0.0976  0.3623
 5059TIP3    H139372   7.997   1.777   8.981 -0.3345 -0.3442 -0.7816
 5059TIP3    H239373   7.963   1.633   8.950  0.0654 -1.0528  1.8116
 5060TIP3   OH239374   3.714   1.032  10.034 -0.5204 -0.2506  0.1989
 5060TIP3    H139375   3.722   1.124  10.060 -0.7188  0.1839 -1.2281
 5060TIP3    H239376   3.621   1.012  10.045 -0.5958 -0.0839 -0.1427
 5061TIP3   OH239377   5.993   1.989  10.629 -0.1204  0.0629 -0.1425
 5061TIP3    H139378   5.965   1.942  10.708 -0.3644 -3.0558 -1.9291
 5061TIP3    H239379   5.947   1.945  10.558  1.3838  1.6746 -2.2127
 5062TIP3   OH239380   4.441   9.092  11.267 -0.2164 -0.4566 -0.7304
 5062TIP3    H139381   4.497   9.033  11.219 -0.3378  0.3127 -1.8443
 5062TIP3    H239382   4.418   9.044  11.347 -0.2357 -1.8617 -1.5540
 5063TIP3   OH239383   8.831   3.708  10.503 -0.0111 -0.1863 -0.3378
 5063TIP3    H139384   8.843   3.784  10.446 -0.4600  0.3779  0.3075
 5063TIP3    H239385   8.763   3.734  10.565  0.8529 -0.5738  0.8126
 5064TIP3   OH239386   7.379   7.950  10.180 -0.1188  0.2228  0.1060
 5064TIP3    H139387   7.360   7.879  10.118  2.0491 -0.4047  0.0750
 5064TIP3    H239388   7.472   7.938  10.203 -0.5343  1.0843  2.6304
 5065TIP3   OH239389   4.717   8.339  10.583 -0.4416  0.0053  0.0742
 5065TIP3    H139390   4.795   8.284  10.576 -1.3736 -1.3032 -0.4688
 5065TIP3    H239391   4.694   8.335  10.676 -0.1020  0.0781  0.1658
 5066TIP3   OH239392   6.149   7.470  11.276 -0.5654 -0.3934  0.2166
 5066TIP3    H139393   6.092   7.539  11.310 -0.3745 -0.3376  0.4229
 5066TIP3    H239394   6.109   7.389  11.306  0.1336 -0.3175  1.4172
 5067TIP3   OH239395   4.919   5.698  10.460 -0.4832 -0.7407  0.4349
 5067TIP3    H139396   4.824   5.694  10.463 -0.5648 -0.6050 -1.2738
 5067TIP3    H239397   4.940   5.730  10.372  1.1817 -2.4333  0.1446
 5068TIP3   OH239398   8.209   1.400   9.321 -0.1206 -0.6479 -0.4853
 5068TIP3    H139399   8.193   1.444   9.237  1.1665  0.5214 -0.1579
 5068TIP3    H239400   8.122   1.391   9.360 -0.5490  0.4667 -1.1287
 5069TIP3   OH239401   7.276   8.614  10.780 -0.3740 -0.0134  0.2990
 5069TIP3    H139402   7.227   8.593  10.860 -0.5641 -1.7090 -0.2195
 5069TIP3    H239403   7.325   8.534  10.760  2.0494  1.3687  0.3557
 5070TIP3   OH239404   1.673   1.629  10.585 -0.4230 -0.2820 -0.3100
 5070TIP3    H139405   1.595   1.596  10.630  0.7208 -0.7389  1.4667
 5070TIP3    H239406   1.729   1.551  10.576  1.1035  0.5563  1.3094
 5071TIP3   OH239407   1.283   0.966  10.608 -0.4528 -0.1792  0.1741
 5071TIP3    H139408   1.290   0.872  10.627 -0.5616 -0.2620 -0.1732
 5071TIP3    H239409   1.212   0.971  10.544 -0.2955  0.1186  0.0244
 5072TIP3   OH239410   4.190   6.941  10.685 -0.3176  0.1702  0.1117
 5072TIP3    H139411   4.127   6.906  10.623 -1.0946  0.1141  0.9231
 5072TIP3    H239412   4.251   6.992  10.631 -1.0873  0.2799 -0.6744
 5073TIP3   OH239413   6.094   3.489   9.570  0.0366  0.6277 -0.2566
 5073TIP3    H139414   6.069   3.494   9.663 -0.3536  0.6827 -0.3615
 5073TIP3    H239415   6.016   3.454   9.526  0.9065 -1.4036 -0.2881
 5074TIP3   OH239416   7.118   7.138  10.504  0.7925 -0.3358  0.0291
 5074TIP3    H139417   7.029   7.170  10.493  0.6274 -1.1536 -1.2338
 5074TIP3    H239418   7.111   7.043  10.495  1.8076 -0.4003 -0.2367
 5075TIP3   OH239419   3.031   1.081  10.024 -0.0009 -0.1689  0.0007
 5075TIP3    H139420   3.011   1.168  10.059 -0.9442 -0.4064  0.1056
 5075TIP3    H239421   3.066   1.032  10.099  0.5119  0.1181 -0.0535
 5076TIP3   OH239422   0.371   8.941  10.985  0.7888  0.3669 -0.0797
 5076TIP3    H139423   0.433   8.969  10.918  2.0825 -0.8615  0.5808
 5076TIP3    H239424   0.424   8.921  11.061 -0.6015  1.1523  1.1694
 5077TIP3   OH239425   5.745   8.486   9.383  0.5065  0.0438 -0.5301
 5077TIP3    H139426   5.675   8.424   9.402 -1.2916  0.9978 -3.4080
 5077TIP3    H239427   5.725   8.563   9.437  0.5345 -0.4413  0.1789
 5078TIP3   OH239428   2.962   0.033   9.567 -0.0960  0.4697 -0.1404
 5078TIP3    H139429   2.944  -0.049   9.522 -2.7186  1.7003 -1.5651
 5078TIP3    H239430   3.032   0.074   9.515  0.8060 -0.5544  0.2331
 5079TIP3   OH239431   3.851   6.325   9.861 -0.3550  0.2303  0.3332
 5079TIP3    H139432   3.757   6.329   9.847 -1.0597 -4.7733  1.8757
 5079TIP3    H239433   3.863   6.351   9.952 -0.3240  0.0651  0.3751
 5080TIP3   OH239434   7.798   6.805  10.299  0.1566  0.1040 -0.1423
 5080TIP3    H139435   7.861   6.742  10.266  0.2988  0.4016 -0.4423
 5080TIP3    H239436   7.747   6.757  10.364  0.5295 -0.2048 -0.0804
 5081TIP3   OH239437   4.117   6.120  10.177  0.1400 -0.0523 -0.4943
 5081TIP3    H139438   4.106   6.029  10.148 -0.1690  0.0945 -0.8515
 5081TIP3    H239439   4.143   6.113  10.268  1.1351 -0.5376 -0.7963
 5082TIP3   OH239440   4.339   7.715   9.995 -0.0427 -0.0427  0.1157
 5082TIP3    H139441   4.260   7.759   9.963 -0.1609  0.4068  0.9929
 5082TIP3    H239442   4.409   7.747   9.938 -0.4489 -0.3064 -0.5548
 5083TIP3   OH239443   6.612   5.372   9.924 -0.0890 -0.0979  0.7912
 5083TIP3    H139444   6.625   5.386   9.830  0.2477  0.4046  0.9094
 5083TIP3    H239445   6.698   5.347   9.957 -0.3809 -1.0949  0.8307
 5084TIP3   OH239446   1.781   2.235  10.242  0.1775  0.0194 -0.0440
 5084TIP3    H139447   1.719   2.164  10.262  0.3176 -0.8186 -2.3068
 5084TIP3    H239448   1.726   2.308  10.215  0.1212 -0.5340 -1.4859
 5085TIP3   OH239449   5.164   5.445   9.434 -0.2811  0.1297 -0.5436
 5085TIP3    H139450   5.223   5.510   9.471 -1.1445 -1.9652  5.7488
 5085TIP3    H239451   5.222   5.384   9.388  2.0964  0.0598  2.2482
 5086TIP3   OH239452   7.640   2.669   9.480 -0.0466  0.0782 -0.0596
 5086TIP3    H139453   7.732   2.676   9.503  0.2023 -2.6894  0.1101
 5086TIP3    H239454   7.639   2.668   9.384  0.3063 -1.3942 -0.0732
 5087TIP3   OH239455   1.565   4.489   9.917  0.3388 -0.1500  0.1165
 5087TIP3    H139456   1.600   4.578   9.916  2.5406 -0.9357  1.5368
 5087TIP3    H239457   1.536   4.476  10.008  0.7664 -1.1451  0.1170
 5088TIP3   OH239458   2.472   4.670  10.235 -0.5682 -0.0712 -0.0417
 5088TIP3    H139459   2.509   4.743  10.186  0.4638  0.1326  0.9890
 5088TIP3    H239460   2.444   4.607  10.169 -0.1604  0.6381 -0.8998
 5089TIP3   OH239461   7.486   3.921  10.298  0.2447  0.7220 -0.5665
 5089TIP3    H139462   7.399   3.908  10.262 -0.6335 -1.4082  2.0205
 5089TIP3    H239463   7.545   3.877  10.237 -0.5746  1.2499 -1.7735
 5090TIP3   OH239464   6.458   2.637  10.862 -0.1668  0.0280  0.2982
 5090TIP3    H139465   6.476   2.556  10.909  0.4095  0.4428  0.8033
 5090TIP3    H239466   6.364   2.634  10.843 -0.3575 -0.2648  1.2458
 5091TIP3   OH239467   5.527   6.597   9.476  0.4453  0.3209  0.1227
 5091TIP3    H139468   5.608   6.591   9.527  1.0722  0.2875 -0.8404
 5091TIP3    H239469   5.504   6.506   9.456 -0.0869  0.3086  0.7802
 5092TIP3   OH239470   8.820   0.851  10.660 -0.1187  0.0814 -0.6098
 5092TIP3    H139471   8.846   0.827  10.571 -0.5490  2.8977 -1.5935
 5092TIP3    H239472   8.742   0.798  10.677 -1.2777  0.9439 -2.7714
 5093TIP3   OH239473   6.915   6.361   9.897 -0.1417  0.2228  0.4041
 5093TIP3    H139474   6.950   6.449   9.911 -1.2789  0.5854  1.1044
 5093TIP3    H239475   6.943   6.338   9.808  0.6061  1.0643  0.4040
 5094TIP3   OH239476   3.325   1.978  10.093  0.1681  0.3270 -0.2286
 5094TIP3    H139477   3.305   1.907  10.155  1.0786 -0.0755 -0.3790
 5094TIP3    H239478   3.326   2.057  10.147  1.1811 -0.0490  0.3312
 5095TIP3   OH239479   1.281   8.691  10.642  0.0133  0.1922 -0.1782
 5095TIP3    H139480   1.194   8.718  10.614  0.0285 -0.6850 -1.1602
 5095TIP3    H239481   1.332   8.687  10.561  0.4929 -0.9274  0.1502
 5096TIP3   OH239482   7.708   5.042  11.207 -0.1310  0.1724  0.3512
 5096TIP3    H139483   7.749   4.969  11.254 -1.9731  0.2268  2.1735
 5096TIP3    H239484   7.767   5.059  11.134  0.6824 -2.7420  0.1932
 5097TIP3   OH239485   4.568   1.605  10.442 -0.0805  0.1109 -0.1520
 5097TIP3    H139486   4.476   1.599  10.415 -0.4519 -1.9720  1.3830
 5097TIP3    H239487   4.571   1.680  10.501 -1.0340 -0.4266  0.6002
 5098TIP3   OH239488   5.109   0.748  10.598 -0.0373 -0.2009  0.1005
 5098TIP3    H139489   5.115   0.822  10.537  0.5991 -0.3093  0.0242
 5098TIP3    H239490   5.177   0.687  10.568 -1.3659 -1.3894 -0.6048
 5099TIP3   OH239491   7.654   7.266  10.976  0.2244 -0.8093  0.7675
 5099TIP3    H139492   7.732   7.211  10.969  1.4899  1.0788 -3.4001
 5099TIP3    H239493   7.683   7.343  11.024 -0.2837 -1.7368  2.6467
 5100TIP3   OH239494   7.764   1.499  10.989  0.3074 -0.5298  0.1265
 5100TIP3    H139495   7.671   1.507  10.965  0.0776 -2.8015  0.0763
 5100TIP3    H239496   7.763   1.467  11.079  1.0939  0.5660  0.5489
 5101TIP3   OH239497   1.672   1.244  10.564 -0.5289  0.1763  0.5999
 5101TIP3    H139498   1.723   1.196  10.499 -0.9712 -0.4127  0.6836
 5101TIP3    H239499   1.733   1.310  10.598 -0.2426  0.3796 -0.2849
 5102TIP3   OH239500   5.759   6.004  11.323 -0.3169 -0.3234 -0.0398
 5102TIP3    H139501   5.743   5.916  11.358 -1.1567  0.4164  1.5079
 5102TIP3    H239502   5.844   6.029  11.358 -0.2453 -0.3707 -0.1795
 5103TIP3   OH239503   8.586   2.388   9.879  0.3143  0.1191  0.7718
 5103TIP3    H139504   8.641   2.456   9.918  0.0695  0.3808  0.6620
 5103TIP3    H239505   8.648   2.319   9.854  1.2079  1.9937 -2.8959
 5104TIP3   OH239506   4.535   8.949   9.434 -0.2003  0.4987 -0.2361
 5104TIP3    H139507   4.447   8.933   9.467 -0.7818  0.6239 -1.6678
 5104TIP3    H239508   4.585   8.872   9.463 -1.2324 -0.4827 -0.9723
 5105TIP3   OH239509   6.819   4.816  11.359 -0.1693  0.2273  0.0664
 5105TIP3    H139510   6.904   4.772  11.369 -0.0701  0.8222  2.7232
 5105TIP3    H239511   6.842   4.907  11.342 -0.3430 -0.0021 -1.5357
 5106TIP3   OH239512   5.625   1.332  10.307  0.2607  0.4860  0.5169
 5106TIP3    H139513   5.581   1.295  10.384 -0.8780 -0.9928 -0.7761
 5106TIP3    H239514   5.718   1.335  10.332  0.0788 -1.0847  1.5526
 5107TIP3   OH239515   8.841   1.401   9.397 -0.3172 -0.2593  0.1295
 5107TIP3    H139516   8.837   1.371   9.488  0.0562  0.5762  0.4317
 5107TIP3    H239517   8.880   1.489   9.402 -0.0123 -0.3212 -0.8651
 5108TIP3   OH239518   4.423   5.695   9.957  0.5225 -0.3476 -0.1460
 5108TIP3    H139519   4.471   5.729   9.881 -1.5006  1.9806 -0.5332
 5108TIP3    H239520   4.335   5.677   9.923 -0.4596  0.8507  1.6193
 5109TIP3   OH239521   1.473   2.388   9.540  0.4937  0.6277 -0.7172
 5109TIP3    H139522   1.443   2.400   9.450 -1.7424  1.0724  0.0007
 5109TIP3    H239523   1.425   2.455   9.590 -0.6799 -1.5073  1.2135
 5110TIP3   OH239524   8.235   5.102  10.773  0.4270  0.4510  0.1039
 5110TIP3    H139525   8.176   5.175  10.757 -0.8945 -0.8238 -1.1275
 5110TIP3    H239526   8.318   5.129  10.733 -0.2784  0.9614 -1.0734
 5111TIP3   OH239527   7.076   6.218  11.157  0.6491 -0.2879  0.1861
 5111TIP3    H139528   7.089   6.163  11.080  0.5439 -1.0350  0.6921
 5111TIP3    H239529   7.143   6.285  11.151  0.6525 -0.3558 -0.5478
 5112TIP3   OH239530   5.721   3.583  10.193 -0.1514 -0.0518 -0.4332
 5112TIP3    H139531   5.732   3.489  10.204 -1.5363 -0.3071 -0.9424
 5112TIP3    H239532   5.799   3.611  10.145 -0.3818 -1.2124 -1.5514
 5113TIP3   OH239533   7.216   5.343  11.155  0.3989  0.6298 -0.4778
 5113TIP3    H139534   7.159   5.329  11.232 -0.2030 -1.6051 -1.2475
 5113TIP3    H239535   7.302   5.313  11.184  0.3077  0.3537 -0.4881
 5114TIP3   OH239536   8.972   8.868  10.943  0.4434  0.4686  0.2721
 5114TIP3    H139537   9.064   8.868  10.919  0.5886  0.2381  0.8150
 5114TIP3    H239538   8.926   8.846  10.861  0.8519  0.7785 -0.0426
 5115TIP3   OH239539   2.153   5.913  10.201 -0.0529  0.1942  0.1196
 5115TIP3    H139540   2.194   5.987  10.155 -0.0749 -0.3609 -0.8089
 5115TIP3    H239541   2.059   5.931  10.194 -0.1772 -0.9376 -1.9345
 5116TIP3   OH239542   1.029   4.190  10.538  0.1152  0.1987 -0.1100
 5116TIP3    H139543   1.117   4.161  10.563 -0.1797 -0.6741 -0.0582
 5116TIP3    H239544   0.994   4.232  10.617  0.0703 -0.4457  0.2132
 5117TIP3   OH239545   6.779   1.984  10.269  0.2808  0.1201 -0.1776
 5117TIP3    H139546   6.860   2.028  10.294  0.7388 -1.1719  0.7102
 5117TIP3    H239547   6.718   2.002  10.341  0.6839 -1.1973  0.5321
 5118TIP3   OH239548   7.996   8.068  10.254  0.1051 -0.2016  0.0809
 5118TIP3    H139549   7.925   8.126  10.226 -0.4113  0.7363  2.9253
 5118TIP3    H239550   8.051   8.123  10.310  2.0235 -1.4133 -0.5399
 5119TIP3   OH239551   1.769   1.370  10.142 -0.2230  0.0907  0.0076
 5119TIP3    H139552   1.774   1.457  10.182 -1.3131 -0.0839  0.5378
 5119TIP3    H239553   1.726   1.385  10.058  1.1579  0.3048 -0.6902
 5120TIP3   OH239554   4.828   0.390  10.412  0.2207  0.2609 -0.0159
 5120TIP3    H139555   4.741   0.358  10.435 -0.1712 -0.4156 -2.1976
 5120TIP3    H239556   4.888   0.329  10.455 -0.4507 -0.7149 -0.4233
 5121TIP3   OH239557   1.010   0.295  10.388  0.1975  0.3049 -0.1393
 5121TIP3    H139558   1.049   0.253  10.464  0.1682 -0.4069 -0.5038
 5121TIP3    H239559   0.917   0.270  10.392 -0.1061  1.4556  0.3714
 5122TIP3   OH239560   2.897   7.191  10.101  0.2415 -0.1053  0.1432
 5122TIP3    H139561   2.936   7.113  10.062  0.3733 -0.0073  0.0751
 5122TIP3    H239562   2.839   7.225  10.034 -1.3730 -1.2563  0.8876
 5123TIP3   OH239563   7.363   4.672   9.414 -0.2985  0.1432 -0.3178
 5123TIP3    H139564   7.284   4.704   9.456  0.4524  1.3710  0.2144
 5123TIP3    H239565   7.363   4.578   9.432 -1.8143  0.0550 -0.6703
 5124TIP3   OH239566   2.628   7.252  10.539 -0.1002 -0.2742  0.6078
 5124TIP3    H139567   2.639   7.339  10.577  1.2251 -0.1782  0.0558
 5124TIP3    H239568   2.717   7.223  10.520 -0.5525 -1.5789  0.3877
 5125TIP3   OH239569   1.162   0.799   9.733  0.1222 -0.0373  0.0548
 5125TIP3    H139570   1.137   0.805   9.825 -0.2909  1.2655 -0.1193
 5125TIP3    H239571   1.243   0.849   9.727 -0.7814  1.4428 -0.5815
 5126TIP3   OH239572   3.029   7.938  10.244 -0.8728  0.1032  0.4333
 5126TIP3    H139573   3.048   8.001  10.174 -0.7756 -0.3916  0.0084
 5126TIP3    H239574   2.940   7.960  10.273 -1.0221  0.1333 -0.0392
 5127TIP3   OH239575   2.401   0.448  10.048 -0.5813 -0.4811  0.3498
 5127TIP3    H139576   2.330   0.420  10.105  0.1328  0.1557  1.5861
 5127TIP3    H239577   2.479   0.449  10.104  0.0707  0.5128 -0.5262
 5128TIP3   OH239578   3.743   7.428   9.970 -0.1437 -0.2357  0.2876
 5128TIP3    H139579   3.785   7.429  10.056  1.5734 -1.8799 -0.4469
 5128TIP3    H239580   3.683   7.354   9.974 -0.8830  0.3614  0.4060
 5129TIP3   OH239581   8.711   1.416  10.204  0.3647 -0.2793 -0.0950
 5129TIP3    H139582   8.688   1.352  10.271 -1.3200  0.3476 -0.0201
 5129TIP3    H239583   8.734   1.495  10.253 -0.8736  0.1811 -0.2072
 5130TIP3   OH239584   1.941   5.906   9.983 -0.2394 -0.0099  0.4567
 5130TIP3    H139585   1.952   5.811   9.979 -1.2880 -0.0982 -1.3088
 5130TIP3    H239586   2.030   5.941   9.974  0.1274 -0.8136  0.9080
 5131TIP3   OH239587   1.108   0.032   9.553  0.6943  0.1907  0.6401
 5131TIP3    H139588   1.085  -0.054   9.589  1.7787  0.2256  1.4827
 5131TIP3    H239589   1.187   0.016   9.501  0.3632  0.5208  0.0251
 5132TIP3   OH239590   2.081   3.562  10.669  0.5190 -0.0919  0.4762
 5132TIP3    H139591   2.056   3.633  10.727 -0.8039 -0.9537  0.9996
 5132TIP3    H239592   2.115   3.606  10.590 -0.0828  1.0973  0.8625
 5133TIP3   OH239593   2.414   6.370  10.032 -0.2847 -0.6854  0.2657
 5133TIP3    H139594   2.363   6.337   9.958 -0.2485 -0.2604  0.0443
 5133TIP3    H239595   2.499   6.327  10.025  0.6674  1.2526 -1.4876
 5134TIP3   OH239596   6.351   4.624  10.914  0.2629  0.3107  0.5612
 5134TIP3    H139597   6.363   4.687  10.984 -1.3498  0.7029  0.5208
 5134TIP3    H239598   6.415   4.648  10.847 -1.2964  2.9081 -0.1251
 5135TIP3   OH239599   2.875   0.792  10.238  0.1218 -0.0229  0.0916
 5135TIP3    H139600   2.969   0.814  10.242 -0.4691  2.8465  0.6936
 5135TIP3    H239601   2.862   0.728  10.308  1.6478 -0.6629 -0.1681
 5136TIP3   OH239602   3.430   4.011  10.887 -0.2250 -0.0002 -0.4589
 5136TIP3    H139603   3.486   4.009  10.965 -0.6842  0.2291 -0.1204
 5136TIP3    H239604   3.362   3.945  10.905 -0.2958  0.0086 -0.6903
 5137TIP3   OH239605   8.521   2.460  10.694  0.1161 -0.6799  0.9846
 5137TIP3    H139606   8.475   2.424  10.771 -1.7945  0.0903  0.2745
 5137TIP3    H239607   8.520   2.388  10.631 -1.7815 -0.1381  0.3365
 5138TIP3   OH239608   4.905   4.925  10.114  0.1135 -0.4783  0.0160
 5138TIP3    H139609   4.811   4.943  10.106  0.1407 -0.6859 -0.8596
 5138TIP3    H239610   4.941   4.947  10.028  0.9730  0.1916  0.5329
 5139TIP3   OH239611   6.432   7.461  10.308 -0.0793  0.2253 -0.4560
 5139TIP3    H139612   6.399   7.404  10.238  0.4874 -0.6484 -0.0389
 5139TIP3    H239613   6.382   7.542  10.300 -1.3157 -0.5396 -0.7180
 5140TIP3   OH239614   8.916   8.290  10.546  0.1324 -0.1972  0.3693
 5140TIP3    H139615   8.884   8.367  10.593 -0.7333 -0.7319  0.6835
 5140TIP3    H239616   8.852   8.222  10.566  0.3000 -0.7071 -0.7788
 5141TIP3   OH239617   6.302   4.965  10.908 -0.1249 -0.4151 -0.2429
 5141TIP3    H139618   6.296   5.014  10.826 -2.1941  1.0489  0.6773
 5141TIP3    H239619   6.353   5.022  10.966  0.6716 -1.0859 -0.2811
 5142TIP3   OH239620   7.312   5.045  11.021 -0.6061  0.0024  0.6338
 5142TIP3    H139621   7.296   5.128  10.976  0.6915 -0.0517  0.0584
 5142TIP3    H239622   7.284   5.062  11.111 -0.8202  0.9097  0.4102
 5143TIP3   OH239623   8.689   0.628   9.958 -0.1390  0.5500  0.8200
 5143TIP3    H139624   8.696   0.719   9.931 -3.2987  0.7259  0.1938
 5143TIP3    H239625   8.681   0.632  10.054  0.8365  0.8220  0.8928
 5144TIP3   OH239626   0.527   1.695   9.694 -0.0092 -0.2014  0.7197
 5144TIP3    H139627   0.460   1.632   9.666 -0.4432  0.4840  0.1757
 5144TIP3    H239628   0.489   1.737   9.772 -0.9200  1.2555 -0.4455
 5145TIP3   OH239629   0.960   0.654  11.140 -0.2289 -0.1620 -0.1424
 5145TIP3    H139630   1.006   0.570  11.130 -1.9651 -1.2527  0.4843
 5145TIP3    H239631   1.008   0.699  11.210  1.8840  0.2534 -1.7638
 5146TIP3   OH239632   0.699   7.412  11.035  0.1593 -0.0219  0.7084
 5146TIP3    H139633   0.634   7.353  11.074 -0.6027 -0.3999 -1.0316
 5146TIP3    H239634   0.651   7.457  10.965  1.7709 -0.3655 -0.6888
 5147TIP3   OH239635   3.486   5.737  10.760  0.3328  0.2330 -0.1286
 5147TIP3    H139636   3.407   5.699  10.723 -0.4551  0.4008  1.3265
 5147TIP3    H239637   3.513   5.804  10.696  0.3360 -1.0129 -1.4932
 5148TIP3   OH239638   2.164   1.226  10.473  0.0717 -0.6331  0.8711
 5148TIP3    H139639   2.228   1.218  10.543 -0.0125  0.8353  1.1378
 5148TIP3    H239640   2.105   1.151  10.486  0.2640 -0.5872  2.1477
 5149TIP3   OH239641   3.781   8.247  10.863  0.2277  0.3326 -0.4111
 5149TIP3    H139642   3.867   8.211  10.845 -0.0696 -0.6435  0.0712
 5149TIP3    H239643   3.723   8.207  10.799  0.2484  1.6067 -1.2674
 5150TIP3   OH239644   0.524   8.068   9.318 -0.3033  0.6593  0.1443
 5150TIP3    H139645   0.543   8.146   9.266  1.1054 -0.1711 -0.6393
 5150TIP3    H239646   0.551   8.091   9.407  0.4646  0.9440 -0.1543
 5151TIP3   OH239647   5.683   6.715  11.433  0.1133 -0.3672 -0.2910
 5151TIP3    H139648   5.715   6.699  11.344 -1.1004 -1.1740 -0.6101
 5151TIP3    H239649   5.743   6.780  11.469  0.8316 -0.2865 -1.5812
 5152TIP3   OH239650   4.002   2.065  10.519  0.0469  0.0907 -0.6476
 5152TIP3    H139651   3.917   2.021  10.513 -0.4057  0.8389  0.0574
 5152TIP3    H239652   4.040   2.032  10.601  0.3298 -0.0465 -0.8326
 5153TIP3   OH239653   8.060   2.251   9.930 -0.5000 -0.2495  0.2279
 5153TIP3    H139654   8.127   2.295   9.878  0.2237 -0.9636  0.5406
 5153TIP3    H239655   7.979   2.267   9.882  0.0302 -0.2058 -0.6837
 5154TIP3   OH239656   0.240   2.398  10.390  0.3373 -0.7449  0.1949
 5154TIP3    H139657   0.211   2.481  10.354  0.9271 -0.3522  0.6093
 5154TIP3    H239658   0.185   2.332  10.346 -0.4264 -0.1158  0.1821
 5155TIP3   OH239659   8.505   4.796  10.483 -0.0410  0.2358  0.2129
 5155TIP3    H139660   8.525   4.708  10.451  0.5016  0.4615 -0.0818
 5155TIP3    H239661   8.569   4.852  10.440 -1.9233  1.1564 -1.5672
 5156TIP3   OH239662   4.493   0.930   9.852 -0.3353 -0.3507 -0.1722
 5156TIP3    H139663   4.515   1.022   9.862  0.7372 -0.6288  0.1894
 5156TIP3    H239664   4.407   0.930   9.809 -0.0404  0.8038 -0.8004
 5157TIP3   OH239665   7.395   9.002  11.023  0.2534 -1.0946 -0.2356
 5157TIP3    H139666   7.443   8.920  11.038 -2.6087 -2.7805  0.4397
 5157TIP3    H239667   7.316   8.994  11.077 -1.8929  0.5076 -2.8764
 5158TIP3   OH239668   2.569   6.624   9.992  0.2687  0.6804  0.0421
 5158TIP3    H139669   2.525   6.552   9.948  0.2034  0.7914 -0.0762
 5158TIP3    H239670   2.649   6.586  10.028 -0.3115  0.2934  0.9563
 5159TIP3   OH239671   6.321   0.434  10.419 -0.4301  0.1357  0.1911
 5159TIP3    H139672   6.411   0.443  10.387 -1.0011  0.5368 -1.4293
 5159TIP3    H239673   6.328   0.443  10.514  1.0296  1.9016 -0.0286
 5160TIP3   OH239674   1.637   0.885   9.221 -0.3434  0.0815  0.5256
 5160TIP3    H139675   1.584   0.950   9.176 -1.6843 -0.3917  1.3672
 5160TIP3    H239676   1.721   0.928   9.235  0.4044  0.0289 -2.9625
 5161TIP3   OH239677   4.761   4.623  11.271  0.0168  0.1251 -0.0762
 5161TIP3    H139678   4.835   4.562  11.273 -0.9231 -1.0481  1.6905
 5161TIP3    H239679   4.800   4.708  11.291  0.9226 -0.4850  0.8798
 5162TIP3   OH239680   4.017   4.835  10.376 -0.2909  0.9695 -0.0091
 5162TIP3    H139681   4.094   4.892  10.368  0.5352 -0.1581 -0.2022
 5162TIP3    H239682   4.052   4.747  10.381 -1.5910  0.4091 -0.3458
 5163TIP3   OH239683   1.083   0.845  11.270  0.1311  0.1114 -0.3577
 5163TIP3    H139684   1.000   0.893  11.263  1.1072  2.0773  0.9220
 5163TIP3    H239685   1.143   0.891  11.211  0.6873 -0.4746 -0.2585
 5164TIP3   OH239686   3.494   8.050   9.622  0.0526 -0.7125 -0.1657
 5164TIP3    H139687   3.443   8.034   9.543  2.5011 -0.5685 -1.8825
 5164TIP3    H239688   3.529   8.138   9.612  2.0279 -1.4221  0.0664
 5165TIP3   OH239689   1.859   8.627  10.383  0.7348 -0.1187 -0.1510
 5165TIP3    H139690   1.790   8.692  10.395 -1.3192 -2.2503  0.2989
 5165TIP3    H239691   1.929   8.656  10.442 -0.3359  1.3714  0.4575
 5166TIP3   OH239692   4.265   2.861  11.089  0.6636  0.0598 -0.2677
 5166TIP3    H139693   4.351   2.879  11.126  0.6940 -0.7100  0.0430
 5166TIP3    H239694   4.206   2.862  11.164  0.6598 -1.0747 -0.2435
 5167TIP3   OH239695   5.270   6.666   9.664  0.4887  0.1492 -0.3234
 5167TIP3    H139696   5.340   6.694   9.604  1.0359 -1.3860 -0.4557
 5167TIP3    H239697   5.232   6.589   9.622 -0.0415 -0.1378  0.6444
 5168TIP3   OH239698   5.398   6.513  10.687 -0.7136 -0.2608 -0.0655
 5168TIP3    H139699   5.378   6.424  10.717 -2.9980  0.1535 -0.2188
 5168TIP3    H239700   5.406   6.505  10.592  0.9216 -0.5867  0.0737
 5169TIP3   OH239701   3.111   6.738   9.989  0.1236  0.5379  0.4367
 5169TIP3    H139702   3.035   6.680   9.984  0.2372  0.1755  2.1646
 5169TIP3    H239703   3.186   6.680  10.001  0.1584  0.9820  2.9225
 5170TIP3   OH239704   5.442   0.165  10.215  1.2500 -0.6026 -0.3875
 5170TIP3    H139705   5.489   0.247  10.198  0.5076 -0.2076 -0.5623
 5170TIP3    H239706   5.451   0.115  10.135  0.3744 -0.0286 -0.8619
 5171TIP3   OH239707   5.015   5.159  10.394 -0.1997  0.0224 -0.1292
 5171TIP3    H139708   5.109   5.176  10.400 -0.0841 -1.0818  3.6797
 5171TIP3    H239709   4.975   5.246  10.386  1.0666  0.5959 -0.4077
 5172TIP3   OH239710   5.696   0.347  10.188  0.0885  0.3885 -0.5691
 5172TIP3    H139711   5.745   0.346  10.106  0.2024  1.1412 -0.5188
 5172TIP3    H239712   5.734   0.277  10.241 -0.5968 -0.7167 -1.5036
 5173TIP3   OH239713   7.402   8.021   9.068  0.1637  0.0227 -0.6034
 5173TIP3    H139714   7.361   8.019   8.981 -0.8481 -0.4097 -0.1415
 5173TIP3    H239715   7.335   8.061   9.125  0.3435 -0.7684  0.1865
 5174TIP3   OH239716   5.143   5.826  11.196  0.0704  0.0561 -0.0522
 5174TIP3    H139717   5.213   5.884  11.167  0.9974 -1.3784 -0.8064
 5174TIP3    H239718   5.084   5.883  11.246  1.2410  1.5018 -0.2359
 5175TIP3   OH239719   6.825   4.175  11.023 -0.0683 -0.4604  0.2743
 5175TIP3    H139720   6.817   4.209  11.112  1.1627 -1.0496  0.6373
 5175TIP3    H239721   6.768   4.098  11.022 -1.4548  0.5568  0.0003
 5176TIP3   OH239722   7.118   8.623   9.955 -0.0159  0.3460  0.2391
 5176TIP3    H139723   7.200   8.605   9.908 -0.5179 -0.8672 -0.2300
 5176TIP3    H239724   7.054   8.565   9.914 -0.9697  0.8123  1.0242
 5177TIP3   OH239725   0.524   3.975   9.297  0.0297 -0.4248  0.0841
 5177TIP3    H139726   0.502   3.962   9.390  1.7803 -1.4963  0.3879
 5177TIP3    H239727   0.524   3.887   9.260 -0.3572 -0.0278 -0.8792
 5178TIP3   OH239728   1.499   7.933   9.864  0.3725  0.6690 -0.0476
 5178TIP3    H139729   1.432   7.987   9.906 -0.9938 -0.8392 -0.1872
 5178TIP3    H239730   1.553   7.900   9.936 -0.7278 -0.2741  0.3831
 5179TIP3   OH239731   3.586   0.407   9.810  0.2391 -0.2586 -0.6595
 5179TIP3    H139732   3.551   0.342   9.750  0.9930  0.2700 -1.7058
 5179TIP3    H239733   3.626   0.473   9.753  1.0079  0.2394  0.4237
 5180TIP3   OH239734   5.732   6.789  10.387  0.4653 -0.6882  0.5493
 5180TIP3    H139735   5.733   6.731  10.463 -0.4081 -1.0210  0.3183
 5180TIP3    H239736   5.752   6.875  10.423  1.3970 -1.0588  0.9513
 5181TIP3   OH239737   7.331   6.939  10.851  0.1728  0.3713 -0.1646
 5181TIP3    H139738   7.358   6.847  10.851  0.7374  0.5284 -1.0695
 5181TIP3    H239739   7.248   6.939  10.899  0.9021 -0.3840  1.1753
 5182TIP3   OH239740   0.281   4.534  10.457  0.3610  0.3927 -0.1614
 5182TIP3    H139741   0.264   4.593  10.530  1.5963  0.7750 -0.1680
 5182TIP3    H239742   0.342   4.582  10.401  0.0022 -0.1901 -1.0732
 5183TIP3   OH239743   8.061   1.538  11.286 -0.3450 -0.1872  1.0632
 5183TIP3    H139744   8.117   1.468  11.319 -1.5613 -1.6686  0.0914
 5183TIP3    H239745   8.103   1.566  11.205 -0.9908 -1.3220  0.3144
 5184TIP3   OH239746   4.205   5.319   9.672 -0.5531  0.8030  0.3110
 5184TIP3    H139747   4.206   5.409   9.639 -1.2323  0.9982  0.8035
 5184TIP3    H239748   4.123   5.283   9.639 -0.5726  0.5579  0.6269
 5185TIP3   OH239749   7.757   0.583  10.648  0.8672 -0.1681  0.3968
 5185TIP3    H139750   7.835   0.631  10.676  0.8689  0.6242 -0.9173
 5185TIP3    H239751   7.790   0.506  10.602  0.9439  1.0505 -1.6977
 5186TIP3   OH239752   3.845   5.795  10.672 -0.2871  0.2073  0.3246
 5186TIP3    H139753   3.897   5.867  10.637 -1.1871  2.2370  2.7883
 5186TIP3    H239754   3.760   5.803  10.629  0.1495 -0.5361 -0.7019
 5187TIP3   OH239755   3.708   3.271  10.664 -0.7183 -0.7270  0.1191
 5187TIP3    H139756   3.704   3.312  10.750 -0.8056 -0.3192 -0.0817
 5187TIP3    H239757   3.797   3.287  10.634 -0.8155 -0.5071 -0.0494
 5188TIP3   OH239758   0.224   3.858  10.429  0.3478 -0.2015  0.1268
 5188TIP3    H139759   0.260   3.937  10.468 -0.5612  0.3292 -0.0767
 5188TIP3    H239760   0.226   3.874  10.334 -0.7936  0.0299  0.1225
 5189TIP3   OH239761   5.624   4.460   9.783 -0.1482  0.0757  0.1469
 5189TIP3    H139762   5.694   4.499   9.836 -1.3210  0.8382  1.2167
 5189TIP3    H239763   5.645   4.485   9.693  1.8841 -1.2207  0.1937
 5190TIP3   OH239764   7.592   8.374   9.801 -0.4547  0.5028  0.3132
 5190TIP3    H139765   7.621   8.399   9.713 -1.3296 -0.1489 -0.1775
 5190TIP3    H239766   7.653   8.306   9.828 -0.5213  0.3001 -0.0350
 5191TIP3   OH239767   1.964   4.714  10.788 -0.3043 -0.2453 -0.1760
 5191TIP3    H139768   1.968   4.621  10.768  1.2932 -0.4018  0.6413
 5191TIP3    H239769   1.872   4.738  10.776 -0.6644 -1.8231 -0.7952
 5192TIP3   OH239770   2.727   8.882  10.208 -0.3115  0.0199 -0.0974
 5192TIP3    H139771   2.729   8.873  10.303 -2.4960  1.7381  0.1967
 5192TIP3    H239772   2.817   8.868  10.180  0.2893 -0.9695  2.1577
 5193TIP3   OH239773   6.109   1.920  11.116 -0.3402  0.1051 -0.2234
 5193TIP3    H139774   6.034   1.877  11.076 -0.9808 -0.3935  1.4109
 5193TIP3    H239775   6.071   1.975  11.185  0.8154 -0.8953  1.2936
 5194TIP3   OH239776   4.217   6.735  10.865  0.0489 -0.6332 -0.0939
 5194TIP3    H139777   4.199   6.799  10.797  0.1368  0.3454  0.7738
 5194TIP3    H239778   4.133   6.692  10.882 -0.3267  0.2407  0.2938
 5195TIP3   OH239779   2.844   8.194  10.814 -0.7165 -0.4454 -0.5595
 5195TIP3    H139780   2.780   8.180  10.884  0.9486 -0.1572  1.1165
 5195TIP3    H239781   2.860   8.107  10.778 -1.0645 -0.7222 -0.0589
 5196TIP3   OH239782   6.120   0.417  10.025  0.4587 -0.3450 -0.2759
 5196TIP3    H139783   6.180   0.347   9.997  1.9659  0.0544  1.7790
 5196TIP3    H239784   6.110   0.404  10.119 -2.0466  0.1510 -0.4010
 5197TIP3   OH239785   8.226   1.538   9.068 -0.0884 -0.1373  0.3382
 5197TIP3    H139786   8.303   1.561   9.017 -0.6699  0.8957 -0.0979
 5197TIP3    H239787   8.158   1.599   9.039 -1.4632 -1.8635 -0.2461
 5198TIP3   OH239788   2.302   3.930  11.197 -0.6333  0.2386 -0.3142
 5198TIP3    H139789   2.233   3.986  11.232 -0.8837  0.8129 -1.6827
 5198TIP3    H239790   2.380   3.986  11.195 -0.0028 -0.5053  1.5501
 5199TIP3   OH239791   3.005   6.983   9.975  0.3655 -0.1517 -0.4951
 5199TIP3    H139792   2.934   6.973   9.912 -1.8206 -2.6800  2.0433
 5199TIP3    H239793   3.046   6.896   9.978  0.5318 -0.0564  1.3099
 5200TIP3   OH239794   4.340   3.012   9.674 -0.4267 -0.0646 -0.5975
 5200TIP3    H139795   4.364   2.938   9.619 -0.0995 -0.3066 -0.1355
 5200TIP3    H239796   4.256   3.042   9.639 -0.1704 -0.1442 -1.2922
 5201TIP3   OH239797   1.569   0.111   9.417 -0.0001 -0.2684  0.1797
 5201TIP3    H139798   1.474   0.094   9.412 -0.3075  1.0574  0.9966
 5201TIP3    H239799   1.605   0.032   9.456 -0.9755 -0.2668  1.1559
 5202TIP3   OH239800   8.937   2.485   9.079  0.3538  0.0611 -0.7190
 5202TIP3    H139801   9.025   2.449   9.085  0.2462 -0.1625 -0.4352
 5202TIP3    H239802   8.950   2.578   9.060  0.8437  1.0268  3.3309
 5203TIP3   OH239803   2.251   3.160  10.499  0.1702 -0.4914 -0.3446
 5203TIP3    H139804   2.329   3.198  10.539 -0.0135 -1.0040  0.5385
 5203TIP3    H239805   2.200   3.127  10.573 -0.8827 -0.1771 -0.9131
 5204TIP3   OH239806   1.177   4.105  10.052 -0.0701 -0.7166 -0.0441
 5204TIP3    H139807   1.124   4.127   9.975 -1.2953 -0.2102  0.8998
 5204TIP3    H239808   1.137   4.025  10.086  1.0932 -1.5003 -0.4847
 5205TIP3   OH239809   5.181   0.491  10.933  0.8195 -0.2419 -0.4504
 5205TIP3    H139810   5.136   0.565  10.973 -0.6375 -1.9309  1.2231
 5205TIP3    H239811   5.274   0.507  10.950  0.4654  0.7189  0.6955
 5206TIP3   OH239812   0.962   8.609  10.272  0.4835  0.1160  0.0037
 5206TIP3    H139813   0.988   8.547  10.340  2.4047  0.9409  0.0881
 5206TIP3    H239814   1.007   8.577  10.193  1.8880  1.5845  0.1508
 5207TIP3   OH239815   6.949   3.974  11.264  0.5119 -0.2499  0.0052
 5207TIP3    H139816   7.034   4.001  11.229  0.8670 -0.1530  0.9076
 5207TIP3    H239817   6.962   3.883  11.291  0.4798 -0.0842  0.5949
 5208TIP3   OH239818   0.245   7.502  10.739 -0.1763 -0.0952 -0.2852
 5208TIP3    H139819   0.248   7.439  10.811  1.8583 -0.1165 -0.3430
 5208TIP3    H239820   0.234   7.449  10.661  1.6048 -0.4229 -0.3394
 5209TIP3   OH239821   6.976   6.652  11.008  0.5569  0.3995  0.1855
 5209TIP3    H139822   6.980   6.680  10.917  2.2598 -0.6418 -0.1225
 5209TIP3    H239823   6.883   6.636  11.025  0.0792  1.8200 -0.9590
 5210TIP3   OH239824   4.511   3.059   9.298 -0.0027 -0.1719 -0.6287
 5210TIP3    H139825   4.428   3.017   9.320  0.1797  0.4087  1.4391
 5210TIP3    H239826   4.557   2.995   9.245 -1.3890 -0.8785 -1.0175
 5211TIP3   OH239827   1.057   4.064  10.976  0.2444 -0.0350 -0.0098
 5211TIP3    H139828   1.006   3.983  10.977 -1.2977  0.8919 -0.0832
 5211TIP3    H239829   1.093   4.071  11.064 -0.5537 -0.2520  0.3463
 5212TIP3   OH239830   6.387   3.920   9.282  0.6458 -0.1265  0.3235
 5212TIP3    H139831   6.294   3.944   9.283  0.5730 -0.4113  1.4008
 5212TIP3    H239832   6.421   3.952   9.365  1.0436 -1.7921  0.8433
 5213TIP3   OH239833   7.348   1.218  10.680 -0.1455  0.2152 -0.1155
 5213TIP3    H139834   7.438   1.227  10.646  0.2706  0.6863  1.0473
 5213TIP3    H239835   7.341   1.126  10.705  0.3605  0.3719  0.6590
 5214TIP3   OH239836   8.854   7.931   9.200 -0.2885  0.0475  0.3906
 5214TIP3    H139837   8.830   8.011   9.154  0.2654 -0.1305 -0.2260
 5214TIP3    H239838   8.779   7.873   9.188  0.1335 -0.2651 -0.9535
 5215TIP3   OH239839   2.897   3.154   9.967  0.4995 -0.1726  0.0518
 5215TIP3    H139840   2.865   3.083  10.023  1.1906 -0.0159  0.6498
 5215TIP3    H239841   2.861   3.134   9.881  2.1256 -2.2604 -0.2249
 5216TIP3   OH239842   5.028   1.437  10.039  0.4007 -0.0518  0.3819
 5216TIP3    H139843   4.933   1.434  10.052  0.5466 -1.6215  1.3515
 5216TIP3    H239844   5.052   1.348  10.012  1.9682 -0.7757  3.5836
 5217TIP3   OH239845   5.745   0.803  11.011 -0.4030  0.9899 -0.0599
 5217TIP3    H139846   5.802   0.727  11.008 -1.0671  0.4016  1.4899
 5217TIP3    H239847   5.778   0.856  11.084 -1.0255  1.2917  0.0134
 5218TIP3   OH239848   3.350   4.707   9.208 -0.2073 -0.3217 -0.4501
 5218TIP3    H139849   3.379   4.680   9.295 -2.9403 -1.0565  0.3280
 5218TIP3    H239850   3.314   4.628   9.169 -2.0722  0.6488 -0.8598
 5219TIP3   OH239851   1.962   5.995  10.781 -0.1934  0.0052 -0.0114
 5219TIP3    H139852   2.009   5.913  10.790  0.9512  0.6793  0.3473
 5219TIP3    H239853   1.913   5.986  10.700 -0.0658 -1.0204  0.0185
 5220TIP3   OH239854   6.615   7.150  10.233  0.7302  0.0169  0.0016
 5220TIP3    H139855   6.625   7.163  10.138 -1.1788  0.9103 -0.1176
 5220TIP3    H239856   6.685   7.203  10.271  0.7427  0.6732 -0.8874
 5221TIP3   OH239857   0.897   3.094   9.955 -0.2858 -0.0220  0.3089
 5221TIP3    H139858   0.803   3.097   9.975 -0.2511  1.5589  0.3392
 5221TIP3    H239859   0.936   3.154  10.018  0.6055  0.2333 -0.4778
 5222TIP3   OH239860   1.261   6.654   9.959 -0.0719 -0.2361  0.0380
 5222TIP3    H139861   1.214   6.592   9.904 -1.2108  0.4275  0.2343
 5222TIP3    H239862   1.288   6.724   9.900  2.5348 -1.5731 -0.4822
 5223TIP3   OH239863   1.207   6.967  10.068  0.7934 -0.3289  0.7320
 5223TIP3    H139864   1.193   7.004  10.155  0.3725 -0.2253  0.6200
 5223TIP3    H239865   1.131   6.912  10.052 -0.3577  1.5296 -0.5511
 5224TIP3   OH239866   6.271   6.985  10.015 -0.1484 -0.0693 -0.2011
 5224TIP3    H139867   6.233   6.907   9.975 -1.3631  0.4267 -0.0559
 5224TIP3    H239868   6.308   7.034   9.941 -0.0657 -0.4107 -0.3875
 5225TIP3   OH239869   6.729   0.999   9.748  0.0088  0.3409  0.1265
 5225TIP3    H139870   6.711   1.009   9.842  0.6064 -3.1593  0.7696
 5225TIP3    H239871   6.667   0.932   9.719  0.4271  0.7360 -1.7795
 5226TIP3   OH239872   7.930   7.784  10.829  0.1008  0.0587  0.3991
 5226TIP3    H139873   7.947   7.871  10.865 -1.6318  0.2378  0.8829
 5226TIP3    H239874   7.947   7.793  10.735 -0.5486  1.0661  0.3691
 5227TIP3   OH239875   9.068   3.087  10.873  0.2633 -0.2499 -0.4187
 5227TIP3    H139876   9.143   3.135  10.839 -1.1672  1.1450 -1.7430
 5227TIP3    H239877   9.052   3.018  10.809  0.1425 -0.2745 -0.3623
 5228TIP3   OH239878   0.957   9.057   9.160  0.2023 -0.1454  0.4456
 5228TIP3    H139879   1.044   9.017   9.164  0.7677  1.1033  0.9690
 5228TIP3    H239880   0.954   9.097   9.073 -0.7075 -2.0234 -0.4357
 5229TIP3   OH239881   0.176   7.346  10.995 -0.6564  0.4462 -0.4498
 5229TIP3    H139882   0.116   7.405  11.040 -1.1904 -0.0456 -0.4972
 5229TIP3    H239883   0.121   7.271  10.971 -0.2222  0.3787 -1.2701
 5230TIP3   OH239884   1.571   0.862  11.256 -0.0991 -0.2573 -0.1291
 5230TIP3    H139885   1.538   0.777  11.288  0.4881 -0.9706 -1.3566
 5230TIP3    H239886   1.609   0.842  11.171  1.1360  1.0344  0.0890
 5231TIP3   OH239887   0.526   7.745  10.261 -0.1571  0.3831 -0.0058
 5231TIP3    H139888   0.501   7.661  10.222 -2.1090  1.5221 -1.3978
 5231TIP3    H239889   0.498   7.739  10.352  0.9503 -0.9403  0.2675
 5232TIP3   OH239890   4.788   1.665  11.079 -0.1615 -0.4712 -0.3968
 5232TIP3    H139891   4.790   1.594  11.142 -0.4077 -0.9376 -0.9123
 5232TIP3    H239892   4.849   1.639  11.011  0.2543  0.1215 -0.2643
 5233TIP3   OH239893   6.956   7.708   9.450 -0.2984  0.0507 -0.5892
 5233TIP3    H139894   6.879   7.652   9.443  0.3618 -0.8637 -0.8617
 5233TIP3    H239895   6.939   7.782   9.391 -0.9570 -0.1499 -0.6494
 5234TIP3   OH239896   1.812   7.442  10.358 -0.2625  0.0176 -0.1366
 5234TIP3    H139897   1.739   7.415  10.413  2.1602 -0.0343  3.4443
 5234TIP3    H239898   1.785   7.526  10.322 -2.5368 -0.6009 -0.0325
 5235TIP3   OH239899   0.580   0.504  10.155  0.0624  0.3069 -1.1713
 5235TIP3    H139900   0.572   0.455  10.237 -2.4515 -0.0190 -1.5312
 5235TIP3    H239901   0.546   0.591  10.176  1.9545  1.1305 -1.2452
 5236TIP3   OH239902   5.283   8.947  11.038 -0.0818  0.0953  0.3906
 5236TIP3    H139903   5.202   8.936  10.989 -0.0498  1.3495  0.0127
 5236TIP3    H239904   5.274   9.032  11.081  0.7678 -0.0445  0.8750
 5237TIP3   OH239905   0.574   9.197  10.312 -0.4782  0.2476  0.3534
 5237TIP3    H139906   0.594   9.187  10.219  1.7812 -1.3602  0.9256
 5237TIP3    H239907   0.511   9.127  10.330 -0.8626  0.5145  0.0678
 5238TIP3   OH239908   3.333   8.500  10.003 -0.6298  0.1988 -0.6302
 5238TIP3    H139909   3.271   8.491   9.932  1.5059 -0.0055 -2.5761
 5238TIP3    H239910   3.413   8.458   9.971  1.0678  1.9549  1.0344
 5239TIP3   OH239911   6.943   2.093   9.824  0.0351 -0.0466  0.8604
 5239TIP3    H139912   6.911   2.183   9.831  1.0170  0.3479  0.4531
 5239TIP3    H239913   7.010   2.096   9.756 -1.3404 -1.5084 -0.6522
 5240TIP3   OH239914   2.735   2.342  10.365  0.4465 -0.3377  0.5281
 5240TIP3    H139915   2.688   2.364  10.284 -0.8507 -1.0626  1.0600
 5240TIP3    H239916   2.711   2.411  10.427  1.8087  0.4801  0.2016
 5241TIP3   OH239917   6.217   4.163  11.200  0.1117 -0.0719  0.1697
 5241TIP3    H139918   6.232   4.073  11.230 -0.1517 -0.5753 -1.1275
 5241TIP3    H239919   6.304   4.195  11.174  0.3746  0.4410  1.5936
 5242TIP3   OH239920   4.309   5.591  11.125  0.2121  0.6875 -0.1914
 5242TIP3    H139921   4.214   5.589  11.108  0.1910 -0.2674  0.0001
 5242TIP3    H239922   4.337   5.675  11.089 -0.0944 -0.5215 -3.5833
 5243TIP3   OH239923   2.807   8.002  10.368 -0.3414  0.1113 -0.3696
 5243TIP3    H139924   2.729   8.056  10.384  0.5983  1.3577  0.2058
 5243TIP3    H239925   2.840   7.981  10.455  0.2835  0.0819 -0.6094
 5244TIP3   OH239926   3.621   5.777   9.484  0.4366  0.3779 -0.4039
 5244TIP3    H139927   3.535   5.811   9.506 -0.0433 -0.6372 -0.6651
 5244TIP3    H239928   3.605   5.689   9.449  1.6322 -0.1042  0.1806
 5245TIP3   OH239929   8.495   3.275  10.491 -0.4784  0.2550 -0.0531
 5245TIP3    H139930   8.590   3.266  10.484 -0.5883 -0.2219 -1.1132
 5245TIP3    H239931   8.480   3.297  10.583  0.7579  1.7546 -0.1666
 5246TIP3   OH239932   8.797   0.531   9.255  0.2632  0.1478  0.4417
 5246TIP3    H139933   8.841   0.596   9.201  1.2260 -1.1101 -0.3620
 5246TIP3    H239934   8.746   0.582   9.318 -0.0808  1.6531 -0.9923
 5247TIP3   OH239935   1.048   0.983  10.459  0.5984  0.5166 -0.2437
 5247TIP3    H139936   1.101   1.012  10.385 -0.1412  1.1009 -0.5451
 5247TIP3    H239937   0.970   0.944  10.420  1.3306 -1.4800  0.1608
 5248TIP3   OH239938   4.628   7.282  10.659 -0.0153 -0.2771  0.4461
 5248TIP3    H139939   4.545   7.314  10.623 -1.1730 -0.4285  2.7825
 5248TIP3    H239940   4.607   7.196  10.695  1.4418 -0.7737  0.1675
 5249TIP3   OH239941   5.383   8.712   9.675  0.1956  0.2379  0.7559
 5249TIP3    H139942   5.343   8.760   9.748  0.5952  0.5329  0.7853
 5249TIP3    H239943   5.433   8.779   9.627 -0.3285  0.1150  0.0182
 5250TIP3   OH239944   5.173   4.985  10.164 -0.4093  0.1228  0.4022
 5250TIP3    H139945   5.078   4.975  10.175 -0.5258  1.7321  1.2189
 5250TIP3    H239946   5.183   5.027  10.078 -0.2265 -2.2878 -0.8373
 5251TIP3   OH239947   6.343   8.334   9.975  0.3857 -0.0983 -0.7667
 5251TIP3    H139948   6.345   8.430   9.975  0.5291 -0.0207  1.8000
 5251TIP3    H239949   6.424   8.308   9.931  1.6600  1.0622  0.7431
 5252TIP3   OH239950   7.789   0.128  10.738 -0.0094 -0.4444  0.4286
 5252TIP3    H139951   7.716   0.137  10.677 -0.3834 -1.2630  0.7385
 5252TIP3    H239952   7.753   0.153  10.823  0.2061 -0.3683  0.4972
 5253TIP3   OH239953   2.524   8.053  10.363 -0.1418 -0.1573 -0.3413
 5253TIP3    H139954   2.476   8.038  10.445 -3.0347  0.5774 -1.7491
 5253TIP3    H239955   2.466   8.018  10.295  1.1285  1.2410 -2.2432
 5254TIP3   OH239956   3.401   5.033   9.782 -0.8142 -0.4472 -0.4845
 5254TIP3    H139957   3.382   4.965   9.717  0.2364 -0.4650 -0.7783
 5254TIP3    H239958   3.436   5.106   9.731 -0.8603 -0.1047 -0.0338
 5255TIP3   OH239959   8.463   1.394   9.467 -0.1354  0.0464 -0.4425
 5255TIP3    H139960   8.470   1.485   9.497  0.3894  0.2500 -1.1574
 5255TIP3    H239961   8.389   1.394   9.407 -0.1141  0.0164 -0.4695
 5256TIP3   OH239962   7.785   3.993  10.684  0.3775  0.2460 -0.1240
 5256TIP3    H139963   7.853   3.936  10.720  0.5750  0.2115 -0.5436
 5256TIP3    H239964   7.822   4.081  10.689 -0.0105  0.3669  0.7189
 5257TIP3   OH239965   5.530   1.066  10.716  0.2731 -0.4459 -0.3977
 5257TIP3    H139966   5.623   1.084  10.703  0.2068 -1.3506 -2.5081
 5257TIP3    H239967   5.487   1.103  10.639 -1.0745 -0.3848  0.3548
 5258TIP3   OH239968   8.966   3.300   9.698 -0.1565  0.3037  0.3317
 5258TIP3    H139969   8.963   3.297   9.793  0.5928  0.5025  0.3689
 5258TIP3    H239970   8.914   3.377   9.674 -0.4451  0.1835  0.5729
 5259TIP3   OH239971   3.613   6.586  10.605 -0.0508  0.0149  0.0175
 5259TIP3    H139972   3.599   6.506  10.555  0.8689 -0.3066  0.2593
 5259TIP3    H239973   3.647   6.649  10.541  0.0345 -0.0428  0.0066
 5260TIP3   OH239974   5.261   8.345  10.552  0.3648 -0.0048  0.3087
 5260TIP3    H139975   5.216   8.320  10.632  0.0031 -1.1004 -0.2290
 5260TIP3    H239976   5.344   8.297  10.555  0.5639  0.3321  0.2593
 5261TIP3   OH239977   1.267   4.667   9.946 -0.3820  0.0358  0.8915
 5261TIP3    H139978   1.337   4.720   9.984  0.8926 -2.8585  2.8963
 5261TIP3    H239979   1.210   4.645  10.019 -0.9035 -1.2891  0.1242
 5262TIP3   OH239980   2.793   7.025  10.317 -0.1254 -0.2993  0.3437
 5262TIP3    H139981   2.804   7.082  10.393 -0.6181 -0.8684  0.8470
 5262TIP3    H239982   2.800   7.084  10.242  0.0985  0.3085  0.8318
 5263TIP3   OH239983   8.189   6.004  10.008 -0.0243 -0.3417 -0.1297
 5263TIP3    H139984   8.257   6.060  10.047 -0.8472  1.4435 -1.1442
 5263TIP3    H239985   8.222   5.984   9.921  0.0484 -1.0780  0.0613
 5264TIP3   OH239986   8.688   5.446   9.608 -0.1704 -0.4155  0.1161
 5264TIP3    H139987   8.767   5.497   9.585 -0.1622  0.1515  1.3487
 5264TIP3    H239988   8.671   5.393   9.530  0.0752  1.1694 -1.0698
 5265TIP3   OH239989   1.348   8.614  10.019 -0.4557  0.0721  0.1654
 5265TIP3    H139990   1.408   8.539  10.016 -0.2368  0.2065  1.0117
 5265TIP3    H239991   1.387   8.673  10.083 -2.0933 -0.3574  1.6308
 5266TIP3   OH239992   5.740   8.876   9.347 -0.1471  0.5228  0.2342
 5266TIP3    H139993   5.703   8.813   9.410  0.4853 -1.7083 -1.5057
 5266TIP3    H239994   5.820   8.834   9.315 -0.2067  1.7852 -1.7342
 5267TIP3   OH239995   0.387   6.871  10.159  0.3262  0.1287  0.0069
 5267TIP3    H139996   0.433   6.789  10.143 -1.7458 -1.3336  1.0626
 5267TIP3    H239997   0.330   6.882  10.082  1.7276  1.4939 -0.9027
 5268TIP3   OH239998   6.119   2.307  10.390 -0.2823  0.4102  0.0578
 5268TIP3    H139999   6.024   2.298  10.379 -0.1554 -0.1200 -0.6689
 5268TIP3    H240000   6.153   2.307  10.301  0.5044 -0.5277  0.3456
 5269TIP3   OH240001   2.129   0.878   9.742  0.0073  0.6913 -0.0948
 5269TIP3    H140002   2.155   0.913   9.657  0.3512 -0.6182 -0.5535
 5269TIP3    H240003   2.094   0.791   9.723  1.8087 -0.4016  1.2946
 5270TIP3   OH240004   7.881   6.711   9.416  0.1987  0.2443 -0.0846
 5270TIP3    H140005   7.798   6.713   9.464 -0.1553  1.3778 -0.7206
 5270TIP3    H240006   7.873   6.635   9.357 -1.6105  1.9530 -2.2036
 5271TIP3   OH240007   6.188   2.298  11.206  0.1747 -0.1675 -0.3416
 5271TIP3    H140008   6.284   2.295  11.201  0.2386  1.3230 -0.5196
 5271TIP3    H240009   6.165   2.382  11.166 -0.9667  1.1905  2.8064
 5272TIP3   OH240010   4.311   4.498  11.050  0.0123 -0.3420 -0.3302
 5272TIP3    H140011   4.390   4.456  11.086 -1.6853 -2.2106  1.4569
 5272TIP3    H240012   4.331   4.591  11.054  1.1147 -0.5786  2.8457
 5273TIP3   OH240013   0.475   0.393   9.205 -0.5128 -0.3152 -0.0906
 5273TIP3    H140014   0.539   0.457   9.173  0.0256 -1.1794 -0.8016
 5273TIP3    H240015   0.393   0.441   9.210  0.4336  1.1958  2.1653
 5274TIP3   OH240016   5.498   9.059   9.315  0.1974  0.5278 -0.3905
 5274TIP3    H140017   5.571   8.998   9.322  1.3352  1.6091 -1.9718
 5274TIP3    H240018   5.480   9.087   9.405  1.9836  0.4940  0.0112
 5275TIP3   OH240019   8.538   5.754  11.047 -0.1562  0.2508  0.4871
 5275TIP3    H140020   8.508   5.798  10.968  0.5923 -0.2566 -0.0920
 5275TIP3    H240021   8.630   5.734  11.030 -0.4602 -1.5169  0.7278
 5276TIP3   OH240022   3.268   2.700  11.378 -0.0816 -0.3781  0.0513
 5276TIP3    H140023   3.249   2.621  11.327  0.3942 -0.7604  0.4545
 5276TIP3    H240024   3.363   2.699  11.389  0.2513  1.5915 -2.0753
 5277TIP3   OH240025   4.545   3.192  11.372  0.1408  0.3720 -0.1783
 5277TIP3    H140026   4.498   3.150  11.444 -0.6792  0.9157 -0.3754
 5277TIP3    H240027   4.638   3.183  11.395 -0.0869 -0.0121  0.6264
 5278TIP3   OH240028   1.697   6.048  10.293  0.3145  0.6361  0.1462
 5278TIP3    H140029   1.661   6.038  10.205 -0.4537  0.4545  0.4730
 5278TIP3    H240030   1.786   6.081  10.279  1.0853 -1.5867 -0.8210
 5279TIP3   OH240031   7.192   1.244   9.082 -0.6656  0.9386 -0.6459
 5279TIP3    H140032   7.255   1.174   9.063 -0.5160  0.6051  0.9399
 5279TIP3    H240033   7.108   1.211   9.050 -0.2042  1.0272 -2.0043
 5280TIP3   OH240034   0.819   0.919   9.617  0.2276  0.4449  0.6383
 5280TIP3    H140035   0.876   0.947   9.545 -0.8241 -1.2075 -0.9293
 5280TIP3    H240036   0.880   0.889   9.685  1.3345 -1.7394 -1.1756
 5281TIP3   OH240037   1.918   0.816  10.113 -0.6319 -0.3966 -0.4193
 5281TIP3    H140038   1.911   0.888  10.051 -1.5106 -0.0764  0.0314
 5281TIP3    H240039   2.011   0.812  10.136 -0.4815  0.1822 -0.9148
 5282TIP3   OH240040   9.115   8.966  10.551  0.4167 -0.2873  0.0204
 5282TIP3    H140041   9.071   9.040  10.509  0.5245 -0.7154 -0.8672
 5282TIP3    H240042   9.048   8.928  10.608  0.8250  1.4406  1.7419
 5283TIP3   OH240043   5.887   0.258  10.459  0.1126  0.3698  0.1273
 5283TIP3    H140044   5.803   0.256  10.413  0.5377 -4.0399 -0.9720
 5283TIP3    H240045   5.865   0.281  10.549 -1.8328  1.8467 -0.6603
 5284TIP3   OH240046   4.579   8.701  10.555  0.1756  0.2495 -0.5214
 5284TIP3    H140047   4.559   8.791  10.529  0.2035  1.0931  2.0878
 5284TIP3    H240048   4.673   8.701  10.572  0.5333 -0.8099 -2.2757
 5285TIP3   OH240049   0.397   7.744  10.506  0.8465 -0.5840 -0.2461
 5285TIP3    H140050   0.327   7.680  10.495  0.7619 -0.4368 -0.6038
 5285TIP3    H240051   0.351   7.828  10.516  0.9755 -0.3548 -1.4010
 5286TIP3   OH240052   4.712   2.096  10.735 -0.5684  0.0762 -0.2837
 5286TIP3    H140053   4.736   2.005  10.753 -2.2567 -0.2360  0.5603
 5286TIP3    H240054   4.697   2.135  10.821 -0.8314  0.8868 -0.6809
 5287TIP3   OH240055   6.710   7.244   9.430 -0.7280 -0.4767  0.2765
 5287TIP3    H140056   6.804   7.261   9.427 -0.3721 -2.2646 -0.0974
 5287TIP3    H240057   6.672   7.324   9.465  0.7494  0.9159 -1.1570
 5288TIP3   OH240058   3.455   2.347  10.998  0.1360  0.1094  0.5116
 5288TIP3    H140059   3.422   2.264  10.965 -0.5617  0.3688  0.5230
 5288TIP3    H240060   3.440   2.409  10.927 -2.8176  1.0060  1.7536
 5289TIP3   OH240061   4.407   6.841  10.404  0.2015 -0.3406  0.2431
 5289TIP3    H140062   4.457   6.785  10.344  0.8339  0.0642  0.3822
 5289TIP3    H240063   4.370   6.909  10.348 -1.8213 -1.6817 -0.1823
 5290TIP3   OH240064   1.398   2.405   9.283  0.0754  0.2670  0.1522
 5290TIP3    H140065   1.302   2.409   9.283  0.0807  0.4254  0.7432
 5290TIP3    H240066   1.418   2.313   9.263 -0.1781  0.4607 -1.0946
 5291TIP3   OH240067   3.415   8.060   9.145 -0.7195 -0.1917 -0.2283
 5291TIP3    H140068   3.333   8.045   9.099 -1.8796 -0.5907  1.8546
 5291TIP3    H240069   3.390   8.071   9.237  1.3109  2.0721  0.1805
 5292TIP3   OH240070   3.125   5.976  10.935  0.2207 -0.1262 -0.3111
 5292TIP3    H140071   3.216   5.952  10.954  0.4800 -0.1802 -1.5464
 5292TIP3    H240072   3.081   5.892  10.919  0.0460 -0.0708 -0.1313
 5293TIP3   OH240073   8.049   3.491  10.752 -0.3976 -0.0614  0.4096
 5293TIP3    H140074   8.095   3.485  10.668 -1.9845  1.8771 -0.6966
 5293TIP3    H240075   7.998   3.410  10.757  0.5282 -0.6840  0.0382
 5294TIP3   OH240076   5.701   0.080  10.799 -0.3824  0.4129 -0.4234
 5294TIP3    H140077   5.652  -0.001  10.807  1.6876 -0.8887 -0.0335
 5294TIP3    H240078   5.766   0.062  10.730  0.6302  1.4212  0.2203
 5295TIP3   OH240079   2.763   1.955  10.359 -0.3040 -0.4923  0.0071
 5295TIP3    H140080   2.839   1.941  10.416 -1.2029 -0.3103  1.3184
 5295TIP3    H240081   2.800   1.981  10.275  1.0713  0.0404  0.7444
 5296TIP3   OH240082   4.861   0.782  10.711  0.1769 -0.3930  0.8092
 5296TIP3    H140083   4.790   0.788  10.647  0.6820 -0.2196  0.2515
 5296TIP3    H240084   4.940   0.774  10.658  0.8465  1.9532  1.3172
 5297TIP3   OH240085   8.509   3.763   9.735 -0.0074  0.2721  0.3995
 5297TIP3    H140086   8.482   3.678   9.700 -0.4856  0.1106  1.1260
 5297TIP3    H240087   8.573   3.741   9.803 -1.0188  0.4093  1.4155
 5298TIP3   OH240088   0.751   9.189  10.808 -0.2960  0.4682 -0.2022
 5298TIP3    H140089   0.735   9.200  10.715 -3.2104  0.3724  0.2058
 5298TIP3    H240090   0.834   9.235  10.824  0.7113 -0.2340 -2.9246
 5299TIP3   OH240091   2.615   4.908  11.069  0.0070 -0.1313  0.1331
 5299TIP3    H140092   2.579   4.984  11.024  0.6498 -1.6050 -3.1525
 5299TIP3    H240093   2.710   4.919  11.061  0.1386 -0.5141  1.0619
 5300TIP3   OH240094   4.142   3.263  10.004 -0.1566 -0.5188 -0.2345
 5300TIP3    H140095   4.117   3.184  10.051  2.5721 -1.0151  0.5425
 5300TIP3    H240096   4.060   3.298   9.970 -2.1605 -0.9320  3.6212
 5301TIP3   OH240097   3.784   6.897  10.702  0.0566  0.7309 -0.1052
 5301TIP3    H140098   3.767   6.989  10.682 -0.2777  0.7030  0.0472
 5301TIP3    H240099   3.845   6.868  10.634  1.8331  1.6393  1.0345
 5302TIP3   OH240100   8.401   3.158  10.917 -0.4261 -0.1401  0.3846
 5302TIP3    H140101   8.402   3.073  10.961  1.1270 -0.3375  0.0362
 5302TIP3    H240102   8.314   3.194  10.936  0.2861  0.0718  4.1592
 5303TIP3   OH240103   8.101   4.503  10.527  0.7688  0.3063 -0.2270
 5303TIP3    H140104   8.023   4.449  10.526  0.7386  0.3209 -1.8506
 5303TIP3    H240105   8.106   4.538  10.616 -1.8271  1.4103 -0.4530
 5304TIP3   OH240106   6.128   5.302  10.885 -0.1778  0.1160 -0.6585
 5304TIP3    H140107   6.075   5.223  10.886 -0.5770  0.3732  0.9579
 5304TIP3    H240108   6.070   5.370  10.852  0.1378 -0.2243 -1.9581
 5305TIP3   OH240109   6.859   4.923  10.155 -0.2611  0.0411  0.0797
 5305TIP3    H140110   6.856   4.837  10.198 -0.9958  0.9595  1.9774
 5305TIP3    H240111   6.928   4.970  10.202 -0.4966  0.8112 -0.3418
 5306TIP3   OH240112   1.640   6.801  10.192  0.2823  0.0505  0.0964
 5306TIP3    H140113   1.716   6.823  10.138  1.3630  1.7626  2.1576
 5306TIP3    H240114   1.586   6.880  10.190 -1.0968 -0.8815 -0.7107
 5307TIP3   OH240115   8.261   7.446   9.940 -0.0415  0.7741 -0.7369
 5307TIP3    H140116   8.250   7.500   9.862 -0.7441  0.1915 -1.0548
 5307TIP3    H240117   8.347   7.405   9.929 -1.1069 -1.2205 -2.4664
 5308TIP3   OH240118   3.809   4.092   9.107 -0.0952  0.5136  0.0293
 5308TIP3    H140119   3.773   4.017   9.059  1.1764  0.6569 -1.1909
 5308TIP3    H240120   3.859   4.141   9.042  1.0074  1.1727  1.3249
 5309TIP3   OH240121   0.186   5.531  10.870  0.5224 -0.5165 -0.3700
 5309TIP3    H140122   0.179   5.452  10.923 -0.4395 -2.3273 -3.0019
 5309TIP3    H240123   0.261   5.515  10.813  0.8181  0.8462 -0.3857
 5310TIP3   OH240124   7.679   0.191   9.311 -0.1210  0.2872  0.2936
 5310TIP3    H140125   7.751   0.228   9.261 -0.1979  0.6763  0.4687
 5310TIP3    H240126   7.607   0.184   9.248 -0.5039  1.6285  0.5564
 5311TIP3   OH240127   7.857   6.099   9.741  0.1808 -0.2165  0.7362
 5311TIP3    H140128   7.941   6.133   9.772  2.1027 -3.0954 -0.8161
 5311TIP3    H240129   7.838   6.148   9.661  0.9740 -0.2933  0.4956
 5312TIP3   OH240130   0.632   1.814  10.694 -0.2041 -0.5127 -0.0838
 5312TIP3    H140131   0.554   1.785  10.647 -0.0560  1.4906 -1.7210
 5312TIP3    H240132   0.609   1.808  10.786 -2.7933  1.2232 -0.5270
 5313TIP3   OH240133   0.644   7.408   9.220 -0.5392  0.4873  0.1991
 5313TIP3    H140134   0.598   7.339   9.173  0.0756 -1.4975  2.3004
 5313TIP3    H240135   0.628   7.488   9.169 -4.6976 -0.3680 -0.2172
 5314TIP3   OH240136   4.136   1.974  10.723  0.0114 -0.2067 -0.2367
 5314TIP3    H140137   4.116   2.013  10.808  0.9267  2.0363 -0.9844
 5314TIP3    H240138   4.179   1.891  10.743 -1.5764 -0.6857  1.4277
 5315TIP3   OH240139   4.952   6.271  10.268  0.0073 -0.0955 -0.4275
 5315TIP3    H140140   4.983   6.263  10.358 -2.0275  0.8570  0.3960
 5315TIP3    H240141   4.908   6.188  10.251  3.2279 -1.7258 -1.8228
 5316TIP3   OH240142   0.758   5.001  10.603  0.0378  0.1049 -0.0495
 5316TIP3    H140143   0.695   5.006  10.531 -2.1214 -1.2798  1.6342
 5316TIP3    H240144   0.804   4.918  10.589 -0.9597 -0.5723  0.5628
 5317TIP3   OH240145   6.990   6.603  10.026 -0.0324  0.1178  0.1860
 5317TIP3    H140146   7.029   6.620  10.111 -1.6598 -0.4306  1.0928
 5317TIP3    H240147   6.933   6.678  10.010 -1.6908 -0.9409  0.8237
 5318TIP3   OH240148   5.982   5.163  10.434  0.4371  0.3800 -0.2509
 5318TIP3    H140149   5.967   5.137  10.343  1.4380 -1.3212  0.0121
 5318TIP3    H240150   5.908   5.218  10.457 -1.1282 -1.1676 -1.3625
 5319TIP3   OH240151   2.174   5.632  10.190  0.4384 -0.1930 -0.0086
 5319TIP3    H140152   2.176   5.727  10.186 -0.4204 -0.0093  2.3192
 5319TIP3    H240153   2.156   5.604  10.100  1.9016  1.7470 -0.9637
 5320TIP3   OH240154   6.923   0.983  10.979 -0.4694  0.3705  0.7218
 5320TIP3    H140155   6.874   0.988  10.897 -1.4644 -1.3867  1.1568
 5320TIP3    H240156   6.980   0.907  10.969  0.7236  1.1922  1.0079
 5321TIP3   OH240157   5.328   2.669  10.700 -0.2955  0.7972  0.3174
 5321TIP3    H140158   5.330   2.672  10.604  0.0577  0.4651  0.3088
 5321TIP3    H240159   5.348   2.758  10.728  1.5919  0.4884  0.0899
 5322TIP3   OH240160   7.231   8.793  10.147 -0.2738  0.4274 -0.4542
 5322TIP3    H140161   7.184   8.722  10.102  1.6535 -0.5230 -1.0428
 5322TIP3    H240162   7.322   8.782  10.122  0.4250  1.7419  1.3049
 5323TIP3   OH240163   7.914   3.262  10.786  0.3279 -0.0547 -0.5135
 5323TIP3    H140164   7.833   3.275  10.837 -0.2786 -0.8394 -1.2516
 5323TIP3    H240165   7.891   3.195  10.722  1.9390 -1.1918  0.0626
 5324TIP3   OH240166   3.071   4.067   9.796 -0.2128 -0.3866 -0.0199
 5324TIP3    H140167   3.123   4.119   9.735 -0.9911 -1.3644 -1.5928
 5324TIP3    H240168   3.123   3.988   9.811 -0.4430 -0.5755 -0.1973
 5325TIP3   OH240169   4.906   5.300  10.636  0.2230  0.0091  0.0066
 5325TIP3    H140170   4.860   5.302  10.552 -1.3953  0.4533  0.8584
 5325TIP3    H240171   4.885   5.215  10.673 -2.2840  1.2043  1.5953
 5326TIP3   OH240172   1.764   3.486  10.442 -0.9162  0.6968 -0.4256
 5326TIP3    H140173   1.843   3.438  10.467 -1.5354  0.2061  0.6763
 5326TIP3    H240174   1.724   3.431  10.375 -1.3393 -0.0886  0.4455
 5327TIP3   OH240175   3.645   2.240   8.952 -0.0447  0.5808 -0.2858
 5327TIP3    H140176   3.551   2.245   8.934 -1.0312  0.7974  3.9223
 5327TIP3    H240177   3.651   2.234   9.047  4.2333 -0.3534 -0.4199
 5328TIP3   OH240178   7.280   2.462   9.956 -0.5637  0.0809 -0.0970
 5328TIP3    H140179   7.357   2.478  10.012  0.1351  0.7860 -1.2218
 5328TIP3    H240180   7.230   2.395  10.003  0.2995  0.2239  1.0793
 5329TIP3   OH240181   2.219   8.208  10.148 -0.3795  0.0240  0.1390
 5329TIP3    H140182   2.218   8.253  10.232  2.4379 -0.7869  0.7172
 5329TIP3    H240183   2.238   8.276  10.083  0.5178  0.1964  0.5762
 5330TIP3   OH240184   6.268   6.708  10.152 -0.2302  0.0127 -0.1125
 5330TIP3    H140185   6.363   6.717  10.162 -0.3354  0.9270  0.1977
 5330TIP3    H240186   6.252   6.727  10.060 -0.1971  0.7950  0.0324
 5331TIP3   OH240187   7.874   3.847  10.183  0.3615  0.1317  0.5119
 5331TIP3    H140188   7.827   3.930  10.174 -1.9744 -1.0781  0.8821
 5331TIP3    H240189   7.917   3.853  10.268 -1.5849  0.1379  1.5268
 5332TIP3   OH240190   1.435   0.947   9.405  0.1248  0.4585  0.4992
 5332TIP3    H140191   1.506   0.903   9.357 -0.7040  0.2998 -0.6273
 5332TIP3    H240192   1.464   1.038   9.413 -0.2065  0.7616 -1.3505
 5333TIP3   OH240193   5.716   6.392  10.801  0.6367  0.4331 -0.4787
 5333TIP3    H140194   5.792   6.343  10.771  1.7505 -0.6053  3.4302
 5333TIP3    H240195   5.670   6.332  10.860 -1.1107  2.2831  0.1671
 5334TIP3   OH240196   4.555   5.625  11.252 -0.3099 -0.3628 -0.4161
 5334TIP3    H140197   4.579   5.708  11.212  0.0318 -0.0478  0.4210
 5334TIP3    H240198   4.461   5.616  11.234 -0.3644  0.2432 -0.4401
 5335TIP3   OH240199   8.245   7.023   9.241  0.1201  0.0435 -0.2075
 5335TIP3    H140200   8.295   7.025   9.323 -0.9618  0.9111  0.4602
 5335TIP3    H240201   8.246   6.931   9.214 -1.3177 -0.6869  1.9542
 5336TIP3   OH240202   5.452   5.651  10.989 -0.5092  0.1876  0.2393
 5336TIP3    H140203   5.432   5.633  11.081 -0.1109  1.4239  0.5944
 5336TIP3    H240204   5.372   5.627  10.942 -0.7403 -0.4014  0.9061
 5337TIP3   OH240205   0.952   7.117  10.871 -0.3076 -0.8196  0.8437
 5337TIP3    H140206   1.000   7.065  10.935 -0.5202  0.8072  2.4028
 5337TIP3    H240207   0.934   7.200  10.915 -3.7827 -1.0018  0.0660
 5338TIP3   OH240208   5.920   5.575   9.642  0.2030 -0.1487  0.0852
 5338TIP3    H140209   5.918   5.485   9.674 -0.2182 -0.5901 -1.1524
 5338TIP3    H240210   5.943   5.568   9.550  0.0443  1.0097 -0.0640
 5339TIP3   OH240211   4.677   4.353  10.112 -0.0025  0.7064 -0.4581
 5339TIP3    H140212   4.602   4.403  10.143  0.5536  0.6239  1.1254
 5339TIP3    H240213   4.742   4.420  10.088 -0.4953  0.7740 -1.6858
 5340TIP3   OH240214   6.476   6.715  10.531 -0.7746 -0.0085  0.5624
 5340TIP3    H140215   6.433   6.797  10.505 -1.3277 -0.3120  0.5097
 5340TIP3    H240216   6.568   6.739  10.542 -0.7999  0.4653 -0.1743
 5341TIP3   OH240217   4.937   5.925  10.650 -0.2849 -0.2954  0.2217
 5341TIP3    H140218   5.022   5.922  10.692 -1.1508 -2.1338  2.0433
 5341TIP3    H240219   4.929   5.840  10.606 -2.4628 -1.7793  3.0941
 5342TIP3   OH240220   7.347   0.180  10.285 -0.0077 -0.3407  0.6932
 5342TIP3    H140221   7.439   0.196  10.307 -0.1930  2.6529 -0.2508
 5342TIP3    H240222   7.342   0.200  10.191 -1.6369 -0.4405  0.7416
 5343TIP3   OH240223   7.933   2.144   9.407  0.3096  0.1335 -0.1272
 5343TIP3    H140224   7.918   2.224   9.458  2.0723  0.7374 -0.4698
 5343TIP3    H240225   7.967   2.176   9.323  2.4201 -0.9649  0.2407
 5344TIP3   OH240226   5.073   8.325   9.330 -0.4392  0.0366  0.4034
 5344TIP3    H140227   5.014   8.305   9.258  0.4237 -3.2963  0.4624
 5344TIP3    H240228   5.126   8.398   9.298 -0.6557 -0.7852 -1.9976
 5345TIP3   OH240229   3.258   6.515  10.016 -0.1246  0.4576  0.2447
 5345TIP3    H140230   3.198   6.479   9.951 -1.3852  0.5683  1.3128
 5345TIP3    H240231   3.295   6.438  10.060 -0.3680  0.4043  0.3579
 5346TIP3   OH240232   4.887   0.847   9.277 -0.0623  0.0181  0.2812
 5346TIP3    H140233   4.836   0.902   9.218 -0.3734  2.0725  2.3241
 5346TIP3    H240234   4.822   0.806   9.334  0.3783  0.7630  1.3614
 5347TIP3   OH240235   7.052   4.974   9.970 -0.0697 -0.4589  0.1978
 5347TIP3    H140236   6.996   4.927  10.032  1.5377  0.9859  2.9398
 5347TIP3    H240237   7.131   4.996  10.020  1.7190  0.1616 -2.6177
 5348TIP3   OH240238   8.704   7.612  10.787 -0.1628  0.1354  0.0908
 5348TIP3    H140239   8.745   7.677  10.845 -0.0401 -1.5792  2.0589
 5348TIP3    H240240   8.778   7.562  10.753 -0.3215  0.3765 -0.6195
 5349TIP3   OH240241   8.538   8.921   9.844 -1.3605  0.1139  0.0203
 5349TIP3    H140242   8.581   8.917   9.930  0.9103 -1.9719 -1.0854
 5349TIP3    H240243   8.457   8.871   9.856 -1.2321  0.1150  1.0134
 5350TIP3   OH240244   3.256   5.628  10.184 -0.3661  0.1740  0.0444
 5350TIP3    H140245   3.225   5.538  10.179 -1.5497  0.5521  0.2463
 5350TIP3    H240246   3.349   5.621  10.201 -0.4061 -1.0109 -0.1783
 5351TIP3   OH240247   0.192   6.205  10.724  0.2584 -0.3915 -0.7000
 5351TIP3    H140248   0.238   6.289  10.712  0.4290  0.1098  2.6681
 5351TIP3    H240249   0.226   6.170  10.806 -3.4158 -1.2521  0.6647
 5352TIP3   OH240250   8.681   2.631  10.388  0.2194 -0.2790 -0.1754
 5352TIP3    H140251   8.736   2.593  10.456 -1.6419 -3.0042 -0.0297
 5352TIP3    H240252   8.595   2.640  10.429 -0.7364 -1.1694 -1.8548
 5353TIP3   OH240253   1.296   4.381  10.509 -0.3298 -0.2374 -0.0063
 5353TIP3    H140254   1.256   4.327  10.441 -0.9672  1.8803 -1.4188
 5353TIP3    H240255   1.243   4.461  10.511  1.1222  0.7670  1.3120
 5354TIP3   OH240256   7.024   5.727   9.608  0.0624  0.2610 -0.2801
 5354TIP3    H140257   6.945   5.718   9.555  1.0020  1.7610 -2.0739
 5354TIP3    H240258   7.016   5.813   9.648  0.5111  0.1712  0.0070
 5355TIP3   OH240259   0.527   3.598  10.335  0.1607 -0.3048  0.4054
 5355TIP3    H140260   0.488   3.640  10.412  0.7823  1.8064 -0.3527
 5355TIP3    H240261   0.609   3.561  10.368 -0.8813 -1.9326  1.3136
 5356TIP3   OH240262   2.782   0.924   9.612 -0.0352  0.1584  0.6034
 5356TIP3    H140263   2.707   0.887   9.659  0.0862  0.0759  0.7356
 5356TIP3    H240264   2.752   0.936   9.522  0.0781 -0.7327  0.4389
 5357TIP3   OH240265   7.570   4.523   9.701  0.2488 -0.1903  0.0570
 5357TIP3    H140266   7.660   4.511   9.670  0.1875 -2.2759  0.5267
 5357TIP3    H240267   7.579   4.533   9.796  0.0508  1.0749 -0.0304
 5358TIP3   OH240268   7.806   1.072  10.730  0.4532 -0.1342 -0.1231
 5358TIP3    H140269   7.780   1.008  10.795  0.8248 -0.7085 -0.5342
 5358TIP3    H240270   7.900   1.059  10.720  0.4815  0.2804 -0.4220
 5359TIP3   OH240271   3.838   2.414   9.771  0.0733 -0.1507 -0.6416
 5359TIP3    H140272   3.782   2.462   9.832  0.0168  0.4340 -1.1365
 5359TIP3    H240273   3.778   2.383   9.703  0.0524 -1.2701 -0.1255
 5360TIP3   OH240274   7.432   4.320   9.783 -0.7861 -0.3599  0.3974
 5360TIP3    H140275   7.477   4.378   9.722  0.3037 -2.3443 -0.8096
 5360TIP3    H240276   7.469   4.340   9.869 -1.3038  1.4821  0.2364
 5361TIP3   OH240277   1.442   3.318  10.409  0.0089 -0.5390 -0.0326
 5361TIP3    H140278   1.403   3.308  10.322  0.0549 -0.9902 -0.0021
 5361TIP3    H240279   1.436   3.412  10.427  0.0493 -0.4361 -0.5449
 5362TIP3   OH240280   4.911   4.036  10.686  0.2495  0.1204 -0.3749
 5362TIP3    H140281   4.930   4.073  10.600 -0.0355  2.0616  0.3674
 5362TIP3    H240282   4.818   4.053  10.700 -0.3179 -2.2923 -0.6183
 5363TIP3   OH240283   0.533   4.058   9.832  0.3598  0.2598 -0.2128
 5363TIP3    H140284   0.538   4.029   9.741 -0.6345 -2.0625  0.3868
 5363TIP3    H240285   0.623   4.054   9.863  0.3342 -2.4292 -0.2004
 5364TIP3   OH240286   6.241   9.029  11.005  0.5023  0.0136  0.5219
 5364TIP3    H140287   6.287   8.946  10.989 -0.4877 -0.5668  0.6249
 5364TIP3    H240288   6.310   9.089  11.034  1.1946 -0.8408  0.6778
 5365TIP3   OH240289   8.993   3.017   9.034 -0.4047 -0.1395 -0.0883
 5365TIP3    H140290   9.022   2.983   9.118 -1.0674 -0.1986  0.1175
 5365TIP3    H240291   9.023   3.108   9.033 -0.7606 -0.0166  0.3823
 5366TIP3   OH240292   6.326   7.997   9.443 -0.1617  0.4126 -0.3484
 5366TIP3    H140293   6.239   7.964   9.422  0.2054 -0.7956 -0.0917
 5366TIP3    H240294   6.376   7.918   9.466  1.1237  1.0253 -0.9623
 5367TIP3   OH240295   5.018   3.591  10.830  0.5220  0.0092 -0.6139
 5367TIP3    H140296   4.936   3.593  10.781 -1.1170  0.3739  1.9841
 5367TIP3    H240297   5.042   3.683  10.842 -0.8843  0.1134  1.9670
 5368TIP3   OH240298   7.014   7.067  10.774  0.2169 -0.3338  0.4292
 5368TIP3    H140299   6.925   7.091  10.799  0.0776  0.6160 -0.8704
 5368TIP3    H240300   7.058   7.150  10.755  0.6997 -0.8828 -1.0414
 5369TIP3   OH240301   8.523   2.248   9.104 -0.3011  0.3713 -0.0412
 5369TIP3    H140302   8.599   2.277   9.055 -0.1931  2.1611  1.0899
 5369TIP3    H240303   8.545   2.159   9.132  1.3627  0.8385  0.2423
 5370TIP3   OH240304   7.812   6.176  10.659 -0.1929  0.1064  0.1357
 5370TIP3    H140305   7.866   6.191  10.582 -0.7648  0.2644 -0.2409
 5370TIP3    H240306   7.873   6.177  10.732  0.0067  2.9043  0.0200
 5371TIP3   OH240307   2.217   6.811  10.515 -0.3832 -0.1267 -0.2898
 5371TIP3    H140308   2.298   6.855  10.490 -1.9329  2.3224 -1.4536
 5371TIP3    H240309   2.162   6.881  10.552 -2.6541 -1.2084 -1.3732
 5372TIP3   OH240310   8.094   1.628  10.347 -0.1591  0.8062  0.7019
 5372TIP3    H140311   8.042   1.571  10.290  0.8364  1.2004 -0.6240
 5372TIP3    H240312   8.144   1.568  10.402  0.3449  0.3953 -0.1931
 5373TIP3   OH240313   4.033   8.147  10.843  0.3409 -0.9270  0.0648
 5373TIP3    H140314   4.008   8.129  10.753 -0.3989  0.7847 -0.1196
 5373TIP3    H240315   4.102   8.213  10.836  0.2566 -0.7564  0.7406
 5374TIP3   OH240316   1.427   8.866  10.159 -0.3223 -0.2987  0.1800
 5374TIP3    H140317   1.484   8.935  10.194 -1.6064  2.0680 -2.0329
 5374TIP3    H240318   1.343   8.909  10.145 -1.9615 -3.0292  0.9942
 5375TIP3   OH240319   1.715   5.648   9.632 -0.3564  0.3519  0.0914
 5375TIP3    H140320   1.797   5.688   9.604 -0.5628  1.1445  0.5765
 5375TIP3    H240321   1.736   5.555   9.644  0.2577  0.4023 -0.5749
 5376TIP3   OH240322   6.368   1.156  10.800  0.0155 -0.3133 -0.2216
 5376TIP3    H140323   6.412   1.240  10.789  1.2164 -0.9925 -0.8082
 5376TIP3    H240324   6.276   1.174  10.780  0.6227  0.3922 -2.7765
 5377TIP3   OH240325   7.915   5.865   9.387 -0.4752 -0.2151  0.2916
 5377TIP3    H140326   7.922   5.771   9.378  0.4085 -0.1705  0.3938
 5377TIP3    H240327   7.935   5.881   9.480  1.3402  0.2213 -0.1390
 5378TIP3   OH240328   5.492   3.626   9.980 -0.4747  0.4669  0.5160
 5378TIP3    H140329   5.402   3.644  10.007 -0.9836 -0.0534 -0.7697
 5378TIP3    H240330   5.512   3.540  10.016 -0.2842  0.8115  1.2604
 5379TIP3   OH240331   8.246   0.981  10.178 -0.1513  0.0799  0.4259
 5379TIP3    H140332   8.320   1.007  10.233 -0.4685 -0.5664  1.1825
 5379TIP3    H240333   8.266   0.892  10.151  0.2326  0.5621 -0.9308
 5380TIP3   OH240334   8.805   3.111  11.238  0.1325  0.7431  0.6971
 5380TIP3    H140335   8.773   3.094  11.150 -1.6859  1.5533  1.1716
 5380TIP3    H240336   8.901   3.114  11.228 -0.0729  3.4094 -1.7493
 5381TIP3   OH240337   8.698   2.978  10.697  0.5168  0.2278 -1.1482
 5381TIP3    H140338   8.751   2.903  10.722 -3.1281 -1.9439  0.9330
 5381TIP3    H240339   8.721   3.046  10.760 -0.1020 -1.1684  0.6660
 5382TIP3   OH240340   2.622   4.147  10.448 -0.2812  0.1815 -0.0532
 5382TIP3    H140341   2.631   4.126  10.355 -1.4699 -0.2733 -0.0859
 5382TIP3    H240342   2.648   4.238  10.455  0.9451 -0.1038 -0.6245
 5383TIP3   OH240343   6.306   5.138  11.422  0.5862  0.3308  0.6524
 5383TIP3    H140344   6.334   5.077  11.355  1.8758 -0.8829  2.2133
 5383TIP3    H240345   6.380   5.199  11.432  0.8859 -0.1736  1.6969
 5384TIP3   OH240346   4.301   1.863  10.310  0.4731 -0.1310  0.5360
 5384TIP3    H140347   4.348   1.875  10.393  0.1224 -0.1633  0.7417
 5384TIP3    H240348   4.350   1.916  10.247 -0.4645  1.6054  1.2112
 5385TIP3   OH240349   3.226   6.715  10.319 -0.2637  0.6369 -0.2778
 5385TIP3    H140350   3.182   6.798  10.337 -1.2277  0.6436 -2.4004
 5385TIP3    H240351   3.233   6.712  10.224  1.9575 -0.6268 -0.1420
 5386TIP3   OH240352   7.905   4.867  11.326 -0.1309 -0.2960  0.0257
 5386TIP3    H140353   7.986   4.826  11.295 -0.6052  0.7643 -2.9272
 5386TIP3    H240354   7.839   4.797  11.320 -0.6069  0.2381 -3.5203
 5387TIP3   OH240355   8.752   8.009  10.160 -0.2310  0.5856  0.2410
 5387TIP3    H140356   8.827   8.015  10.218 -1.2908 -0.9603  1.8926
 5387TIP3    H240357   8.706   7.930  10.188 -2.6554  1.6388 -0.4702
 5388TIP3   OH240358   0.576   0.465  10.573 -0.1622  0.6031  0.3552
 5388TIP3    H140359   0.620   0.525  10.634  0.3071  0.0162  0.6080
 5388TIP3    H240360   0.638   0.394  10.562 -0.6103  0.2869 -0.1445
 5389TIP3   OH240361   6.638   6.876   9.825  0.2324  0.0907 -0.3182
 5389TIP3    H140362   6.591   6.810   9.875  2.2259 -1.2875 -0.1478
 5389TIP3    H240363   6.670   6.938   9.890 -0.4456  0.4706 -0.3337
 5390TIP3   OH240364   0.026   8.668  10.828 -0.0127 -0.3942 -0.7896
 5390TIP3    H140365   0.027   8.631  10.739 -0.4350 -2.0681 -0.1440
 5390TIP3    H240366   0.109   8.641  10.866  0.0422  0.0815 -0.5635
 5391TIP3   OH240367   5.293   4.016   5.461  0.0252  0.1606  0.2511
 5391TIP3    H140368   5.295   4.111   5.453  0.1323  0.1432  0.0607
 5391TIP3    H240369   5.200   3.993   5.457  0.0602  0.1694 -0.7607
 5392TIP3   OH240370   0.499   3.804   5.061 -0.2497 -0.1752 -0.0758
 5392TIP3    H140371   0.475   3.781   5.151  0.9169  1.4881  0.7164
 5392TIP3    H240372   0.585   3.766   5.049 -0.2444 -0.0795 -0.3432
 5393TIP3   OH240373   4.967   4.839   5.200 -0.0488 -0.4345 -0.0973
 5393TIP3    H140374   4.906   4.909   5.223  1.7917  1.0919  0.3989
 5393TIP3    H240375   4.911   4.768   5.170 -2.0759  0.7699  0.5964
 5394TIP3   OH240376   2.860   6.337   6.018 -0.2240  0.5828 -0.2466
 5394TIP3    H140377   2.791   6.395   6.049 -1.9883 -1.9373  0.8183
 5394TIP3    H240378   2.913   6.319   6.096 -0.2578  0.0394 -0.3441
 5395TIP3   OH240379   0.947   1.796   4.942  0.1994  0.3656  0.0026
 5395TIP3    H140380   1.040   1.804   4.960  0.3183  0.2591 -0.5425
 5395TIP3    H240381   0.917   1.725   4.998  0.8245 -0.8343 -1.1293
 5396TIP3   OH240382   0.120   8.869   6.382  0.1344 -0.0238 -0.0386
 5396TIP3    H140383   0.036   8.915   6.370 -0.9271 -1.6682  0.7161
 5396TIP3    H240384   0.185   8.927   6.343 -1.2243  1.7723  0.2487
 5397TIP3   OH240385   4.104   8.290   5.059  0.3842 -0.4427  0.0987
 5397TIP3    H140386   4.198   8.288   5.077  0.4177  2.1004  0.5770
 5397TIP3    H240387   4.079   8.381   5.074 -2.2497 -1.1376  0.3515
 5398TIP3   OH240388   7.043   9.096   6.494  0.0643 -0.0814  0.2699
 5398TIP3    H140389   6.999   9.102   6.579 -0.8532 -0.8417 -0.1327
 5398TIP3    H240390   7.130   9.063   6.514 -0.0467  0.0204  0.9425
 5399TIP3   OH240391   4.454   7.762   5.851 -0.1494 -0.5020  0.0814
 5399TIP3    H140392   4.482   7.849   5.824 -1.6353 -0.1347 -0.3902
 5399TIP3    H240393   4.533   7.721   5.886  0.5457  1.0806  0.4617
 5400TIP3   OH240394   8.660   0.442   6.971 -0.2366  0.4392 -0.1153
 5400TIP3    H140395   8.675   0.348   6.957  0.0050  0.4911 -0.2076
 5400TIP3    H240396   8.572   0.457   6.939  0.9335  0.9561 -3.5059
 5401TIP3   OH240397   0.281   1.687   5.984 -0.5088  0.0654  0.2226
 5401TIP3    H140398   0.292   1.772   5.943  2.3176 -0.6336 -0.6543
 5401TIP3    H240399   0.354   1.680   6.046 -1.4200 -1.2287  1.2123
 5402TIP3   OH240400   1.765   4.937   6.117  0.2788 -0.1002  0.5757
 5402TIP3    H140401   1.676   4.913   6.145  0.2513  0.6608  1.1926
 5402TIP3    H240402   1.803   4.979   6.195 -0.0541  2.8005 -0.6884
 5403TIP3   OH240403   3.519   1.036   4.880 -0.0851 -0.3913 -0.4591
 5403TIP3    H140404   3.509   1.040   4.975 -0.9788  0.8282 -0.5866
 5403TIP3    H240405   3.614   1.036   4.865  0.0593 -0.5147  0.4159
 5404TIP3   OH240406   0.486   6.808   5.720  0.0271  0.3785 -0.0199
 5404TIP3    H140407   0.393   6.790   5.736 -0.1725  1.0017 -0.4459
 5404TIP3    H240408   0.503   6.770   5.633 -0.3526  2.0269 -0.8484
 5405TIP3   OH240409   6.899   0.102   6.632 -0.4763  0.3279  0.3931
 5405TIP3    H140410   6.990   0.122   6.612 -0.3576 -0.9771 -0.5507
 5405TIP3    H240411   6.902   0.058   6.717 -0.4340  1.6886  1.1240
 5406TIP3   OH240412   7.911   0.652   4.952  0.0173 -0.0004  0.0991
 5406TIP3    H140413   7.930   0.740   4.983  0.0994  0.2255 -0.5795
 5406TIP3    H240414   7.816   0.648   4.948  0.0320  0.6237 -1.4306
 5407TIP3   OH240415   5.112   0.295   5.425  0.2360 -0.0010  0.3759
 5407TIP3    H140416   5.156   0.261   5.347 -0.7924  0.7092 -0.5345
 5407TIP3    H240417   5.062   0.220   5.458  0.0675 -0.1002 -0.0932
 5408TIP3   OH240418   0.989   0.362   6.348  0.3177 -0.9850 -0.3639
 5408TIP3    H140419   0.918   0.323   6.296 -0.4754  1.3458 -1.1190
 5408TIP3    H240420   1.068   0.343   6.298  0.0754 -2.2397 -0.3172
 5409TIP3   OH240421   4.469   3.207   6.798  0.0266 -0.1913  0.0815
 5409TIP3    H140422   4.544   3.249   6.756  0.1354 -0.2525  0.2149
 5409TIP3    H240423   4.417   3.280   6.834 -0.3107 -0.1074 -0.5624
 5410TIP3   OH240424   3.443   4.687   5.553 -0.3446  0.6064  0.0027
 5410TIP3    H140425   3.486   4.609   5.587  0.0192  1.4257  1.4754
 5410TIP3    H240426   3.500   4.760   5.577  0.0693  1.2641 -2.5968
 5411TIP3   OH240427   3.283   3.209   5.161  0.2058 -0.1770  0.0481
 5411TIP3    H140428   3.347   3.268   5.122 -1.7330  1.7837 -0.3891
 5411TIP3    H240429   3.322   3.182   5.244  1.0206  2.1088  0.4906
 5412TIP3   OH240430   5.566   8.268   6.329  0.4436  0.4439 -0.6261
 5412TIP3    H140431   5.559   8.281   6.234 -0.8220 -2.1240 -0.9609
 5412TIP3    H240432   5.492   8.212   6.351  1.2478  0.2037  1.7340
 5413TIP3   OH240433   4.105   8.355   5.365  0.2551  0.1124 -0.3833
 5413TIP3    H140434   4.196   8.329   5.378  0.5297  1.0008 -0.4531
 5413TIP3    H240435   4.107   8.414   5.289 -0.2549  0.7340  0.0730
 5414TIP3   OH240436   4.249   8.761   5.351  0.0852 -0.1281  0.2504
 5414TIP3    H140437   4.183   8.700   5.383 -0.8049  0.1230 -1.0224
 5414TIP3    H240438   4.300   8.784   5.428 -0.0760 -1.8278  0.9187
 5415TIP3   OH240439   7.141   1.569   6.999  0.1921 -0.4877 -0.3079
 5415TIP3    H140440   7.136   1.484   6.956  3.4538 -0.4486 -1.0124
 5415TIP3    H240441   7.202   1.556   7.072 -0.2033  0.9712  0.3218
 5416TIP3   OH240442   4.421   7.581   6.893 -0.0275 -0.6690 -0.1582
 5416TIP3    H140443   4.384   7.560   6.807  1.0761  4.4877 -2.2970
 5416TIP3    H240444   4.508   7.541   6.893  0.3975  0.1509 -2.0358
 5417TIP3   OH240445   0.417   0.223   4.923  0.2554 -0.0248 -0.0708
 5417TIP3    H140446   0.326   0.248   4.938  0.4700  1.2501 -0.7100
 5417TIP3    H240447   0.424   0.134   4.956 -1.0919  0.0501  0.4606
 5418TIP3   OH240448   8.489   5.761   5.983 -0.1630  0.0104 -0.1430
 5418TIP3    H140449   8.542   5.748   5.905 -2.0636  0.7030 -1.6105
 5418TIP3    H240450   8.446   5.846   5.970 -2.2849 -0.8869  0.5632
 5419TIP3   OH240451   7.339   2.286   5.965  0.0432 -0.2766 -0.7162
 5419TIP3    H140452   7.295   2.367   5.939 -0.8720 -0.6299 -0.2807
 5419TIP3    H240453   7.405   2.314   6.029 -0.2364  0.1305 -0.6031
 5420TIP3   OH240454   0.792   1.985   4.830  0.5070  0.2512 -0.9232
 5420TIP3    H140455   0.853   1.915   4.849  0.7297  0.5369 -0.5563
 5420TIP3    H240456   0.722   1.974   4.895 -1.0556 -1.4889 -2.7948
 5421TIP3   OH240457   5.653   1.191   6.251 -0.1481  0.4137  0.1537
 5421TIP3    H140458   5.622   1.164   6.165  0.8746  0.0710 -0.1283
 5421TIP3    H240459   5.608   1.133   6.313  1.9613 -2.0594 -0.4322
 5422TIP3   OH240460   7.867   8.499   6.311  0.1165 -0.3222  0.7670
 5422TIP3    H140461   7.897   8.425   6.258 -0.2787  0.4575 -0.5942
 5422TIP3    H240462   7.892   8.477   6.400  2.8590 -0.6609 -0.0120
 5423TIP3   OH240463   4.649   3.891   5.560 -0.1348 -0.5069 -0.0378
 5423TIP3    H140464   4.641   3.963   5.622 -0.0405  2.2731 -3.0051
 5423TIP3    H240465   4.743   3.885   5.543 -0.1083 -1.6089  0.4223
 5424TIP3   OH240466   0.193   4.435   6.172  0.1118 -0.1568 -0.7077
 5424TIP3    H140467   0.236   4.474   6.248  1.2735 -1.3949 -0.6827
 5424TIP3    H240468   0.170   4.509   6.117 -0.7747  0.7820  0.8388
 5425TIP3   OH240469   5.329   0.564   5.161  0.2589  0.2553  0.0317
 5425TIP3    H140470   5.409   0.570   5.212  0.3735  0.0063 -0.1168
 5425TIP3    H240471   5.355   0.592   5.073 -0.2458  2.0797  0.4151
 5426TIP3   OH240472   5.436   4.722   4.941 -0.0131 -0.0615 -0.5214
 5426TIP3    H140473   5.456   4.812   4.916 -1.6370  0.6358  0.5431
 5426TIP3    H240474   5.341   4.721   4.953 -0.0481 -1.9539 -0.5928
 5427TIP3   OH240475   5.507   6.427   5.482  0.3867 -0.5268  0.0174
 5427TIP3    H140476   5.486   6.400   5.393 -0.4040  0.9225 -0.2698
 5427TIP3    H240477   5.598   6.401   5.494  0.7251 -0.1223 -1.4635
 5428TIP3   OH240478   0.431   7.900   5.328  0.8967 -0.5489  0.1031
 5428TIP3    H140479   0.460   7.872   5.415 -2.5865  0.2920  1.6910
 5428TIP3    H240480   0.357   7.843   5.308 -0.3934  1.3526 -0.8068
 5429TIP3   OH240481   1.977   1.000   6.641 -0.1865  0.0346 -0.1125
 5429TIP3    H140482   2.009   0.956   6.562  0.1794  0.1375 -0.0228
 5429TIP3    H240483   1.968   0.930   6.705 -0.9501 -0.1303 -0.3802
 5430TIP3   OH240484   1.457   5.226   5.498 -0.1721  0.4295  0.5414
 5430TIP3    H140485   1.480   5.235   5.406 -0.1488  1.0044  0.5990
 5430TIP3    H240486   1.518   5.283   5.544 -0.2503  0.2259  0.9056
 5431TIP3   OH240487   0.437   1.527   4.762  1.0029 -0.2849 -0.0559
 5431TIP3    H140488   0.514   1.474   4.742  0.6560 -0.8162 -0.0005
 5431TIP3    H240489   0.365   1.464   4.771  0.4664  0.2356 -0.5699
 5432TIP3   OH240490   8.805   0.901   5.582  0.4062 -0.1121  0.1059
 5432TIP3    H140491   8.857   0.919   5.660  1.0485 -0.9193 -0.1240
 5432TIP3    H240492   8.732   0.847   5.613  1.0970 -1.1033  0.0277
 5433TIP3   OH240493   6.250   2.208   4.865  0.5293 -0.1448  0.3899
 5433TIP3    H140494   6.183   2.261   4.822  0.5530  0.9414  1.6250
 5433TIP3    H240495   6.301   2.271   4.916 -0.3930 -1.5082  3.1633
 5434TIP3   OH240496   0.937   7.785   5.533 -0.4967 -0.1338 -0.1455
 5434TIP3    H140497   0.938   7.726   5.457 -0.6427 -0.1214 -0.1559
 5434TIP3    H240498   1.017   7.761   5.582 -1.2877 -1.3422  0.6173
 5435TIP3   OH240499   3.677   0.068   5.746 -0.5927 -0.5312  0.5078
 5435TIP3    H140500   3.725   0.018   5.680 -0.4385 -0.3090  0.4529
 5435TIP3    H240501   3.610   0.007   5.777 -0.1483 -0.9188  0.7301
 5436TIP3   OH240502   6.944   3.808   5.198 -0.4665  0.8764 -0.2900
 5436TIP3    H140503   7.003   3.865   5.147 -0.3652  0.7920 -0.2681
 5436TIP3    H240504   6.985   3.722   5.193 -0.5078  0.8494 -0.1434
 5437TIP3   OH240505   1.573   2.926   5.412  0.1653  0.4412 -0.3905
 5437TIP3    H140506   1.609   2.838   5.400  0.5885  0.6177 -0.4282
 5437TIP3    H240507   1.646   2.977   5.444 -0.1084  0.7588 -0.2724
 5438TIP3   OH240508   1.872   1.200   6.435 -0.0665 -0.2423  0.4085
 5438TIP3    H140509   1.788   1.171   6.471 -0.9650  0.1356 -1.2768
 5438TIP3    H240510   1.919   1.236   6.510 -1.9417  0.7364  1.1923
 5439TIP3   OH240511   2.298   6.342   6.646  0.4345  0.1338  0.3574
 5439TIP3    H140512   2.344   6.421   6.616 -0.6215 -0.0295 -1.8543
 5439TIP3    H240513   2.368   6.280   6.667  1.2531  0.6504 -0.7505
 5440TIP3   OH240514   8.844   1.272   5.798  0.7656  0.0721  0.0173
 5440TIP3    H140515   8.802   1.264   5.713 -0.4591 -1.5521  0.7276
 5440TIP3    H240516   8.867   1.365   5.805  0.4402  0.3209 -1.8466
 5441TIP3   OH240517   6.384   5.087   5.638 -0.2393 -0.5256  0.2185
 5441TIP3    H140518   6.388   4.994   5.616 -0.2841 -1.1102  2.5109
 5441TIP3    H240519   6.293   5.102   5.662 -0.8109  0.7253 -2.3688
 5442TIP3   OH240520   8.029   7.214   5.001  0.1150  0.2036 -0.9996
 5442TIP3    H140521   8.093   7.239   4.935 -0.0194 -0.0533 -1.2269
 5442TIP3    H240522   8.081   7.178   5.073  0.2112 -0.2610 -1.2974
 5443TIP3   OH240523   3.132   1.230   6.045 -0.2278  0.4211  0.5491
 5443TIP3    H140524   3.041   1.258   6.038 -0.1998  0.1953 -1.3623
 5443TIP3    H240525   3.126   1.134   6.052 -0.1557  0.4026  0.3762
 5444TIP3   OH240526   7.135   6.306   5.463 -0.6840 -0.1566  0.0204
 5444TIP3    H140527   7.163   6.357   5.387  0.3580 -1.6355 -0.6296
 5444TIP3    H240528   7.056   6.350   5.493 -0.6755  0.9338 -1.4318
 5445TIP3   OH240529   0.975   7.986   6.955  0.1199 -0.7350  0.0160
 5445TIP3    H140530   0.957   8.075   6.984  0.5751 -0.1642 -1.3532
 5445TIP3    H240531   1.041   7.997   6.886 -2.4727 -1.7770 -2.8144
 5446TIP3   OH240532   2.213   5.157   5.661 -0.2581 -0.2959  0.5163
 5446TIP3    H140533   2.283   5.173   5.597  1.3839 -2.2540  1.6982
 5446TIP3    H240534   2.177   5.243   5.678  1.2104  0.6677 -0.8829
 5447TIP3   OH240535   5.743   0.404   5.763  0.0192  0.4417 -0.3628
 5447TIP3    H140536   5.733   0.426   5.855 -0.4486  0.1445 -0.3382
 5447TIP3    H240537   5.837   0.413   5.745  0.5041 -1.7537  0.7236
 5448TIP3   OH240538   2.199   7.296   6.926 -0.6449 -0.1410 -0.2388
 5448TIP3    H140539   2.139   7.261   6.860 -0.2661  1.1061 -1.2932
 5448TIP3    H240540   2.280   7.248   6.912 -0.5023  0.2668 -0.8344
 5449TIP3   OH240541   0.188   8.706   6.760  0.0536 -0.3936  0.7675
 5449TIP3    H140542   0.230   8.625   6.730  0.7594 -0.1010  0.9545
 5449TIP3    H240543   0.127   8.677   6.827 -1.7915 -1.1070 -1.1040
 5450TIP3   OH240544   1.282   6.727   5.910 -0.4038  0.2329  0.4303
 5450TIP3    H140545   1.223   6.658   5.880 -0.6853  0.6164  0.0846
 5450TIP3    H240546   1.351   6.681   5.957 -0.6490 -0.2746  0.3012
 5451TIP3   OH240547   8.012   0.825   7.190 -0.5350  0.3926  0.4319
 5451TIP3    H140548   8.032   0.900   7.246 -1.6363  1.8188 -0.9741
 5451TIP3    H240549   8.087   0.820   7.130 -1.1539  1.4410 -0.4878
 5452TIP3   OH240550   6.463   4.906   5.262 -0.2652  0.1551  0.1603
 5452TIP3    H140551   6.418   4.991   5.259 -0.1521  0.1800 -2.3479
 5452TIP3    H240552   6.413   4.855   5.326 -1.8156  1.2878 -0.1054
 5453TIP3   OH240553   5.087   0.822   6.257 -0.3342 -0.3628  0.2079
 5453TIP3    H140554   5.168   0.856   6.294 -0.2002  1.8820 -1.9089
 5453TIP3    H240555   5.022   0.890   6.275 -0.6226  0.0570 -2.0683
 5454TIP3   OH240556   8.882   4.401   5.266  0.2424  0.3562  0.2440
 5454TIP3    H140557   8.794   4.396   5.229 -0.0493 -2.0013  1.1233
 5454TIP3    H240558   8.932   4.450   5.200 -1.2185 -0.0533 -1.2497
 5455TIP3   OH240559   0.838   2.399   6.353 -0.2655  0.1316 -0.6389
 5455TIP3    H140560   0.903   2.396   6.423 -0.6349 -0.8546 -0.3212
 5455TIP3    H240561   0.806   2.309   6.345 -3.4239  0.9283  1.0196
 5456TIP3   OH240562   2.177   3.751   6.440  1.2435  0.3301  0.1017
 5456TIP3    H140563   2.168   3.659   6.467  0.0054  0.4775  0.2358
 5456TIP3    H240564   2.242   3.748   6.369  1.5786 -0.5817  0.4274
 5457TIP3   OH240565   2.280   7.029   5.869  0.0124 -0.0291 -0.5618
 5457TIP3    H140566   2.343   7.094   5.901 -0.4404 -0.1642  0.6483
 5457TIP3    H240567   2.222   7.079   5.811 -0.6989  0.8086  0.8259
 5458TIP3   OH240568   0.088   1.264   6.868 -0.1746  0.4204 -0.2811
 5458TIP3    H140569   0.002   1.269   6.826 -0.0710 -0.3779 -0.6181
 5458TIP3    H240570   0.106   1.170   6.872  0.3936  0.5552  0.3876
 5459TIP3   OH240571   5.917   4.399   5.715 -0.0092 -0.2008 -0.1129
 5459TIP3    H140572   5.975   4.367   5.647 -0.0306 -1.6146  0.5110
 5459TIP3    H240573   5.840   4.431   5.667  1.1145  1.4330 -0.9202
 5460TIP3   OH240574   7.473   3.007   6.269  0.2488  0.0331 -0.5824
 5460TIP3    H140575   7.544   2.946   6.251  0.0730 -0.3391 -0.0308
 5460TIP3    H240576   7.490   3.081   6.210  0.2164 -0.7250 -1.5792
 5461TIP3   OH240577   5.898   9.058   4.968  0.7847 -0.2460 -0.1657
 5461TIP3    H140578   5.939   8.972   4.961  0.6145 -0.3314 -0.1099
 5461TIP3    H240579   5.961   9.118   4.928  2.5598  0.1215  2.9178
 5462TIP3   OH240580   0.444   0.405   6.569 -0.0427 -0.4030 -0.1265
 5462TIP3    H140581   0.406   0.339   6.627 -0.5309  0.2707  0.3390
 5462TIP3    H240582   0.518   0.441   6.619  0.5258 -0.9318 -0.5771
 5463TIP3   OH240583   6.706   0.815   4.941  0.5135 -0.0522  0.1860
 5463TIP3    H140584   6.784   0.864   4.917  0.8100 -0.0422  1.1241
 5463TIP3    H240585   6.634   0.876   4.925  0.8713  0.6701  1.2172
 5464TIP3   OH240586   2.891   4.676   5.149 -0.4103 -0.4525 -0.3241
 5464TIP3    H140587   2.984   4.696   5.144 -0.1500 -1.1840  1.0690
 5464TIP3    H240588   2.848   4.760   5.133  0.4914 -0.0116 -0.5227
 5465TIP3   OH240589   6.572   4.261   5.564  0.4492  0.0979  0.6201
 5465TIP3    H140590   6.599   4.229   5.650 -1.4647  0.5853  1.4559
 5465TIP3    H240591   6.564   4.356   5.575 -0.3747  0.1018  0.0841
 5466TIP3   OH240592   3.615   2.159   6.478  0.7286  0.0828  0.1580
 5466TIP3    H140593   3.649   2.248   6.472  2.7271 -0.5236  1.5975
 5466TIP3    H240594   3.577   2.152   6.565  0.7872 -0.5182  0.1457
 5467TIP3   OH240595   8.596   0.175   5.325 -0.1925 -0.1319  0.0727
 5467TIP3    H140596   8.624   0.086   5.301 -1.1353 -0.9906  1.9291
 5467TIP3    H240597   8.676   0.219   5.353  0.1857 -0.5918 -0.2513
 5468TIP3   OH240598   6.869   3.402   5.739  0.3987  0.0447  0.3760
 5468TIP3    H140599   6.823   3.367   5.663  1.2079  2.6675 -1.4687
 5468TIP3    H240600   6.961   3.386   5.721  0.6139  0.9542  0.6126
 5469TIP3   OH240601   7.805   3.146   6.034 -0.5570 -0.2417  0.4666
 5469TIP3    H140602   7.844   3.210   5.975  0.3446 -0.9986  0.2067
 5469TIP3    H240603   7.814   3.185   6.121 -0.2322  0.0926  0.2862
 5470TIP3   OH240604   7.970   1.045   5.367 -0.3945 -0.0525  0.1495
 5470TIP3    H140605   8.054   1.071   5.330 -1.0884  1.2274 -0.6087
 5470TIP3    H240606   7.918   1.126   5.367 -1.6751 -0.8463  0.4336
 5471TIP3   OH240607   4.100   7.536   5.561 -0.2916 -0.5410 -0.3766
 5471TIP3    H140608   4.168   7.570   5.503 -1.4386  0.2450 -1.3195
 5471TIP3    H240609   4.124   7.568   5.648  0.5321 -0.2735 -0.6920
 5472TIP3   OH240610   5.527   3.367   6.066  0.1566  0.7197 -0.0530
 5472TIP3    H140611   5.486   3.365   6.153 -0.0719  2.8271 -0.0610
 5472TIP3    H240612   5.615   3.331   6.080  0.0818  0.9265  1.0318
 5473TIP3   OH240613   6.595   7.563   5.222 -0.1048 -0.8378 -0.5695
 5473TIP3    H140614   6.602   7.644   5.272 -1.0577  0.3259 -2.2272
 5473TIP3    H240615   6.639   7.583   5.139 -0.4927 -1.9693 -1.0668
 5474TIP3   OH240616   4.457   3.476   5.602  0.6258  0.2959 -0.1623
 5474TIP3    H140617   4.363   3.495   5.604  0.4046 -0.7824  0.1901
 5474TIP3    H240618   4.474   3.453   5.511  0.1520 -1.3202  0.1269
 5475TIP3   OH240619   8.307   3.953   5.345  0.0919 -0.8088  0.4977
 5475TIP3    H140620   8.341   3.996   5.424 -1.9300  1.7345  0.1558
 5475TIP3    H240621   8.380   3.955   5.283  1.0292 -0.7761  1.5726
 5476TIP3   OH240622   0.217   4.979   5.913 -0.4836  0.2269 -0.3773
 5476TIP3    H140623   0.293   5.038   5.910 -0.5876  0.3730 -0.1099
 5476TIP3    H240624   0.152   5.026   5.964 -0.3290 -0.3978  0.4002
 5477TIP3   OH240625   2.665   1.659   5.371 -0.1498  0.2683  0.7309
 5477TIP3    H140626   2.693   1.613   5.292  0.4160  1.5905  0.1454
 5477TIP3    H240627   2.641   1.746   5.341 -0.5967  0.5760  1.9231
 5478TIP3   OH240628   7.264   3.477   6.185  0.1259  0.0506  0.0731
 5478TIP3    H140629   7.183   3.476   6.134  0.4559 -0.8753 -0.4527
 5478TIP3    H240630   7.242   3.526   6.264 -1.7009 -2.3918  1.1843
 5479TIP3   OH240631   7.934   3.780   5.851 -0.3850 -0.3385 -0.0608
 5479TIP3    H140632   7.980   3.697   5.861 -1.2916 -0.7354  0.9832
 5479TIP3    H240633   7.966   3.816   5.768  0.5020 -1.4129 -0.1945
 5480TIP3   OH240634   5.465   2.602   6.251 -0.8338  0.0667  0.0503
 5480TIP3    H140635   5.457   2.603   6.155 -0.3766  0.1609  0.0107
 5480TIP3    H240636   5.409   2.673   6.281 -2.5683 -1.2011 -0.0130
 5481TIP3   OH240637   8.318   5.162   6.674  0.2854 -0.1518  0.2559
 5481TIP3    H140638   8.393   5.221   6.683  0.0244  0.1657  0.3740
 5481TIP3    H240639   8.324   5.104   6.749 -0.3372  0.7387  1.0267
 5482TIP3   OH240640   6.819   7.621   5.708 -0.5480  0.0981  0.2846
 5482TIP3    H140641   6.729   7.608   5.736 -0.5640 -0.3938  0.0157
 5482TIP3    H240642   6.816   7.700   5.654 -0.5786  0.8523  1.3504
 5483TIP3   OH240643   0.242   8.458   5.391  0.6718  0.0609  0.6120
 5483TIP3    H140644   0.304   8.529   5.377  0.9904 -0.2029  0.6522
 5483TIP3    H240645   0.275   8.387   5.335  0.5471 -0.1632  0.8222
 5484TIP3   OH240646   3.091   3.797   5.562 -0.0723  0.5500 -0.4765
 5484TIP3    H140647   3.153   3.733   5.597  0.9559  1.9957  0.4632
 5484TIP3    H240648   3.005   3.759   5.579  0.4628  0.1608  1.6437
 5485TIP3   OH240649   2.530   7.100   5.996 -0.5282 -0.2118 -0.2509
 5485TIP3    H140650   2.577   7.153   5.931  0.5330 -0.6067  0.1602
 5485TIP3    H240651   2.504   7.163   6.063  0.1928 -0.0993 -0.0607
 5486TIP3   OH240652   5.944   3.925   6.081 -0.2647  0.4809 -0.2769
 5486TIP3    H140653   5.978   3.913   6.170 -2.2340  1.6564  0.6891
 5486TIP3    H240654   5.978   4.010   6.054 -1.6328  1.2530  0.3477
 5487TIP3   OH240655   3.781   2.125   5.844 -0.5191 -0.5528 -0.1114
 5487TIP3    H140656   3.804   2.051   5.900  1.3436 -0.5524 -0.7875
 5487TIP3    H240657   3.724   2.087   5.777  0.9266 -1.5677 -0.8267
 5488TIP3   OH240658   9.106   1.619   6.700 -0.2068 -0.5957 -0.2079
 5488TIP3    H140659   9.105   1.614   6.605  2.1235  0.7218 -0.3846
 5488TIP3    H240660   9.049   1.547   6.729  0.3005 -2.0538 -2.5631
 5489TIP3   OH240661   4.881   7.133   6.979  0.1789  0.2034 -0.1334
 5489TIP3    H140662   4.840   7.146   6.894 -2.4598 -1.1195  0.8188
 5489TIP3    H240663   4.872   7.039   6.996 -0.9903  0.6916  2.3134
 5490TIP3   OH240664   8.116   4.221   5.256  0.1656  0.2631 -0.0748
 5490TIP3    H140665   8.086   4.219   5.347  0.4554 -0.2231  0.0131
 5490TIP3    H240666   8.073   4.146   5.214  1.1634 -0.3892  0.0315
 5491TIP3   OH240667   1.859   8.008   5.698  0.2478 -0.5516  0.2375
 5491TIP3    H140668   1.787   7.955   5.666  0.3402 -1.4445  1.4720
 5491TIP3    H240669   1.852   8.005   5.793 -0.5480  2.7690  0.4194
 5492TIP3   OH240670   8.620   5.803   5.410 -0.1464 -0.8366  0.3937
 5492TIP3    H140671   8.540   5.838   5.449  0.6353  1.4828  0.0817
 5492TIP3    H240672   8.594   5.772   5.324 -0.6004  0.7730 -0.0915
 5493TIP3   OH240673   8.366   8.337   4.894  0.5141  0.0114  0.6951
 5493TIP3    H140674   8.327   8.423   4.906  0.6921  0.0540  0.9807
 5493TIP3    H240675   8.457   8.354   4.871  0.2799 -0.0805 -0.3411
 5494TIP3   OH240676   6.946   3.218   5.285  0.3241  0.4728 -0.3373
 5494TIP3    H140677   7.041   3.229   5.279  0.2667  0.1884 -2.4269
 5494TIP3    H240678   6.932   3.124   5.278 -0.0979  0.4784  0.3721
 5495TIP3   OH240679   6.820   6.428   5.881 -0.2099 -0.3972 -0.2283
 5495TIP3    H140680   6.780   6.355   5.928  1.4269 -0.0198  1.8771
 5495TIP3    H240681   6.909   6.398   5.860  0.0925  0.5715 -0.3864
 5496TIP3   OH240682   1.135   6.642   4.871 -0.0106 -0.2017  0.1600
 5496TIP3    H140683   1.088   6.595   4.940  0.6038  0.1498  0.8246
 5496TIP3    H240684   1.179   6.573   4.820 -0.4785 -0.4609  0.1004
 5497TIP3   OH240685   2.710   1.223   5.438  0.5177 -0.5964  0.7342
 5497TIP3    H140686   2.725   1.299   5.381 -2.0717 -0.9051 -0.5029
 5497TIP3    H240687   2.767   1.155   5.402  0.8316 -0.0286  0.1280
 5498TIP3   OH240688   6.949   0.542   6.536  0.5290 -0.1588  0.5782
 5498TIP3    H140689   6.885   0.570   6.471 -0.2227 -1.9881  0.4909
 5498TIP3    H240690   6.920   0.583   6.617 -1.1888 -1.4834  0.6866
 5499TIP3   OH240691   2.634   3.981   5.438  0.4209 -0.4452  0.3404
 5499TIP3    H140692   2.667   3.951   5.354 -2.0451 -0.7650 -0.6044
 5499TIP3    H240693   2.567   4.047   5.415 -0.5292 -0.7726  2.0074
 5500TIP3   OH240694   0.942   5.818   5.297  0.0782 -0.2256 -0.1867
 5500TIP3    H140695   0.889   5.881   5.247 -1.3235 -1.0802  0.1494
 5500TIP3    H240696   1.004   5.872   5.346 -0.8077  0.8719 -0.2260
 5501TIP3   OH240697   6.311   8.843   6.594  0.3670  0.8252  0.4088
 5501TIP3    H140698   6.284   8.878   6.509 -0.5816 -0.6671  0.0555
 5501TIP3    H240699   6.366   8.912   6.632  1.2501  1.3286 -1.6284
 5502TIP3   OH240700   2.244   8.651   6.499 -0.1640 -0.1275  0.2340
 5502TIP3    H140701   2.221   8.633   6.590 -0.0657 -0.0412  0.2754
 5502TIP3    H240702   2.177   8.606   6.448 -0.3803  0.0635  0.3539
 5503TIP3   OH240703   6.310   3.854   5.794 -0.6714  0.1359 -0.0905
 5503TIP3    H140704   6.383   3.824   5.849 -1.2338  0.3969  0.8172
 5503TIP3    H240705   6.341   3.842   5.704  0.0235 -0.9069  0.2722
 5504TIP3   OH240706   1.375   3.355   5.336 -0.1763 -1.1290 -0.0554
 5504TIP3    H140707   1.456   3.384   5.295  0.5277 -3.0036 -0.0920
 5504TIP3    H240708   1.366   3.409   5.415  0.8338 -0.5707 -0.3146
 5505TIP3   OH240709   9.034   8.732   5.692  0.2736  0.1867 -0.1621
 5505TIP3    H140710   8.952   8.683   5.686  0.5640 -0.1427 -2.4414
 5505TIP3    H240711   9.024   8.804   5.630  1.0806  1.1690  0.7953
 5506TIP3   OH240712   3.845   2.711   6.375 -0.2166  0.0949 -0.2776
 5506TIP3    H140713   3.922   2.707   6.432  1.0634 -1.5196 -2.0200
 5506TIP3    H240714   3.865   2.781   6.313  0.5005 -1.1528 -1.5225
 5507TIP3   OH240715   0.259   1.445   6.240  0.2260  0.5730 -0.3880
 5507TIP3    H140716   0.348   1.476   6.230  0.4911 -0.2888 -0.8253
 5507TIP3    H240717   0.258   1.403   6.326  0.6342 -0.6303 -0.9505
 5508TIP3   OH240718   8.912   5.449   5.497 -0.5426  0.8044 -0.3737
 5508TIP3    H140719   8.964   5.495   5.431 -0.4000  1.0138 -0.1165
 5508TIP3    H240720   8.890   5.365   5.456  1.5248 -0.0702  0.1618
 5509TIP3   OH240721   3.237   8.458   5.878  0.0607  0.7699 -0.4276
 5509TIP3    H140722   3.147   8.457   5.911 -0.4629  2.3595 -1.6849
 5509TIP3    H240723   3.235   8.398   5.803  0.7653 -1.2890  1.1027
 5510TIP3   OH240724   6.723   5.582   5.675  0.4543  0.0617  0.1579
 5510TIP3    H140725   6.700   5.630   5.596 -0.0417 -0.8844 -0.2922
 5510TIP3    H240726   6.640   5.574   5.723  0.2877 -1.2732 -0.3079
 5511TIP3   OH240727   5.347   8.122   5.974 -0.1195  0.5454  0.3000
 5511TIP3    H140728   5.291   8.056   5.935  0.4295 -0.5484  1.2835
 5511TIP3    H240729   5.331   8.201   5.923 -2.2729  0.1816  0.3422
 5512TIP3   OH240730   2.592   0.934   5.364 -0.0416 -0.5254  0.1708
 5512TIP3    H140731   2.520   0.998   5.371  0.2154  0.2869 -3.0900
 5512TIP3    H240732   2.551   0.857   5.325  0.0354 -1.7989  2.4418
 5513TIP3   OH240733   6.467   2.833   5.943 -0.2878 -0.4027 -0.2701
 5513TIP3    H140734   6.471   2.913   5.890  0.8982  0.3770  0.9309
 5513TIP3    H240735   6.488   2.863   6.032 -1.8648 -1.7215  0.5924
 5514TIP3   OH240736   1.605   3.532   4.767  0.1285  0.5670 -0.7256
 5514TIP3    H140737   1.622   3.502   4.678  1.7921 -0.7997 -0.0142
 5514TIP3    H240738   1.646   3.466   4.823 -1.9468  0.7196  1.1109
 5515TIP3   OH240739   1.016   6.817   5.739  0.3862  0.2140 -0.6902
 5515TIP3    H140740   1.104   6.779   5.736  0.6813  0.0934  3.4933
 5515TIP3    H240741   1.028   6.902   5.781 -1.3747  0.6448 -0.9872
 5516TIP3   OH240742   1.725   9.009   5.881 -0.6492 -0.1533 -0.3330
 5516TIP3    H140743   1.686   9.050   5.958  0.7967 -0.4342  0.5790
 5516TIP3    H240744   1.748   8.920   5.910 -1.5115 -0.8135 -1.5641
 5517TIP3   OH240745   3.651   5.009  10.224  0.0781 -0.3525 -0.0579
 5517TIP3    H140746   3.633   5.037  10.313 -2.5105  0.3480 -0.7005
 5517TIP3    H240747   3.734   4.961  10.229 -0.4986 -1.2257  2.8888
 5518TIP3   OH240748   7.992   5.583   6.188 -0.0545  0.2977  0.3868
 5518TIP3    H140749   7.965   5.575   6.096  2.1586  2.6245 -0.5984
 5518TIP3    H240750   7.950   5.663   6.219 -1.7154 -1.0711  1.8554
 5519TIP3   OH240751   2.097   6.380   5.568 -0.2646  0.2460 -0.6684
 5519TIP3    H140752   2.008   6.415   5.561 -1.2036 -1.8832 -0.2455
 5519TIP3    H240753   2.121   6.394   5.660 -0.3551  0.3992 -0.6673
 5520TIP3   OH240754   1.731   8.687   5.954 -0.3237 -0.3516  0.5609
 5520TIP3    H140755   1.637   8.674   5.969 -0.7096  1.4466 -0.0103
 5520TIP3    H240756   1.772   8.612   5.997 -1.9943 -1.0091  1.1298
 5521TIP3   OH240757   5.931   7.043   6.113 -0.2516 -0.3276  0.1536
 5521TIP3    H140758   5.967   7.031   6.201  1.1016  0.1699 -0.3056
 5521TIP3    H240759   6.003   7.019   6.055 -0.6882  0.6536 -0.8173
 5522TIP3   OH240760   1.333   3.016   5.570  0.5156  0.0462 -0.4021
 5522TIP3    H140761   1.334   3.000   5.664  1.2951  0.1884 -0.3791
 5522TIP3    H240762   1.424   3.008   5.543  0.5872  1.8523 -0.8329
 5523TIP3   OH240763   3.265   8.994   5.135  0.7739 -0.0567  0.3205
 5523TIP3    H140764   3.226   8.929   5.195  0.4373  0.1770  0.3597
 5523TIP3    H240765   3.295   9.064   5.193  0.7951 -0.0072  0.2486
 5524TIP3   OH240766   5.145   3.738   5.193 -0.0412  0.1042 -0.4075
 5524TIP3    H140767   5.154   3.642   5.194 -0.2045  0.0617 -1.4134
 5524TIP3    H240768   5.229   3.770   5.161  0.4335  0.3846  1.0505
 5525TIP3   OH240769   2.246   8.739   6.156 -0.6684  0.3854  0.0006
 5525TIP3    H140770   2.273   8.697   6.238 -0.9591  1.0189  0.4270
 5525TIP3    H240771   2.159   8.702   6.138 -0.2659 -0.3557 -0.4534
 5526TIP3   OH240772   3.155   5.277   5.836 -0.0281  0.6586 -0.6688
 5526TIP3    H140773   3.060   5.287   5.824 -0.8076 -2.7736  1.1566
 5526TIP3    H240774   3.180   5.350   5.892 -2.0476  0.5941  0.4151
 5527TIP3   OH240775   0.841   0.025   5.048  0.0223 -0.4616 -0.6740
 5527TIP3    H140776   0.825   0.104   5.101 -0.0841  0.0847 -1.4934
 5527TIP3    H240777   0.934   0.007   5.060  0.3336  0.5181 -1.4161
 5528TIP3   OH240778   7.711   8.648   6.989 -0.0431  0.1099  0.1046
 5528TIP3    H140779   7.750   8.566   7.020 -0.1478  0.6785  1.8893
 5528TIP3    H240780   7.618   8.630   6.981  0.2641 -0.6787 -2.1742
 5529TIP3   OH240781   4.440   1.513   9.464  0.4557  0.8500  0.8393
 5529TIP3    H140782   4.359   1.485   9.423  1.2420 -1.0413  0.4540
 5529TIP3    H240783   4.413   1.576   9.532 -1.3397  0.0394  0.9179
 5530TIP3   OH240784   8.844   8.954   6.967 -0.2318 -0.0478 -0.0777
 5530TIP3    H140785   8.759   8.910   6.960 -1.3259  1.6524  1.5510
 5530TIP3    H240786   8.892   8.926   6.889 -1.9365 -1.7630 -0.5854
 5531TIP3   OH240787   1.787   6.246   5.278  0.1407 -0.8311 -0.2589
 5531TIP3    H140788   1.748   6.210   5.198 -1.5375 -2.0358  1.0253
 5531TIP3    H240789   1.741   6.329   5.292  0.7610 -0.3937 -0.7690
 5532TIP3   OH240790   8.265   0.907   6.632 -0.0059 -0.2749 -0.4067
 5532TIP3    H140791   8.261   0.921   6.537  1.5953 -3.6016 -1.1225
 5532TIP3    H240792   8.203   0.836   6.648  0.6647 -0.6095  0.8072
 5533TIP3   OH240793   2.783   5.707   5.467 -0.2223  0.0805 -0.1216
 5533TIP3    H140794   2.800   5.795   5.432 -1.2469  0.3322 -0.0082
 5533TIP3    H240795   2.756   5.656   5.391  0.5473 -0.1999 -0.2198
 5534TIP3   OH240796   0.892   8.394   5.222 -0.5049  0.1602 -0.2795
 5534TIP3    H140797   0.924   8.448   5.295  1.6340 -0.9305 -0.2970
 5534TIP3    H240798   0.835   8.451   5.172 -0.0901  1.6957  0.9200
 5535TIP3   OH240799   2.675   1.862   6.035 -0.3294  0.3747  0.5290
 5535TIP3    H140800   2.618   1.808   5.980  0.1638 -1.3471  1.6455
 5535TIP3    H240801   2.614   1.906   6.094 -0.5955 -1.0917  1.4030
 5536TIP3   OH240802   8.294   1.826   6.800  0.1615  0.9989 -0.6413
 5536TIP3    H140803   8.352   1.758   6.835 -0.9765 -1.1341 -2.5870
 5536TIP3    H240804   8.342   1.863   6.726  0.3474  1.5591 -0.2428
 5537TIP3   OH240805   2.862   1.253   5.959 -0.1033  0.1853 -0.4566
 5537TIP3    H140806   2.834   1.162   5.965  1.0130 -0.1460 -0.1792
 5537TIP3    H240807   2.783   1.303   5.979 -0.7150 -0.7114 -0.5667
 5538TIP3   OH240808   4.139   7.317   5.258  0.0288 -0.2149 -0.4973
 5538TIP3    H140809   4.221   7.366   5.260  0.2334 -0.5699  0.2937
 5538TIP3    H240810   4.071   7.383   5.267  0.3331 -0.1131  1.5151
 5539TIP3   OH240811   0.114   6.995   5.805  0.6218  0.3478  0.2666
 5539TIP3    H140812   0.042   7.048   5.838  0.2681 -0.5763  1.0166
 5539TIP3    H240813   0.188   7.056   5.799  0.0587  1.0633  0.4834
 5540TIP3   OH240814   1.553   2.820   4.896 -0.0135 -0.0509  0.2202
 5540TIP3    H140815   1.644   2.847   4.886 -0.7781  1.9789 -2.2422
 5540TIP3    H240816   1.507   2.900   4.922 -1.2151 -0.9045  0.8183
 5541TIP3   OH240817   2.778   4.850   5.643 -0.6462  0.5642  0.2523
 5541TIP3    H140818   2.731   4.789   5.699 -0.5549  0.3732  0.1201
 5541TIP3    H240819   2.797   4.800   5.563 -2.0726  1.2602 -0.5567
 5542TIP3   OH240820   4.643   9.072   6.006  0.2957 -0.0446  0.3383
 5542TIP3    H140821   4.555   9.045   5.980  0.1698 -0.5878  1.3096
 5542TIP3    H240822   4.632   9.159   6.043 -0.0396 -0.6028  1.5961
 5543TIP3   OH240823   7.647   4.935   5.404  0.4480 -0.1641  0.0531
 5543TIP3    H140824   7.729   4.926   5.355  0.1680  0.6132 -0.5679
 5543TIP3    H240825   7.593   4.862   5.375 -0.2886  1.1196 -1.9537
 5544TIP3   OH240826   6.111   3.603   6.309 -0.5868 -0.5096 -0.8414
 5544TIP3    H140827   6.016   3.617   6.309 -0.4309  0.7398  0.2580
 5544TIP3    H240828   6.146   3.677   6.260 -0.1357 -0.6106 -0.6754
 5545TIP3   OH240829   0.913   7.362   5.934 -0.3413 -0.6471  0.4018
 5545TIP3    H140830   0.927   7.317   5.851 -1.1076 -0.8331  0.3618
 5545TIP3    H240831   0.950   7.449   5.922 -0.1164 -0.8014 -0.0074
 5546TIP3   OH240832   7.710   5.963   5.054 -0.6207  0.3828  0.5414
 5546TIP3    H140833   7.690   5.938   5.144 -1.5779  0.1543  0.2717
 5546TIP3    H240834   7.626   5.966   5.010 -0.5028  3.0964  0.2957
 5547TIP3   OH240835   8.444   7.330   6.170  0.3825 -0.2689 -0.5446
 5547TIP3    H140836   8.418   7.269   6.100  0.0005 -0.0492 -0.5959
 5547TIP3    H240837   8.538   7.344   6.156 -0.1598  1.8724 -2.6778
 5548TIP3   OH240838   6.307   0.112   6.403  0.4502  0.2923  0.0653
 5548TIP3    H140839   6.245   0.110   6.476  2.0439 -0.4048  1.4635
 5548TIP3    H240840   6.385   0.154   6.439  0.7528  1.3473 -1.7236
 5549TIP3   OH240841   1.546   3.929   6.179  0.1436  0.5339  0.3920
 5549TIP3    H140842   1.614   3.879   6.224 -0.4489 -1.2137 -0.5520
 5549TIP3    H240843   1.475   3.866   6.166 -1.4587  2.1681  0.8871
 5550TIP3   OH240844   3.819   8.943   5.942  0.3786  0.1816  0.0251
 5550TIP3    H140845   3.795   8.927   5.851  2.1409 -2.6334 -0.0715
 5550TIP3    H240846   3.884   9.013   5.938  1.2075 -0.6175 -1.0528
 5551TIP3   OH240847   0.456   0.664   6.915 -0.1864 -0.4521 -0.0970
 5551TIP3    H140848   0.520   0.732   6.895  1.9109 -2.4699 -0.6608
 5551TIP3    H240849   0.371   0.702   6.891  0.6238  2.6208  1.4223
 5552TIP3   OH240850   1.363   6.880   4.818 -0.0895  0.8653  0.0751
 5552TIP3    H140851   1.425   6.927   4.873  0.0213 -0.0625  0.7602
 5552TIP3    H240852   1.345   6.799   4.865  0.1389 -0.0418 -1.3156
 5553TIP3   OH240853   1.818   5.441   5.454  0.2889  0.5054  0.2868
 5553TIP3    H140854   1.834   5.522   5.502 -0.7109  0.7619  0.2047
 5553TIP3    H240855   1.797   5.376   5.521  2.3497 -0.0460  0.4694
 5554TIP3   OH240856   2.328   7.095   5.534 -0.3193  0.1531 -0.0218
 5554TIP3    H140857   2.371   7.019   5.572  1.0988  1.2119  0.5932
 5554TIP3    H240858   2.368   7.104   5.447 -1.4436 -0.5557 -0.6309
 5555TIP3   OH240859   1.764   1.123   5.918  0.2000 -0.6011 -0.0720
 5555TIP3    H140860   1.829   1.073   5.967  0.7130  1.5004  1.5643
 5555TIP3    H240861   1.723   1.179   5.984 -1.7046 -0.2503 -1.4725
 5556TIP3   OH240862   2.407   5.156   5.854  0.2246 -0.1068  0.0761
 5556TIP3    H140863   2.495   5.144   5.818 -0.1746 -3.3450 -0.0757
 5556TIP3    H240864   2.349   5.146   5.779 -0.3944 -2.0710  0.7578
 5557TIP3   OH240865   5.744   4.052   5.347 -0.0240  0.0923  0.2777
 5557TIP3    H140866   5.697   4.075   5.267 -1.1712  1.5806  1.3350
 5557TIP3    H240867   5.766   3.960   5.335 -0.8553  0.0622 -1.4010
 5558TIP3   OH240868   0.883   5.242   6.317 -0.5134  0.6657 -0.5749
 5558TIP3    H140869   0.868   5.329   6.280  2.9827  1.8083  0.3683
 5558TIP3    H240870   0.970   5.217   6.285 -0.7712 -1.8434  0.4482
 5559TIP3   OH240871   1.981   1.472   5.912 -0.0073 -0.2761  0.5403
 5559TIP3    H140872   1.989   1.439   6.002 -1.2752  1.2023  1.2399
 5559TIP3    H240873   2.051   1.538   5.905 -1.4937  1.4993  1.3995
 5560TIP3   OH240874   5.808   5.335   5.311  0.2325 -0.4851  0.1696
 5560TIP3    H140875   5.832   5.247   5.280  1.1736  0.2347 -1.2914
 5560TIP3    H240876   5.713   5.332   5.321  0.1312 -1.3921 -0.8194
 5561TIP3   OH240877   7.902   8.307   5.263 -0.5760 -0.0382 -0.2331
 5561TIP3    H140878   7.883   8.322   5.170 -1.8556 -2.1460 -0.3602
 5561TIP3    H240879   7.856   8.226   5.285 -0.0764  0.2524  2.1923
 5562TIP3   OH240880   3.287   0.609   4.703 -0.0370 -0.1029  0.1098
 5562TIP3    H140881   3.351   0.564   4.648 -0.9568 -0.4981 -0.6583
 5562TIP3    H240882   3.328   0.612   4.790  0.0778 -2.3686  0.1939
 5563TIP3   OH240883   6.229   8.413   6.294 -0.0838 -0.0211 -0.1035
 5563TIP3    H140884   6.181   8.334   6.319  1.4336 -1.2568 -0.9232
 5563TIP3    H240885   6.168   8.462   6.239 -0.9749 -0.7229  0.2321
 5564TIP3   OH240886   8.796   7.120   5.446 -0.5688  0.3127  0.4607
 5564TIP3    H140887   8.762   7.054   5.386 -1.9021  1.2995  0.0776
 5564TIP3    H240888   8.728   7.128   5.513 -1.2455  2.4264 -0.3835
 5565TIP3   OH240889   1.638   0.184   5.330 -0.5816 -0.0101  0.2778
 5565TIP3    H140890   1.552   0.149   5.355  0.4648 -2.3274  0.8779
 5565TIP3    H240891   1.647   0.161   5.238 -0.3588 -0.3391  0.3791
 5566TIP3   OH240892   1.736   6.136   6.235 -0.3426  0.5371 -0.5379
 5566TIP3    H140893   1.795   6.201   6.196  1.8202 -0.1824  1.3404
 5566TIP3    H240894   1.693   6.183   6.306  0.3498  0.2524  0.0800
 5567TIP3   OH240895   0.744   5.458   5.726  0.4034  0.1787 -0.0133
 5567TIP3    H140896   0.791   5.498   5.652 -0.1834  1.0829  0.0784
 5567TIP3    H240897   0.742   5.365   5.706  0.6275  0.3579 -0.9280
 5568TIP3   OH240898   7.188   3.574   6.422  0.3088  0.3130  0.1657
 5568TIP3    H140899   7.120   3.510   6.441  0.6612 -0.6497 -1.6104
 5568TIP3    H240900   7.140   3.655   6.404 -0.4470 -0.5073 -1.6873
 5569TIP3   OH240901   8.243   7.646   5.329  0.2534  0.2447 -0.1765
 5569TIP3    H140902   8.180   7.695   5.381  0.4678  2.6932 -2.0720
 5569TIP3    H240903   8.193   7.613   5.254  0.8110  0.6196 -0.7301
 5570TIP3   OH240904   3.288   2.356   5.883  0.0668  0.1315  0.0473
 5570TIP3    H140905   3.208   2.399   5.911 -1.4579 -3.0396  1.0418
 5570TIP3    H240906   3.342   2.426   5.847 -3.4762  2.3122 -1.5461
 5571TIP3   OH240907   6.644   0.614   6.844  0.4590  0.3443  0.1726
 5571TIP3    H140908   6.732   0.632   6.812  0.1412  1.6753 -0.0240
 5571TIP3    H240909   6.654   0.539   6.903  1.7891  0.7669  0.5077
 5572TIP3   OH240910   7.945   6.411   5.450  0.3066 -0.0819  0.6920
 5572TIP3    H140911   7.956   6.498   5.489  0.3049 -0.0531  0.6287
 5572TIP3    H240912   7.856   6.386   5.473 -0.8165  1.2239 -1.8332
 5573TIP3   OH240913   1.770   0.124   5.552  0.9744 -0.4839 -0.5460
 5573TIP3    H140914   1.707   0.144   5.482  1.1027  1.1116 -0.2350
 5573TIP3    H240915   1.852   0.107   5.506  1.4210  1.9366 -0.8055
 5574TIP3   OH240916   0.835   4.476   5.718 -0.5923  0.7289  0.0966
 5574TIP3    H140917   0.785   4.431   5.787 -1.1094  1.4681  0.2157
 5574TIP3    H240918   0.887   4.407   5.677 -1.8289 -0.0917 -0.1327
 5575TIP3   OH240919   1.176   7.388   5.432 -0.1910 -0.0098 -1.1770
 5575TIP3    H140920   1.114   7.386   5.360 -1.1247 -2.4127 -0.4335
 5575TIP3    H240921   1.226   7.307   5.423  4.1010  2.4857 -2.6435
 5576TIP3   OH240922   8.616   1.358   6.987 -0.0914 -0.1725  0.1794
 5576TIP3    H140923   8.667   1.424   6.939 -0.7664 -1.0746 -1.9180
 5576TIP3    H240924   8.682   1.296   7.018  0.3377  0.1920  0.0191
 5577TIP3   OH240925   3.648   7.316   5.170 -0.0962 -0.8159  0.1785
 5577TIP3    H140926   3.742   7.326   5.179  0.2748 -2.5103 -1.3371
 5577TIP3    H240927   3.613   7.403   5.190  1.8891  0.2102 -0.5719
 5578TIP3   OH240928   6.943   2.123   5.172 -0.5629 -0.4052  0.0703
 5578TIP3    H140929   6.976   2.090   5.089 -0.1780 -0.0252  0.0662
 5578TIP3    H240930   6.941   2.047   5.230  0.8887 -0.3432  0.2444
 5579TIP3   OH240931   8.940   3.785   6.528 -0.3627 -0.3541  0.0689
 5579TIP3    H140932   8.901   3.700   6.547 -0.5584  0.1216  1.9595
 5579TIP3    H240933   9.003   3.767   6.458  0.2600 -2.2448  1.0357
 5580TIP3   OH240934   5.275   8.363   5.309 -0.4751  0.4291 -0.8000
 5580TIP3    H140935   5.267   8.458   5.323 -0.0336  0.2487  0.9037
 5580TIP3    H240936   5.220   8.324   5.377 -0.7756 -0.5617 -1.5798
 5581TIP3   OH240937   8.286   7.777   6.000 -0.1615 -0.6529 -0.4519
 5581TIP3    H140938   8.334   7.711   6.050  0.2609 -0.8736 -1.1357
 5581TIP3    H240939   8.327   7.776   5.914  0.9238  1.6516 -0.0292
 5582TIP3   OH240940   8.619   5.535   6.119 -0.6014  0.4589 -0.2861
 5582TIP3    H140941   8.597   5.542   6.212  0.1208  0.1259 -0.0771
 5582TIP3    H240942   8.578   5.611   6.078 -2.1491 -0.1497  0.0561
 5583TIP3   OH240943   4.184   3.334   6.682 -0.6411 -0.0080  0.2985
 5583TIP3    H140944   4.175   3.386   6.762 -3.4163 -0.3854  0.3355
 5583TIP3    H240945   4.177   3.397   6.611  0.0194  0.1108  0.3312
 5584TIP3   OH240946   1.355   7.133   5.555 -0.9483 -0.0056  0.0414
 5584TIP3    H140947   1.423   7.123   5.489 -1.8986  0.6950 -1.0935
 5584TIP3    H240948   1.376   7.067   5.622 -0.2203 -1.0708 -1.1881
 5585TIP3   OH240949   5.027   7.566   5.077  0.5583 -0.1677  0.1468
 5585TIP3    H140950   5.114   7.537   5.104  0.0790 -0.8235  1.0271
 5585TIP3    H240951   5.008   7.512   5.000  0.2541 -1.2252  0.9423
 5586TIP3   OH240952   7.453   1.810   5.726  0.0362  0.4382 -0.1366
 5586TIP3    H140953   7.484   1.744   5.665  1.8764  0.7241  0.4239
 5586TIP3    H240954   7.530   1.833   5.778 -1.4008  0.3884  2.1324
 5587TIP3   OH240955   0.542   4.338   5.611 -0.1892 -0.3956  0.1681
 5587TIP3    H140956   0.535   4.425   5.650  0.3377 -0.7971  1.1943
 5587TIP3    H240957   0.452   4.313   5.591 -0.4619 -0.1164  1.0065
 5588TIP3   OH240958   3.082   2.250   5.717  0.1963 -0.0144  0.3557
 5588TIP3    H140959   3.030   2.189   5.769  0.5894 -2.1009 -1.5228
 5588TIP3    H240960   3.162   2.263   5.768  0.2190 -1.3328  0.7069
 5589TIP3   OH240961   2.536   7.309   5.777 -0.2895  0.5396 -0.1995
 5589TIP3    H140962   2.565   7.396   5.804 -0.7492  0.3063  1.0995
 5589TIP3    H240963   2.444   7.321   5.753 -1.2218 -0.0543  2.6840
 5590TIP3   OH240964   3.529   3.054   6.464  0.2863 -0.7356  0.2410
 5590TIP3    H140965   3.562   2.966   6.442  1.6867 -0.0183 -0.6472
 5590TIP3    H240966   3.533   3.103   6.382  2.3954  1.0164  1.2911
 5591TIP3   OH240967   8.270   5.148   6.150  0.5101  0.0235 -0.3455
 5591TIP3    H140968   8.343   5.184   6.100  0.3830 -0.4480 -0.8669
 5591TIP3    H240969   8.254   5.062   6.113  0.4757 -0.3760  0.5667
 5592TIP3   OH240970   4.299   6.524   5.341 -0.3017  0.0184 -0.1669
 5592TIP3    H140971   4.293   6.445   5.395 -2.0892 -1.0616 -1.7841
 5592TIP3    H240972   4.226   6.579   5.371 -1.0921 -0.4366 -1.2026
 5593TIP3   OH240973   2.730   0.307   5.286  0.2328  0.0996  0.3949
 5593TIP3    H140974   2.672   0.278   5.215  0.5473 -0.2534  0.2757
 5593TIP3    H240975   2.805   0.247   5.281  0.8199  0.8207  0.2626
 5594TIP3   OH240976   1.993   3.273   5.402 -0.1595  0.1367  0.0807
 5594TIP3    H140977   2.047   3.194   5.411 -1.0352 -0.3683  1.0927
 5594TIP3    H240978   2.055   3.345   5.411  0.1409 -0.3943  3.3215
 5595TIP3   OH240979   5.696   1.010   5.560  0.0477 -0.1185  0.1191
 5595TIP3    H140980   5.696   1.002   5.465  0.5386  0.3143  0.0791
 5595TIP3    H240981   5.644   1.089   5.577 -0.6277 -0.5778  0.2535
 5596TIP3   OH240982   6.288   3.049   6.145 -0.0571  0.2935  0.0801
 5596TIP3    H140983   6.234   3.035   6.223 -0.8300 -1.0349 -0.6548
 5596TIP3    H240984   6.369   3.003   6.163  0.3095  1.1334  0.6324
 5597TIP3   OH240985   3.798   1.515   5.129 -0.0859  0.9850  0.3620
 5597TIP3    H140986   3.735   1.587   5.137 -0.7501  0.3211  1.3803
 5597TIP3    H240987   3.883   1.558   5.127 -0.5162  1.8464  0.0537
 5598TIP3   OH240988   7.572   6.547   4.966  0.4171  0.2853  0.7212
 5598TIP3    H140989   7.660   6.580   4.949 -0.0981  1.5776  0.4648
 5598TIP3    H240990   7.514   6.615   4.933 -0.6948 -0.7647  0.4560
 5599TIP3   OH240991   2.533   0.376   5.471  0.4390 -0.4836 -0.1963
 5599TIP3    H140992   2.576   0.416   5.547 -1.1526  3.7084 -1.2550
 5599TIP3    H240993   2.605   0.352   5.413  1.5862  2.0538  0.0499
 5600TIP3   OH240994   6.749   0.419   7.005  0.0007 -0.1175 -0.7439
 5600TIP3    H140995   6.781   0.419   7.095 -0.0838  0.9485 -0.7044
 5600TIP3    H240996   6.821   0.382   6.954  0.5909  0.5650 -0.4170
 5601TIP3   OH240997   7.856   1.286   5.947 -0.0629 -0.5685  0.1706
 5601TIP3    H140998   7.860   1.300   5.852  1.2048 -1.1412  0.1144
 5601TIP3    H240999   7.941   1.247   5.968 -0.9668 -2.0096  1.2898
 5602TIP3   OH241000   8.526   6.800   5.477 -0.0692  0.0117  0.0329
 5602TIP3    H141001   8.611   6.765   5.451 -0.4245 -0.8427  0.0152
 5602TIP3    H241002   8.479   6.726   5.513 -0.8657  0.4505 -0.0791
 5603TIP3   OH241003   7.878   8.794   5.310  0.2519  0.4235 -0.2592
 5603TIP3    H141004   7.925   8.716   5.283 -0.2512 -0.0533  0.2317
 5603TIP3    H241005   7.794   8.762   5.343  0.2899  1.1080  0.5413
 5604TIP3   OH241006   0.137   7.882   5.559 -0.0023  0.6109 -0.5142
 5604TIP3    H141007   0.046   7.863   5.583  0.1536 -0.6800 -0.8653
 5604TIP3    H241008   0.132   7.963   5.508 -0.9913  0.4039 -0.7666
 5605TIP3   OH241009   1.077   8.275   4.963 -0.1982 -0.2371 -0.2171
 5605TIP3    H141010   1.172   8.268   4.969 -0.1888 -1.5393 -1.2605
 5605TIP3    H241011   1.060   8.369   4.954  0.6483  0.5094  4.0425
 5606TIP3   OH241012   3.836   7.400   6.604 -0.5561  0.1475  0.2268
 5606TIP3    H141013   3.843   7.408   6.699 -1.3678 -0.7730  0.3817
 5606TIP3    H241014   3.793   7.315   6.590  2.0128 -1.0487 -1.0478
 5607TIP3   OH241015   7.230   0.191   5.998  0.0928  0.0965 -0.5575
 5607TIP3    H141016   7.272   0.194   6.084  0.2150  2.4031 -0.6356
 5607TIP3    H241017   7.143   0.229   6.013 -0.2526 -0.3709 -1.3029
 5608TIP3   OH241018   0.989   5.810   6.807  0.3619 -0.5063 -0.2124
 5608TIP3    H141019   1.024   5.899   6.814  0.1158 -0.5125  1.7038
 5608TIP3    H241020   0.902   5.821   6.769 -0.4894  0.3607  1.8240
 5609TIP3   OH241021   6.842   4.656   6.647 -0.1854  0.2853 -0.4550
 5609TIP3    H141022   6.905   4.689   6.711  1.0019 -1.4286 -0.6607
 5609TIP3    H241023   6.890   4.590   6.597 -2.2344 -1.3899 -0.3824
 5610TIP3   OH241024   0.326   7.672   6.463 -0.0380 -0.3337  0.2436
 5610TIP3    H141025   0.243   7.673   6.511 -0.3485 -0.2610 -0.2859
 5610TIP3    H241026   0.304   7.633   6.379  0.1084  1.1367 -0.5172
 5611TIP3   OH241027   0.606   4.091   5.284  0.1692 -0.4693  0.1121
 5611TIP3    H141028   0.530   4.043   5.315  0.2410  0.1432  1.2965
 5611TIP3    H241029   0.664   4.095   5.360  0.4811  0.8442 -0.1781
 5612TIP3   OH241030   0.785   2.928   4.849 -0.2754  0.1434  0.5309
 5612TIP3    H141031   0.765   2.854   4.791 -0.7123  1.0596 -0.5469
 5612TIP3    H241032   0.868   2.905   4.890 -1.5693 -2.0370  2.1131
 5613TIP3   OH241033   9.100   6.430   6.167  0.5284  0.1092 -0.2291
 5613TIP3    H141034   9.177   6.448   6.222 -0.7793  0.2385  1.6484
 5613TIP3    H241035   9.028   6.418   6.230 -0.8558 -0.7096 -1.8976
 5614TIP3   OH241036   7.504   0.784   5.911 -0.9612  0.0823  0.3515
 5614TIP3    H141037   7.481   0.817   5.998  0.1823 -2.4621  1.7334
 5614TIP3    H241038   7.594   0.812   5.898 -0.8718 -0.1991  0.3543
 5615TIP3   OH241039   8.994   2.168   5.549  0.9725  0.3105  0.1916
 5615TIP3    H141040   8.948   2.249   5.526  1.9395  0.6457 -0.6010
 5615TIP3    H241041   9.010   2.124   5.465  0.8837 -0.4821  0.5742
 5616TIP3   OH241042   6.353   2.027   5.925 -0.4826  0.1335  0.1756
 5616TIP3    H141043   6.387   2.044   5.837  1.7545 -2.4142  0.4105
 5616TIP3    H241044   6.410   2.078   5.983  0.9446 -1.5605  0.3498
 5617TIP3   OH241045   0.779   3.080   5.513 -0.5541 -0.1815 -0.4185
 5617TIP3    H141046   0.728   3.111   5.588 -0.7324  0.6439 -0.8649
 5617TIP3    H241047   0.770   2.985   5.515  1.5494 -0.4300  2.1005
 5618TIP3   OH241048   8.338   3.564   6.705  0.0507 -0.0435 -0.1895
 5618TIP3    H141049   8.432   3.543   6.705  0.4793  1.7426 -0.0528
 5618TIP3    H241050   8.301   3.505   6.639  1.3277 -0.5417 -0.4982
 5619TIP3   OH241051   4.906   3.526   6.155 -0.4378 -0.0523 -0.0756
 5619TIP3    H141052   4.990   3.572   6.147  0.2109 -1.2497 -0.3195
 5619TIP3    H241053   4.922   3.458   6.221 -0.8073 -1.1541 -1.0812
 5620TIP3   OH241054   5.678   0.037   5.096 -0.4215 -0.0238  0.1480
 5620TIP3    H141055   5.704  -0.029   5.031 -0.9383 -0.8815  0.7811
 5620TIP3    H241056   5.653  -0.015   5.173 -0.1641  0.9564  0.9041
 5621TIP3   OH241057   0.101   0.869   5.866  0.8389  0.4265  0.0774
 5621TIP3    H141058   0.191   0.858   5.896  0.3034  0.4092  1.8104
 5621TIP3    H241059   0.077   0.958   5.893  0.4540  0.5783 -0.7265
 5622TIP3   OH241060   8.805   2.106   5.029  0.3363 -0.4368  0.2700
 5622TIP3    H141061   8.753   2.026   5.021  0.1421 -0.3189  0.3530
 5622TIP3    H241062   8.780   2.143   5.114 -0.3606  0.2704 -0.2335
 5623TIP3   OH241063   2.704   3.449   4.939 -0.1851  0.2830  0.3442
 5623TIP3    H141064   2.761   3.373   4.927 -0.4678 -0.0759  1.1634
 5623TIP3    H241065   2.713   3.500   4.858  0.6321 -0.2041  0.1225
 5624TIP3   OH241066   2.885   3.727   5.079 -0.2806 -0.2291  0.1939
 5624TIP3    H141067   2.926   3.806   5.044 -0.9077 -1.0196 -2.6068
 5624TIP3    H241068   2.958   3.671   5.104  0.2086  0.2521 -0.1347
 5625TIP3   OH241069   3.265   0.417   4.963  0.4202 -0.0494  0.3006
 5625TIP3    H141070   3.297   0.503   4.991  1.0752  0.3662 -1.6224
 5625TIP3    H241071   3.201   0.435   4.895  0.5053 -1.0906 -0.0771
 5626TIP3   OH241072   8.771   6.728   5.410 -0.4247 -0.0535  0.2847
 5626TIP3    H141073   8.790   6.693   5.323  1.2794  2.3690 -0.4529
 5626TIP3    H241074   8.843   6.697   5.465 -0.8255 -0.5599  0.5324
 5627TIP3   OH241075   7.564   0.832   5.385  0.0396 -0.3775 -0.4581
 5627TIP3    H141076   7.656   0.849   5.363 -0.1107 -1.8315 -2.4659
 5627TIP3    H241077   7.555   0.737   5.378 -1.0303 -0.5843  2.3313
 5628TIP3   OH241078   8.682   7.143   5.093 -0.3208  0.3392 -0.3643
 5628TIP3    H141079   8.761   7.090   5.081  0.0456  0.4850  1.2923
 5628TIP3    H241080   8.630   7.096   5.158 -0.2569  1.6891  0.7115
 5629TIP3   OH241081   8.998   2.912   4.788  0.0992  0.0384 -0.2949
 5629TIP3    H141082   8.918   2.960   4.769 -0.5588 -1.0409 -0.3314
 5629TIP3    H241083   9.030   2.949   4.870  0.4750  1.5978 -1.0971
 5630TIP3   OH241084   4.645   7.220   6.369 -0.3913  0.2233  0.3779
 5630TIP3    H141085   4.740   7.223   6.377 -0.3748  0.3390  0.1502
 5630TIP3    H241086   4.618   7.146   6.423 -0.0174 -0.8997 -0.9228
 5631TIP3   OH241087   1.261   2.245   5.282 -0.1578 -0.6453  0.4159
 5631TIP3    H141088   1.288   2.154   5.278 -0.1876 -0.6942  1.2463
 5631TIP3    H241089   1.277   2.279   5.193 -0.0856 -1.4307  0.1250
 5632TIP3   OH241090   0.396   7.892   5.636 -0.4140 -0.0459 -0.2261
 5632TIP3    H141091   0.372   7.870   5.726  0.7934 -1.4054 -0.2216
 5632TIP3    H241092   0.312   7.899   5.590 -0.9805 -1.1226  0.6068
 5633TIP3   OH241093   5.441   4.705   5.898  0.1039  0.0981 -0.2156
 5633TIP3    H141094   5.428   4.777   5.960 -0.7137 -1.3838  1.4494
 5633TIP3    H241095   5.373   4.718   5.831  0.6553  1.4327 -0.5377
 5634TIP3   OH241096   4.592   1.231   6.508  0.2876  0.8460  0.1149
 5634TIP3    H141097   4.585   1.161   6.443  0.5286  1.6987 -0.8555
 5634TIP3    H241098   4.668   1.206   6.561 -0.3460 -0.2341  0.5585
 5635TIP3   OH241099   1.209   8.981   6.240 -0.3337 -0.2870  0.5949
 5635TIP3    H141100   1.250   8.895   6.241  0.1881 -0.0424  1.6884
 5635TIP3    H241101   1.156   8.982   6.160 -0.6513 -1.7627  0.7699
 5636TIP3   OH241102   6.521   0.844   6.951 -0.5851  0.2262  0.0580
 5636TIP3    H141103   6.595   0.903   6.938 -0.1644 -0.9185 -4.3677
 5636TIP3    H241104   6.554   0.757   6.927 -3.0113 -0.5092 -0.9699
 5637TIP3   OH241105   6.325   0.282   5.101 -0.0270 -0.0671 -0.0524
 5637TIP3    H141106   6.381   0.357   5.123 -1.2628  0.7469  0.3864
 5637TIP3    H241107   6.280   0.260   5.183 -0.2021 -0.8533 -0.3497
 5638TIP3   OH241108   2.430   2.304   6.142 -0.0351  0.4635 -0.1059
 5638TIP3    H141109   2.518   2.283   6.174 -0.1599  3.0250  2.3169
 5638TIP3    H241110   2.371   2.263   6.205 -0.3815  2.6249  1.0721
 5639TIP3   OH241111   2.441   8.479   5.000  0.5426  0.5689  0.3844
 5639TIP3    H141112   2.537   8.477   5.007  0.5138 -0.5522  0.7834
 5639TIP3    H241113   2.421   8.413   4.933  0.1881  3.0996 -2.1543
 5640TIP3   OH241114   5.093   3.115   5.391 -0.0502  0.1379 -0.2424
 5640TIP3    H141115   5.115   3.047   5.327  0.5051 -0.4028  0.4956
 5640TIP3    H241116   5.177   3.142   5.427 -0.3069  0.9010 -0.2095
 5641TIP3   OH241117   6.257   6.790   6.964 -0.0615  0.0579  0.3433
 5641TIP3    H141118   6.303   6.874   6.959 -0.2534  0.1333 -0.1736
 5641TIP3    H241119   6.167   6.811   6.940 -0.4990  0.0023  1.8011
 5642TIP3   OH241120   1.746   6.854   5.668 -0.4216 -0.0598 -0.4400
 5642TIP3    H141121   1.680   6.811   5.613 -0.4993  0.7446 -0.9833
 5642TIP3    H241122   1.728   6.821   5.756 -1.5919  0.1840 -0.5709
 5643TIP3   OH241123   4.375   2.213   6.438  0.2772 -0.5553 -0.6753
 5643TIP3    H141124   4.462   2.180   6.458 -0.0312 -0.2294  1.4222
 5643TIP3    H241125   4.352   2.269   6.512 -1.4311 -0.0475 -1.5174
 5644TIP3   OH241126   8.655   7.465   6.334  0.2020  0.2058 -0.3877
 5644TIP3    H141127   8.750   7.462   6.341  0.1563  1.3438  1.3446
 5644TIP3    H241128   8.624   7.471   6.424 -1.4967  0.2802 -0.9378
 5645TIP3   OH241129   6.596   2.593   6.093  0.0078 -0.3763 -0.4329
 5645TIP3    H141130   6.670   2.554   6.047 -0.8626  0.6113 -2.8287
 5645TIP3    H241131   6.539   2.627   6.024 -1.9240  0.3023  1.3626
 5646TIP3   OH241132   7.317   5.653   5.996 -0.0502 -0.5354  0.0320
 5646TIP3    H141133   7.325   5.686   6.086 -3.3024  0.8425 -0.0663
 5646TIP3    H241134   7.295   5.561   6.007 -0.7524 -0.3016  0.6832
 5647TIP3   OH241135   2.646   6.969   6.767 -0.8658  0.1380 -0.5201
 5647TIP3    H141136   2.687   6.973   6.854 -0.5369  1.9030 -0.7349
 5647TIP3    H241137   2.709   6.919   6.714 -0.7589 -0.3797  0.0689
 5648TIP3   OH241138   5.325   1.952   6.476 -0.3307 -0.0297 -0.0038
 5648TIP3    H141139   5.242   1.971   6.519 -0.6218  0.6452 -0.8277
 5648TIP3    H241140   5.380   1.915   6.545 -1.0652  0.2067  0.7279
 5649TIP3   OH241141   0.721   4.145   5.529 -0.5792  0.0708 -0.3118
 5649TIP3    H141142   0.648   4.202   5.551 -0.2342  0.4274 -0.0827
 5649TIP3    H241143   0.799   4.194   5.554 -0.2198  0.0595 -1.3546
 5650TIP3   OH241144   3.082   1.347   5.274 -0.4634 -0.0508 -0.1534
 5650TIP3    H141145   3.098   1.387   5.189  0.6072 -2.4673 -1.1815
 5650TIP3    H241146   3.108   1.256   5.263 -1.5422 -0.7621  2.4038
 5651TIP3   OH241147   7.989   4.087   6.156  0.2501 -0.0216 -0.2709
 5651TIP3    H141148   7.985   4.180   6.176  0.3785 -0.1493  0.3786
 5651TIP3    H241149   7.932   4.076   6.079 -1.2867  0.2899  0.7809
 5652TIP3   OH241150   1.990   7.185   6.752  0.2671  0.0976  0.2220
 5652TIP3    H141151   2.040   7.103   6.758 -0.7453 -0.4526  2.2792
 5652TIP3    H241152   1.939   7.176   6.672  0.9030 -0.8526 -0.1032
 5653TIP3   OH241153   3.859   6.477   5.887  0.0394 -0.1177 -0.0642
 5653TIP3    H141154   3.885   6.552   5.941  0.0518  0.3788 -0.7476
 5653TIP3    H241155   3.792   6.513   5.828 -0.7521 -0.9041  0.3328
 5654TIP3   OH241156   3.530   8.972   6.140  0.1594 -0.3000 -0.6348
 5654TIP3    H141157   3.571   8.953   6.055  0.8887  1.8861 -0.8335
 5654TIP3    H241158   3.589   9.036   6.181 -1.2869  0.2893  0.5985
 5655TIP3   OH241159   0.282   5.109   5.475 -0.1924  0.4792 -0.0211
 5655TIP3    H141160   0.251   5.135   5.388 -0.5736  0.9233  0.2444
 5655TIP3    H241161   0.288   5.192   5.524 -1.4386  0.0822  0.8430
 5656TIP3   OH241162   7.497   7.951   5.648 -0.5421 -0.5194 -0.3788
 5656TIP3    H141163   7.590   7.932   5.640 -0.3297  0.6326 -0.8932
 5656TIP3    H241164   7.489   7.993   5.734 -0.4781 -0.0849 -0.5807
 5657TIP3   OH241165   4.506   7.830   5.419  0.4971  0.1042 -0.0419
 5657TIP3    H141166   4.576   7.796   5.475  1.2112  1.1486 -0.2848
 5657TIP3    H241167   4.430   7.776   5.441  1.9656 -2.8538 -1.6412
 5658TIP3   OH241168   7.348   6.747   5.472 -0.1738 -0.6825  0.0532
 5658TIP3    H141169   7.306   6.709   5.395 -0.7492 -1.5729  0.7893
 5658TIP3    H241170   7.307   6.833   5.481 -2.0153 -1.5665  0.8244
 5659TIP3   OH241171   5.343   8.514   6.309  0.3342  0.0069  0.0257
 5659TIP3    H141172   5.379   8.571   6.378 -0.5779  0.7452 -0.0864
 5659TIP3    H241173   5.416   8.504   6.248  1.1592 -0.6447  1.0662
 5660TIP3   OH241174   8.830   0.113   6.420 -0.1073 -0.4381  0.1491
 5660TIP3    H141175   8.769   0.169   6.372 -0.6292 -1.3718 -0.3061
 5660TIP3    H241176   8.914   0.159   6.415  0.0922 -0.9238 -2.4926
 5661TIP3   OH241177   8.747   4.998   5.635  0.4618  0.1267 -0.0724
 5661TIP3    H141178   8.812   5.032   5.572  2.1825 -0.5629  1.2608
 5661TIP3    H241179   8.744   4.904   5.618 -1.0092  0.2808 -0.8085
 5662TIP3   OH241180   6.091   1.434   5.761 -0.1652  0.4378 -0.5856
 5662TIP3    H141181   6.151   1.446   5.687 -1.5953 -1.9251 -2.2615
 5662TIP3    H241182   6.060   1.523   5.781  0.9594  1.2518 -2.1981
 5663TIP3   OH241183   4.822   2.166   5.205  0.4575 -0.1213  0.3946
 5663TIP3    H141184   4.818   2.235   5.271 -0.7076 -0.4496  0.6870
 5663TIP3    H241185   4.735   2.166   5.165  1.1455  0.1000 -1.1855
 5664TIP3   OH241186   7.053   4.176   5.906 -0.4910  0.5495  0.7949
 5664TIP3    H141187   7.032   4.086   5.883  0.3610  0.4490  0.4044
 5664TIP3    H241188   7.144   4.174   5.935  1.0404  1.8877 -3.1409
 5665TIP3   OH241189   2.400   4.004   5.632 -0.0419 -0.0558 -0.1299
 5665TIP3    H141190   2.334   4.055   5.584  0.3254  2.3377  1.7311
 5665TIP3    H241191   2.482   4.024   5.587 -0.1437 -0.5313 -0.5364
 5666TIP3   OH241192   2.782   8.794   5.057  0.2452  0.1538 -0.5789
 5666TIP3    H141193   2.803   8.715   5.008  0.8138  0.3827 -0.7139
 5666TIP3    H241194   2.697   8.776   5.097  0.7053 -0.8059 -0.0016
 5667TIP3   OH241195   7.663   6.377   5.513  0.4708 -0.3303 -0.2112
 5667TIP3    H141196   7.573   6.345   5.515  1.1605 -2.3792  0.1850
 5667TIP3    H241197   7.663   6.453   5.571 -0.7950 -0.8936  0.5560
 5668TIP3   OH241198   7.288   5.963   6.025 -0.0234 -0.4061 -0.6402
 5668TIP3    H141199   7.262   5.998   5.940  1.0437  2.5382  0.1286
 5668TIP3    H241200   7.253   6.026   6.088  1.3941 -1.1267  0.9329
 5669TIP3   OH241201   3.605   6.569   6.120  0.1365 -0.3582  0.2138
 5669TIP3    H141202   3.576   6.611   6.202 -2.1202  0.1098 -0.7503
 5669TIP3    H241203   3.524   6.541   6.078  1.2795 -0.9421 -1.7034
 5670TIP3   OH241204   1.798   8.542   5.002  0.9146  0.0545  0.7131
 5670TIP3    H141205   1.843   8.479   4.946 -1.3482  0.1772 -1.4134
 5670TIP3    H241206   1.808   8.626   4.957  0.6837  0.5435  1.5357
 5671TIP3   OH241207   0.781   2.165   6.101  0.0393  0.0049  0.5247
 5671TIP3    H141208   0.777   2.070   6.112 -0.2602 -0.0414  0.0460
 5671TIP3    H241209   0.854   2.179   6.040 -2.0838 -0.1935 -2.2422
 5672TIP3   OH241210   4.467   0.147   5.516 -0.7101  0.2017 -0.0377
 5672TIP3    H141211   4.513   0.174   5.437 -1.3293  0.8304 -0.1934
 5672TIP3    H241212   4.452   0.053   5.504 -0.3602  0.1980 -0.4407
 5673TIP3   OH241213   5.085   4.416   5.215  0.2990 -0.1828  0.3014
 5673TIP3    H141214   4.998   4.383   5.191 -0.9206  0.0832  3.7983
 5673TIP3    H241215   5.110   4.473   5.143 -2.3079 -0.4985 -0.9640
 5674TIP3   OH241216   4.750   1.532   5.678 -0.4497  0.6698 -0.5117
 5674TIP3    H141217   4.713   1.470   5.740  1.1437  0.6586  0.4972
 5674TIP3    H241218   4.773   1.479   5.601 -0.2893  0.2477 -0.1741
 5675TIP3   OH241219   6.678   7.247   5.932 -0.0283  0.4576  0.7511
 5675TIP3    H141220   6.746   7.301   5.892 -0.3226  0.3185  0.0506
 5675TIP3    H241221   6.671   7.171   5.875 -1.3734  0.8837  0.3202
 5676TIP3   OH241222   4.824   6.534   6.071 -0.1773 -0.1982  0.0661
 5676TIP3    H141223   4.908   6.576   6.089  0.8535 -2.4232  0.7806
 5676TIP3    H241224   4.771   6.554   6.148 -0.4902  1.5063 -0.5394
 5677TIP3   OH241225   1.223   2.624   6.580 -0.4265 -0.1587  0.0916
 5677TIP3    H141226   1.239   2.678   6.503  1.0266  1.2447  1.2998
 5677TIP3    H241227   1.185   2.685   6.644 -1.4817 -1.2613  0.5592
 5678TIP3   OH241228   5.898   1.254   5.818 -0.0951 -0.2621  0.4193
 5678TIP3    H141229   5.967   1.319   5.811 -0.7392  0.5264  1.1477
 5678TIP3    H241230   5.932   1.189   5.880 -0.1930  0.3950  1.1823
 5679TIP3   OH241231   1.925   0.906   6.016 -0.3872  0.0816  0.8204
 5679TIP3    H141232   2.002   0.891   5.961 -0.2293  2.0040  0.4539
 5679TIP3    H241233   1.912   0.823   6.061  1.3208 -0.5936  0.1729
 5680TIP3   OH241234   1.158   6.482   5.848  0.1422  0.0708  0.3470
 5680TIP3    H141235   1.142   6.406   5.903 -0.3274  0.6798  1.0769
 5680TIP3    H241236   1.180   6.446   5.762  0.5777 -0.8855  0.8498
 5681TIP3   OH241237   6.447   6.172   5.347 -0.2292 -0.5963 -0.5248
 5681TIP3    H141238   6.372   6.160   5.406 -1.2966  3.0367 -0.8925
 5681TIP3    H241239   6.408   6.210   5.268  1.9581  1.4766 -0.7051
 5682TIP3   OH241240   3.982   0.485   6.540 -0.1615  0.1534 -0.5163
 5682TIP3    H141241   3.940   0.402   6.515  0.3214 -0.1060 -0.4806
 5682TIP3    H241242   4.032   0.464   6.619 -2.9587  1.3407  1.7190
 5683TIP3   OH241243   8.669   8.331   6.566  0.2215 -0.2361  0.1036
 5683TIP3    H141244   8.694   8.260   6.624 -1.6984  0.0554  1.3940
 5683TIP3    H241245   8.671   8.409   6.621  0.5105  0.4118 -0.8046
 5684TIP3   OH241246   9.020   6.001   6.818  0.2561 -0.5465  0.1911
 5684TIP3    H141247   9.067   5.918   6.808 -0.5577 -1.0697  0.5910
 5684TIP3    H241248   9.075   6.065   6.774 -0.1063 -1.6458 -2.0386
 5685TIP3   OH241249   5.664   7.980   5.805  0.2593  0.9993 -0.4442
 5685TIP3    H141250   5.713   7.974   5.723  1.2206 -1.8130  0.2180
 5685TIP3    H241251   5.596   7.912   5.797  1.1405 -0.1929  1.5057
 5686TIP3   OH241252   6.429   0.893   5.190 -0.2429 -0.1774  0.0890
 5686TIP3    H141253   6.500   0.887   5.255  0.2871 -0.3855 -0.4944
 5686TIP3    H241254   6.374   0.817   5.208 -1.0294  0.6439  1.3413
 5687TIP3   OH241255   3.888   7.809   6.334 -0.5226  0.5801 -0.2684
 5687TIP3    H141256   3.796   7.830   6.322 -1.3561 -1.5936  1.6173
 5687TIP3    H241257   3.917   7.779   6.248 -1.7939  0.5380 -0.6996
 5688TIP3   OH241258   2.774   1.684   6.303 -0.4563  0.2191 -1.0113
 5688TIP3    H141259   2.824   1.720   6.376  0.1048  0.7085 -1.6143
 5688TIP3    H241260   2.683   1.709   6.321 -0.0894  1.9825 -1.4051
 5689TIP3   OH241261   1.695   5.126   5.918 -0.1462 -0.4639 -0.0321
 5689TIP3    H141262   1.668   5.102   5.830  0.2277  2.0123 -0.9067
 5689TIP3    H241263   1.740   5.049   5.952 -2.5389 -2.4076 -0.9525
 5690TIP3   OH241264   6.974   7.608   5.989  0.4299 -0.0017  0.0588
 5690TIP3    H141265   6.977   7.604   5.894  1.6678 -2.8476  0.1158
 5690TIP3    H241266   6.893   7.563   6.013  0.2073  0.5533  0.3743
 5691TIP3   OH241267   5.954   4.780   5.632  0.0053  0.2102 -0.1602
 5691TIP3    H141268   5.933   4.731   5.711  1.5010 -2.1703 -1.1345
 5691TIP3    H241269   5.915   4.730   5.561  1.1186  0.7056 -1.1682
 5692TIP3   OH241270   5.074   6.810   6.817  0.9589 -0.1399  0.3002
 5692TIP3    H141271   5.028   6.807   6.733  0.1515 -1.6799  0.7686
 5692TIP3    H241272   5.161   6.775   6.797  1.8855  2.3732 -0.4932
 5693TIP3   OH241273   5.267   0.459   5.571  0.4798 -0.4903  0.3137
 5693TIP3    H141274   5.238   0.375   5.537  0.0879 -0.1035 -0.3287
 5693TIP3    H241275   5.357   0.445   5.598  0.1161 -1.3732  1.1331
 5694TIP3   OH241276   7.688   1.514   6.467 -0.4492 -0.3095 -0.2904
 5694TIP3    H141277   7.649   1.468   6.392 -1.9137 -0.7582  0.7217
 5694TIP3    H241278   7.668   1.606   6.452  0.3409 -0.2524 -1.0656
 5695TIP3   OH241279   7.852   0.636   6.509 -0.1330 -0.5225 -0.5846
 5695TIP3    H141280   7.918   0.645   6.440  1.1419 -0.1162  0.6378
 5695TIP3    H241281   7.879   0.699   6.576 -0.4614 -1.9579  0.9561
 5696TIP3   OH241282   8.013   4.737   5.730  0.5111 -0.2265  0.1758
 5696TIP3    H141283   7.934   4.785   5.706  0.9578 -0.4285 -1.9460
 5696TIP3    H241284   7.987   4.645   5.728  0.7706 -0.2936 -0.5225
 5697TIP3   OH241285   7.174   2.222   5.620 -0.1415 -0.1139  0.0785
 5697TIP3    H141286   7.249   2.280   5.608 -0.7887  0.4725 -1.2595
 5697TIP3    H241287   7.191   2.179   5.705  0.3472  2.0058  1.1154
 5698TIP3   OH241288   8.664   8.306   7.039  0.3043  0.1835  0.3388
 5698TIP3    H141289   8.591   8.248   7.017  0.4839 -0.6513  1.7891
 5698TIP3    H241290   8.637   8.392   7.009 -1.8610  0.1375  1.9140
 5699TIP3   OH241291   3.821   1.920   6.007  0.1496  0.4946  0.4346
 5699TIP3    H141292   3.802   1.845   5.949  0.2559  0.7186  0.1101
 5699TIP3    H241293   3.741   1.929   6.059  0.4093 -0.3167  1.0013
 5700TIP3   OH241294   2.707   5.332   5.614  0.1002  0.0490  0.1485
 5700TIP3    H141295   2.649   5.407   5.599 -0.7743 -0.8347 -1.1378
 5700TIP3    H241296   2.795   5.369   5.613 -0.3355  1.1324  0.1443
 5701TIP3   OH241297   5.398   3.249   6.571 -0.5051 -0.3711  0.0473
 5701TIP3    H141298   5.383   3.344   6.572  0.1606 -0.1609 -2.5793
 5701TIP3    H241299   5.491   3.240   6.553 -0.2616 -1.5938  1.6661
 5702TIP3   OH241300   5.625   8.070   6.547  0.4376 -0.6329  0.2095
 5702TIP3    H141301   5.530   8.073   6.561  0.5906 -0.2653  1.2818
 5702TIP3    H241302   5.645   8.148   6.496  0.2576 -0.2669  0.6856
 5703TIP3   OH241303   8.877   2.424   5.435 -0.3609  0.0112 -0.2232
 5703TIP3    H141304   8.806   2.486   5.451 -0.1493 -0.0559  1.0110
 5703TIP3    H241305   8.930   2.465   5.366 -0.4408  1.0111  0.3007
 5704TIP3   OH241306   0.353   2.584   5.027  0.2663 -0.1010  0.1185
 5704TIP3    H141307   0.348   2.591   4.932  0.5245 -1.1711  0.0098
 5704TIP3    H241308   0.432   2.633   5.051  0.9087 -0.8693 -0.3604
 5705TIP3   OH241309   1.784   4.897   5.043 -0.8107  0.3773 -0.0441
 5705TIP3    H141310   1.843   4.875   5.115  1.9461  1.0605 -1.9313
 5705TIP3    H241311   1.751   4.813   5.012 -1.6554  0.0416  1.6234
 5706TIP3   OH241312   0.843   2.454   4.669 -0.3736  0.5678  0.2967
 5706TIP3    H141313   0.780   2.382   4.674 -0.2109  0.5168  2.3264
 5706TIP3    H241314   0.928   2.410   4.662 -0.3793  0.6077 -0.0673
 5707TIP3   OH241315   2.213   3.445   6.400  0.4953  0.6084 -0.9047
 5707TIP3    H141316   2.202   3.350   6.394 -0.9659  0.7140 -0.3597
 5707TIP3    H241317   2.307   3.459   6.402  0.7221 -0.8745 -0.3385
 5708TIP3   OH241318   2.535   3.774   5.750  0.2876  0.0839 -0.1053
 5708TIP3    H141319   2.579   3.813   5.826  0.7293  1.4707 -1.0391
 5708TIP3    H241320   2.475   3.842   5.720 -1.3240 -1.1597  0.1272
 5709TIP3   OH241321   2.359   0.004   6.010 -0.1883 -0.2803 -0.1283
 5709TIP3    H141322   2.417   0.068   5.969 -0.6554  0.8427  0.8951
 5709TIP3    H241323   2.285   0.056   6.043 -0.6020 -1.3425  0.6850
 5710TIP3   OH241324   3.421   8.865   6.406 -0.5692  0.3654 -0.0158
 5710TIP3    H141325   3.492   8.856   6.469 -0.3801  0.8043 -0.1650
 5710TIP3    H241326   3.459   8.914   6.333 -1.2922  1.5099  0.3495
 5711TIP3   OH241327   5.029   5.382   5.423  0.1197 -0.4304  0.2911
 5711TIP3    H141328   4.962   5.386   5.491  1.1205 -0.3046  1.2857
 5711TIP3    H241329   5.007   5.304   5.372 -1.3723  0.1678 -0.0443
 5712TIP3   OH241330   4.044   2.836   5.505  0.0273  0.0178 -0.7226
 5712TIP3    H141331   4.111   2.878   5.559 -0.2574 -1.5289  0.9640
 5712TIP3    H241332   4.089   2.761   5.465 -0.1833  0.1768 -1.2567
 5713TIP3   OH241333   0.876   3.819   6.767 -0.0127  0.2103 -0.4757
 5713TIP3    H141334   0.892   3.908   6.735 -2.7646 -0.1647 -3.3695
 5713TIP3    H241335   0.934   3.764   6.715  0.7977  0.1557  0.4539
 5714TIP3   OH241336   3.472   9.139   6.520 -0.7650  0.4295 -0.5179
 5714TIP3    H141337   3.480   9.190   6.601 -1.0784  0.2107 -0.3469
 5714TIP3    H241338   3.555   9.092   6.513 -0.6720  0.5756 -0.4122
 5715TIP3   OH241339   2.366   5.581   6.239  0.4765  0.3173  0.2759
 5715TIP3    H141340   2.394   5.497   6.204  1.2578  0.4200  0.6219
 5715TIP3    H241341   2.368   5.569   6.334 -0.1832  0.4903  0.3174
 5716TIP3   OH241342   2.368   7.864   5.997 -0.2326 -0.3346  0.5000
 5716TIP3    H141343   2.427   7.862   6.072  0.4390  1.6064  0.0883
 5716TIP3    H241344   2.423   7.841   5.922 -0.2214  0.3910  0.2688
 5717TIP3   OH241345   8.089   2.702   5.200 -0.0021  0.1221 -0.2909
 5717TIP3    H141346   8.151   2.766   5.164  2.4017 -2.0247 -0.2753
 5717TIP3    H241347   8.123   2.617   5.171 -2.0610 -1.2885  1.1273
 5718TIP3   OH241348   4.541   3.749   6.076  0.0367  0.2827 -0.3245
 5718TIP3    H141349   4.512   3.726   5.987  0.8248  1.2860 -0.8601
 5718TIP3    H241350   4.461   3.744   6.129 -0.4540 -0.2997 -1.0898
 5719TIP3   OH241351   1.442   2.623   6.275 -0.5068 -0.3960  0.0133
 5719TIP3    H141352   1.502   2.678   6.325 -1.9633  2.5108 -1.2236
 5719TIP3    H241353   1.355   2.661   6.291 -1.6185 -2.3177 -1.0159
 5720TIP3   OH241354   2.064   8.201   5.754  0.4365  0.3454 -0.4109
 5720TIP3    H141355   2.007   8.212   5.830  1.6032  0.6335  0.4560
 5720TIP3    H241356   2.008   8.161   5.688 -0.8352  0.8776  0.3062
 5721TIP3   OH241357   8.161   1.149   5.161  0.1204  0.0694 -0.8328
 5721TIP3    H141358   8.240   1.113   5.121  0.2108 -2.0073  0.9679
 5721TIP3    H241359   8.095   1.148   5.092  0.8452 -1.2288 -1.5309
 5722TIP3   OH241360   0.030   8.401   5.847  0.4373  0.1750  0.0369
 5722TIP3    H141361  -0.061   8.386   5.825  0.7391  0.1324 -1.2561
 5722TIP3    H241362   0.040   8.496   5.845  0.2392  0.2243  0.9956
 5723TIP3   OH241363   7.752   9.144   6.069 -0.0265 -0.4214  0.1221
 5723TIP3    H141364   7.687   9.182   6.010 -0.5637 -2.3074 -0.5608
 5723TIP3    H241365   7.729   9.051   6.074  1.5082 -0.7764  1.3395
 5724TIP3   OH241366   1.827   7.719   5.881  0.3577 -0.0650 -0.2506
 5724TIP3    H141367   1.812   7.627   5.858  0.5213  0.2501 -1.7264
 5724TIP3    H241368   1.749   7.744   5.932  0.5315 -1.1309  0.5797
 5725TIP3   OH241369   3.117   4.468   6.337 -0.1648  0.5551  0.2137
 5725TIP3    H141370   3.035   4.427   6.309  0.2108  0.9711 -1.6598
 5725TIP3    H241371   3.098   4.562   6.337  0.5556  0.7372 -1.2999
 5726TIP3   OH241372   0.099   2.016   4.828 -0.1890 -0.0445 -0.2170
 5726TIP3    H141373   0.017   2.055   4.859  0.5486  0.1787  1.6240
 5726TIP3    H241374   0.145   2.089   4.785 -0.4857  0.1088 -0.2797
 5727TIP3   OH241375   1.635   2.234   5.250  0.1715 -0.3130 -0.7292
 5727TIP3    H141376   1.621   2.142   5.271  1.1803 -0.3141  0.0007
 5727TIP3    H241377   1.570   2.281   5.303  1.0160 -0.4826  0.4713
 5728TIP3   OH241378   4.471   0.988   5.888  0.5610 -0.2619  0.1629
 5728TIP3    H141379   4.566   0.989   5.901  0.4725 -1.4618  1.0851
 5728TIP3    H241380   4.436   1.028   5.968  0.2891  0.5072 -0.3305
 5729TIP3   OH241381   1.993   9.180   5.898  0.6667 -0.4606  0.0794
 5729TIP3    H141382   1.965   9.239   5.828  1.2424 -0.6220 -0.2911
 5729TIP3    H241383   1.926   9.190   5.966  0.8978  0.8042  0.1339
 5730TIP3   OH241384   1.793   7.723   5.319  0.0778 -0.1169 -0.3654
 5730TIP3    H141385   1.757   7.711   5.407 -0.5730 -0.3178 -0.6536
 5730TIP3    H241386   1.886   7.703   5.328 -0.1156 -0.7961  0.1396
 5731TIP3   OH241387   8.210   0.386   5.389  1.2752  0.2220 -0.4218
 5731TIP3    H141388   8.262   0.461   5.418  0.7298  1.3542 -2.1750
 5731TIP3    H241389   8.237   0.372   5.299 -0.9624  0.4500 -1.1869
 5732TIP3   OH241390   9.036   1.684   6.418 -0.1137 -0.0803  0.6233
 5732TIP3    H141391   9.091   1.679   6.339 -0.5823  0.2217  0.2710
 5732TIP3    H241392   9.027   1.778   6.435 -0.6877 -0.1184  0.5536
 5733TIP3   OH241393   6.223   1.992   5.064  0.1305  0.7635 -0.4926
 5733TIP3    H141394   6.211   2.042   4.984  0.0372  0.9552 -0.3611
 5733TIP3    H241395   6.190   2.050   5.133 -0.2562  0.4034 -0.3681
 5734TIP3   OH241396   3.716   2.403   6.408  0.0273 -0.2509 -0.1586
 5734TIP3    H141397   3.766   2.361   6.338  2.4469 -1.6764  2.1813
 5734TIP3    H241398   3.747   2.493   6.409  1.1921 -0.6315  0.0234
 5735TIP3   OH241399   1.550   3.684   5.038  0.1507 -0.0026  0.5804
 5735TIP3    H141400   1.529   3.647   4.952  1.2990 -0.5184  0.4938
 5735TIP3    H241401   1.484   3.648   5.097  0.5825 -1.3467  0.2894
 5736TIP3   OH241402   7.810   0.476   7.567 -0.2158 -0.1972 -0.6106
 5736TIP3    H141403   7.817   0.563   7.528  1.1106 -1.3630 -3.1856
 5736TIP3    H241404   7.744   0.431   7.515 -2.5195 -0.1821  2.0401
 5737TIP3   OH241405   8.890   0.805   6.213  0.4033 -0.2811 -0.3015
 5737TIP3    H141406   8.813   0.791   6.268  0.9853 -0.9429  0.3730
 5737TIP3    H241407   8.861   0.781   6.125 -0.4108  0.3450 -0.2123
 5738TIP3   OH241408   8.106   3.778   5.342  0.5852  0.2500  0.6346
 5738TIP3    H141409   8.171   3.848   5.343  0.5704  0.2606  1.2698
 5738TIP3    H241410   8.142   3.711   5.284  2.2485 -0.7496  2.6953
 5739TIP3   OH241411   7.873   1.179   5.078  0.0791  0.0047 -0.0022
 5739TIP3    H141412   7.784   1.144   5.066  0.5987 -1.5843  0.4007
 5739TIP3    H241413   7.864   1.242   5.150 -0.6769 -0.4098  0.2862
 5740TIP3   OH241414   8.667   6.167   5.295 -0.0516  0.0783  0.0882
 5740TIP3    H141415   8.632   6.083   5.266  1.2000 -0.5431  0.2913
 5740TIP3    H241416   8.762   6.156   5.289  0.1743  2.4288 -2.5887
 5741TIP3   OH241417   2.585   1.741   6.973  0.0624 -0.0453  0.3651
 5741TIP3    H141418   2.624   1.654   6.982  1.7254  0.8170  2.3586
 5741TIP3    H241419   2.492   1.728   6.990  0.3070 -1.4033  0.7672
 5742TIP3   OH241420   6.854   0.030   7.112 -0.4465  0.4188  0.2548
 5742TIP3    H141421   6.771   0.030   7.065 -0.4102 -0.3468  0.1744
 5742TIP3    H241422   6.853   0.111   7.163  0.0714  1.9248 -2.0009
 5743TIP3   OH241423   5.711   0.827  10.538  0.4029 -0.3992 -0.2876
 5743TIP3    H141424   5.724   0.742  10.497  2.0510 -0.0631 -0.4994
 5743TIP3    H241425   5.643   0.869  10.485 -0.7665 -1.7289  0.0982
 5744TIP3   OH241426   6.504   5.182   6.525  0.2377  0.4373  0.1832
 5744TIP3    H141427   6.486   5.088   6.521  1.7850  0.1739 -2.0544
 5744TIP3    H241428   6.579   5.190   6.584 -0.4806  0.4290  1.1401
 5745TIP3   OH241429   2.457   6.673   5.477 -0.3105 -0.2912  0.0296
 5745TIP3    H141430   2.529   6.621   5.443 -0.7308  0.1195 -1.6163
 5745TIP3    H241431   2.381   6.646   5.425 -0.7492  1.2271 -0.1892
 5746TIP3   OH241432   4.524   5.492   5.803  0.1497  0.5075 -0.1497
 5746TIP3    H141433   4.485   5.408   5.827 -0.5457  1.2692  1.5690
 5746TIP3    H241434   4.479   5.556   5.859  2.3335  1.7164  0.3398
 5747TIP3   OH241435   8.327   1.569   6.263 -0.2388 -0.0546 -0.7373
 5747TIP3    H141436   8.235   1.591   6.245 -0.9875 -1.5179  1.0506
 5747TIP3    H241437   8.336   1.580   6.358  1.7388  1.0335 -1.0029
 5748TIP3   OH241438   6.237   2.300   6.789  0.1102 -0.4500 -0.3356
 5748TIP3    H141439   6.153   2.257   6.805  0.0616  0.1264  1.1129
 5748TIP3    H241440   6.227   2.387   6.827  1.2410 -0.2450 -0.4752
 5749TIP3   OH241441   5.267   0.258   5.200 -0.1995 -0.6576 -0.6113
 5749TIP3    H141442   5.307   0.342   5.176  0.0432 -1.4450 -3.3056
 5749TIP3    H241443   5.340   0.197   5.207 -0.4902 -0.9472 -0.0388
 5750TIP3   OH241444   8.569   3.717   6.338  0.0549 -0.0923  0.5629
 5750TIP3    H141445   8.646   3.770   6.358  2.2666 -3.2492  1.0623
 5750TIP3    H241446   8.514   3.724   6.417  0.5747  0.8876  0.8555
 5751TIP3   OH241447   6.859   4.178   5.003  0.2010  0.1770  0.7427
 5751TIP3    H141448   6.812   4.127   5.069 -0.3101  0.0474  0.2869
 5751TIP3    H241449   6.793   4.196   4.936  1.2148 -1.5507 -0.8001
 5752TIP3   OH241450   7.142   0.176   5.023  0.7193  0.2274  0.4987
 5752TIP3    H141451   7.105   0.217   4.944 -0.3390 -0.0597  0.8228
 5752TIP3    H241452   7.115   0.235   5.094 -0.3157 -0.6947  0.9011
 5753TIP3   OH241453   4.017   5.077   6.670 -0.2305 -0.3838  0.4177
 5753TIP3    H141454   3.926   5.066   6.697 -0.9393  1.3831 -0.9629
 5753TIP3    H241455   4.054   5.139   6.733 -0.2447 -0.4684  0.5078
 5754TIP3   OH241456   3.412   7.359   5.346 -0.2242 -0.4467  0.3251
 5754TIP3    H141457   3.328   7.352   5.392 -0.6219 -0.7661 -0.4235
 5754TIP3    H241458   3.389   7.398   5.261  0.5016  0.2034  0.4210
 5755TIP3   OH241459   0.449   8.527   6.001  0.3434 -0.5151  0.1091
 5755TIP3    H141460   0.422   8.435   5.992  1.0907 -0.6835 -0.5424
 5755TIP3    H241461   0.521   8.537   5.938 -0.4991  0.8357 -0.6916
 5756TIP3   OH241462   3.763   8.156   5.346  0.3295 -0.3836 -0.2513
 5756TIP3    H141463   3.784   8.248   5.359 -0.3288 -0.2409 -0.1866
 5756TIP3    H241464   3.721   8.128   5.427  0.4173 -0.7073 -0.3153
 5757TIP3   OH241465   6.072   0.042   5.748 -0.0647  0.2407 -0.1422
 5757TIP3    H141466   6.147   0.002   5.704 -0.9786 -0.4397 -1.0962
 5757TIP3    H241467   6.008  -0.028   5.756 -1.6040  1.3905 -1.6195
 5758TIP3   OH241468   8.984   7.683   4.679  0.2208  0.5293  0.5270
 5758TIP3    H141469   8.900   7.726   4.692 -0.5650 -0.9940  0.6988
 5758TIP3    H241470   8.969   7.592   4.705  1.2124 -0.3973 -1.8398
 5759TIP3   OH241471   1.626   6.373   6.696 -0.1134 -0.4520  0.1988
 5759TIP3    H141472   1.706   6.335   6.732  0.2968  0.8463  0.7345
 5759TIP3    H241473   1.635   6.363   6.602  0.5266 -0.6498  0.2734
 5760TIP3   OH241474   1.014   2.092   5.387 -0.6048 -0.1151  0.1478
 5760TIP3    H141475   0.998   2.109   5.480 -0.8606 -1.2404  0.3269
 5760TIP3    H241476   1.076   2.160   5.360 -2.1318  1.5405  0.5892
 5761TIP3   OH241477   3.539   1.952   6.058  0.2022 -0.0907  0.7367
 5761TIP3    H141478   3.464   2.011   6.052  0.8470  0.6348 -0.7140
 5761TIP3    H241479   3.517   1.880   5.999  1.1192  0.7262 -0.6692
 5762TIP3   OH241480   3.096   1.547   5.047  0.5397  0.2918  0.0875
 5762TIP3    H141481   3.084   1.531   4.953 -1.0889  0.3558  0.2536
 5762TIP3    H241482   3.185   1.582   5.054  0.7528  0.1263 -1.4100
 5763TIP3   OH241483   5.651   1.340   5.906 -0.1963  1.0255 -0.0892
 5763TIP3    H141484   5.742   1.311   5.897 -0.6275 -0.3509 -0.2804
 5763TIP3    H241485   5.648   1.424   5.861  0.5882  0.2226 -1.7347
 5764TIP3   OH241486   0.381   7.482   5.205 -0.1591  0.6738  0.7633
 5764TIP3    H141487   0.327   7.526   5.140 -0.1701 -0.6241 -0.1449
 5764TIP3    H241488   0.320   7.426   5.254 -0.0361  1.1093  1.4335
 5765TIP3   OH241489   5.684   7.110   5.490 -0.4680 -0.3665  0.2374
 5765TIP3    H141490   5.621   7.097   5.420  0.4280 -0.8946 -0.4920
 5765TIP3    H241491   5.730   7.026   5.497  1.7344  0.6563 -0.8644
 5766TIP3   OH241492   3.578   1.924   6.341 -0.1812  0.8799 -0.3166
 5766TIP3    H141493   3.559   1.896   6.251 -1.8550  1.2749 -0.1195
 5766TIP3    H241494   3.553   2.017   6.342  0.8157  1.1491  0.2885
 5767TIP3   OH241495   2.887   5.885   6.819  0.0719  0.1965 -0.0084
 5767TIP3    H141496   2.821   5.825   6.785 -1.7171  1.4202  1.1281
 5767TIP3    H241497   2.888   5.958   6.756 -0.0057  0.3905  0.2120
 5768TIP3   OH241498   3.222   7.825   6.116  0.4125 -0.4063  0.1258
 5768TIP3    H141499   3.276   7.803   6.192  1.1068  0.8986  0.0398
 5768TIP3    H241500   3.223   7.746   6.062  0.4079 -1.1403  1.1739
 5769TIP3   OH241501   2.080   0.474   6.589  0.0631  0.2989  0.0896
 5769TIP3    H141502   2.104   0.408   6.654  2.3395  0.2913 -0.6876
 5769TIP3    H241503   2.125   0.553   6.617 -0.5740  0.8462 -0.3885
 5770TIP3   OH241504   6.720   5.123   5.830 -0.0675  0.0177 -0.0578
 5770TIP3    H141505   6.649   5.070   5.866 -0.3760  0.4663  0.0053
 5770TIP3    H241506   6.799   5.085   5.867 -0.2147 -0.9786 -0.7386
 5771TIP3   OH241507   8.193   5.160   5.717 -0.3122  0.1147  0.6563
 5771TIP3    H141508   8.154   5.222   5.779  1.2822 -0.8813  2.7694
 5771TIP3    H241509   8.125   5.094   5.704 -0.9630  0.7584  0.7021
 5772TIP3   OH241510   8.050   3.372   5.627 -0.3047  0.6108 -0.1955
 5772TIP3    H141511   8.061   3.281   5.599 -2.0409  0.5262 -0.7088
 5772TIP3    H241512   8.093   3.423   5.559 -0.6535  0.2218 -0.7176
 5773TIP3   OH241513   6.384   9.204   6.181  0.1873  0.3313  0.3982
 5773TIP3    H141514   6.359   9.269   6.247 -0.2510  1.2044 -0.6046
 5773TIP3    H241515   6.479   9.210   6.177  0.0687  2.4559 -1.1498
 5774TIP3   OH241516   9.142   6.909   4.800 -0.4386 -0.0298  0.0788
 5774TIP3    H141517   9.123   6.983   4.857  0.3233  1.2068 -1.2003
 5774TIP3    H241518   9.058   6.890   4.758 -1.1347 -1.2972  1.9153
 5775TIP3   OH241519   6.729   1.769   5.406 -0.2810  0.3623 -0.1122
 5775TIP3    H141520   6.638   1.800   5.405 -0.6971 -0.8120 -0.5611
 5775TIP3    H241521   6.737   1.722   5.489  0.1999  1.2167  0.3400
 5776TIP3   OH241522   5.927   3.078   5.120 -0.0300 -0.3712  0.3018
 5776TIP3    H141523   5.851   3.136   5.121 -0.7932 -0.9821 -3.8522
 5776TIP3    H241524   6.002   3.137   5.132 -0.9042  1.2851 -1.6401
 5777TIP3   OH241525   3.913   8.713   5.358 -0.6332 -0.3761 -0.0053
 5777TIP3    H141526   3.959   8.792   5.330  1.2717 -1.9175 -1.4017
 5777TIP3    H241527   3.820   8.733   5.342 -0.2442  1.7106  0.0892
 5778TIP3   OH241528   5.324   7.958   6.682  0.0135 -0.2646  0.5331
 5778TIP3    H141529   5.293   7.922   6.599  0.7472  1.0983 -0.3635
 5778TIP3    H241530   5.401   7.905   6.703 -0.6063 -1.1102  0.7664
 5779TIP3   OH241531   4.911   6.862   6.038 -0.4521  0.1234 -0.2762
 5779TIP3    H141532   4.869   6.865   6.124 -1.6961  0.2806 -0.8555
 5779TIP3    H241533   5.001   6.838   6.056  0.1893  3.1613  1.3901
 5780TIP3   OH241534   0.621   0.427   6.882  0.7552  0.3543 -0.4185
 5780TIP3    H141535   0.688   0.495   6.884  0.1211  0.9836  0.1599
 5780TIP3    H241536   0.539   0.473   6.901  0.2168 -0.4620 -0.6936
 5781TIP3   OH241537   7.422   3.968   4.894  0.1621  0.2468 -0.4853
 5781TIP3    H141538   7.474   3.971   4.814 -1.5842 -1.0251 -1.7490
 5781TIP3    H241539   7.382   4.054   4.900 -1.0433 -0.1771 -1.9733
 5782TIP3   OH241540   7.021   1.789   6.281 -0.3152  0.2907 -0.2514
 5782TIP3    H141541   7.085   1.756   6.343  0.8965  1.7730 -0.6625
 5782TIP3    H241542   7.017   1.722   6.213  0.6674  0.1030 -0.1351
 5783TIP3   OH241543   1.804   5.973   5.601  0.3620  0.3114  0.2939
 5783TIP3    H141544   1.837   6.057   5.568  0.7652  0.4726  1.0882
 5783TIP3    H241545   1.772   5.928   5.523 -0.2029  1.3523 -0.1029
 5784TIP3   OH241546   2.798   6.208   5.777 -0.6516  0.4289 -0.1111
 5784TIP3    H141547   2.821   6.258   5.856  0.0848  0.3525 -0.2713
 5784TIP3    H241548   2.704   6.192   5.786 -0.6646  0.8053  0.5330
 5785TIP3   OH241549   3.759   0.385   6.828  0.8481  0.4887  0.3274
 5785TIP3    H141550   3.718   0.391   6.741  1.8261 -0.9640 -0.2597
 5785TIP3    H241551   3.823   0.456   6.828  0.7255  0.6058 -0.0564
 5786TIP3   OH241552   7.769   3.133   5.513  0.0990 -0.2191  0.1248
 5786TIP3    H141553   7.758   3.071   5.441 -0.8885  1.0404 -0.8568
 5786TIP3    H241554   7.764   3.220   5.472 -1.0974  0.5550  1.7746
 5787TIP3   OH241555   0.005   1.448   6.338  0.3029 -0.0406  0.0768
 5787TIP3    H141556   0.080   1.461   6.280  1.4125 -2.5802  0.7553
 5787TIP3    H241557   0.024   1.502   6.415  0.0876  1.3678 -0.8398
 5788TIP3   OH241558   5.406   3.560   5.239  0.5997  0.4608  0.1491
 5788TIP3    H141559   5.363   3.477   5.256 -0.7065  1.0755 -0.0447
 5788TIP3    H241560   5.499   3.540   5.240  0.2920 -1.2824 -1.2964
 5789TIP3   OH241561   1.941   6.298   6.164 -0.5633  0.3860  0.2212
 5789TIP3    H141562   1.934   6.372   6.103  1.3686  1.1903  0.8849
 5789TIP3    H241563   2.018   6.319   6.217  0.1267 -2.1695  0.3414
 5790TIP3   OH241564   6.477   8.691   5.188 -0.5046  0.2609  0.3854
 5790TIP3    H141565   6.398   8.637   5.194  0.1294 -0.6431  0.9297
 5790TIP3    H241566   6.477   8.723   5.098 -1.0420 -0.4326  0.1225
 5791TIP3   OH241567   1.025   1.922   5.795 -0.0535 -0.2502  0.3695
 5791TIP3    H141568   0.935   1.899   5.771 -0.0611  0.9322 -0.9504
 5791TIP3    H241569   1.039   2.007   5.753  1.5626 -0.2372  0.8629
 5792TIP3   OH241570   6.356   7.635   5.685  0.4793  0.2067 -0.5111
 5792TIP3    H141571   6.262   7.649   5.696  0.3784 -0.5870 -0.2973
 5792TIP3    H241572   6.394   7.723   5.681 -0.1443  0.5302  0.5078
 5793TIP3   OH241573   5.126   1.872   6.033 -0.4909 -0.1022  0.1964
 5793TIP3    H141574   5.124   1.966   6.050  0.7860  0.1028 -0.6290
 5793TIP3    H241575   5.126   1.832   6.120 -0.4027  0.6766  0.5634
 5794TIP3   OH241576   5.906   2.811   5.082 -0.2384 -0.0986  0.5461
 5794TIP3    H141577   5.922   2.788   4.991 -3.2269  0.9237 -0.3326
 5794TIP3    H241578   5.917   2.906   5.086  0.1357 -0.1590  1.3643
 5795TIP3   OH241579   5.586   4.492   5.959 -0.1429 -0.4325 -0.1900
 5795TIP3    H141580   5.527   4.553   5.916 -0.2546  0.3815  1.0688
 5795TIP3    H241581   5.589   4.521   6.050  2.3893 -0.2842 -0.2372
 5796TIP3   OH241582   5.235   4.477   5.676 -0.3567  0.2008  0.1476
 5796TIP3    H141583   5.157   4.525   5.647  0.2885  0.6393 -0.9303
 5796TIP3    H241584   5.291   4.475   5.599  1.2271  0.9262  1.2295
 5797TIP3   OH241585   1.150   0.265   5.500  0.2337 -0.0961  0.0788
 5797TIP3    H141586   1.074   0.319   5.523  0.4000  0.8387 -1.4262
 5797TIP3    H241587   1.225   0.312   5.538  0.1379 -0.7641  1.1456
 5798TIP3   OH241588   8.870   2.649   5.987 -0.2492 -0.2965  0.5324
 5798TIP3    H141589   8.930   2.639   5.913  1.7753 -0.6106  2.1094
 5798TIP3    H241590   8.793   2.692   5.951  1.0611  0.4355 -1.5465
 5799TIP3   OH241591   3.744   2.934   6.684 -0.3400  0.4524 -0.2019
 5799TIP3    H141592   3.774   3.024   6.679  0.8486  0.0615 -0.4924
 5799TIP3    H241593   3.658   2.939   6.725  0.1252  1.6223  0.6640
 5800TIP3   OH241594   5.359   5.739   5.589 -0.2563  0.4578  0.9741
 5800TIP3    H141595   5.282   5.689   5.614 -0.2349  0.0618  0.2684
 5800TIP3    H241596   5.371   5.801   5.660 -1.2599  0.5655  1.0657
 5801TIP3   OH241597   2.018   5.845   6.426  0.5071  0.2942 -0.1327
 5801TIP3    H141598   2.031   5.758   6.462  0.0073 -0.5856 -1.9217
 5801TIP3    H241599   2.037   5.835   6.332  2.1827  2.5184 -0.1199
 5802TIP3   OH241600   4.232   2.805   6.017  0.0392 -0.2224 -0.1240
 5802TIP3    H141601   4.142   2.772   6.007  0.2175 -1.3609  1.6590
 5802TIP3    H241602   4.229   2.893   5.980 -1.1996 -1.1003 -2.3171
 5803TIP3   OH241603   1.206   4.770   5.785  0.3255 -0.0155  0.6442
 5803TIP3    H141604   1.150   4.736   5.715  1.3288 -0.0024 -0.1904
 5803TIP3    H241605   1.293   4.777   5.745  0.4822  2.0583  1.2428
 5804TIP3   OH241606   1.766   2.879   6.288  0.1490  0.1682 -0.2502
 5804TIP3    H141607   1.783   2.801   6.235  2.1393 -1.0486  1.9816
 5804TIP3    H241608   1.687   2.856   6.338 -0.8465  0.7162 -1.5254
 5805TIP3   OH241609   6.193   1.276   6.194 -0.2920  0.0257  0.8893
 5805TIP3    H141610   6.265   1.218   6.171 -1.7458 -1.1674 -0.9179
 5805TIP3    H241611   6.229   1.334   6.261  2.8202  0.4928 -0.9897
 5806TIP3   OH241612   8.559   7.004   5.292  0.0732 -0.5264 -0.0384
 5806TIP3    H141613   8.494   6.971   5.230  2.5642 -1.9039 -2.1685
 5806TIP3    H241614   8.558   6.940   5.364 -0.5984 -0.7694 -0.2547
 5807TIP3   OH241615   4.317   2.596   6.425  0.4747  0.0410  0.6929
 5807TIP3    H141616   4.282   2.580   6.337 -2.2895  0.0559  1.6935
 5807TIP3    H241617   4.324   2.691   6.431 -2.6685  0.3213  1.5489
 5808TIP3   OH241618   3.856   4.349   5.648 -0.3385 -0.1600  0.2191
 5808TIP3    H141619   3.821   4.303   5.724 -1.2112  0.8278  0.4324
 5808TIP3    H241620   3.921   4.289   5.612 -1.0559 -1.3328  0.8054
 5809TIP3   OH241621   0.732   1.261   5.197 -0.2086 -0.6427  0.1300
 5809TIP3    H141622   0.657   1.231   5.146 -0.3990  0.2888 -0.1668
 5809TIP3    H241623   0.699   1.272   5.286 -1.4464  3.0277 -0.5926
 5810TIP3   OH241624   7.655   1.518   5.651  0.0967  0.5126 -0.3851
 5810TIP3    H141625   7.660   1.585   5.720 -0.5936  0.3598 -0.1825
 5810TIP3    H241626   7.567   1.526   5.616  0.5752  0.8659 -1.5525
 5811TIP3   OH241627   9.034   7.296   5.510  0.0522 -0.0892 -0.2795
 5811TIP3    H141628   9.093   7.232   5.470 -1.8452 -1.7115 -0.6654
 5811TIP3    H241629   8.947   7.257   5.499 -0.8754  0.9891  2.4830
 5812TIP3   OH241630   1.216   8.448   4.742  0.7619  0.1849  0.2259
 5812TIP3    H141631   1.130   8.479   4.772  0.8338 -0.8355  1.6015
 5812TIP3    H241632   1.272   8.526   4.745 -0.0751  0.8365 -0.5983
 5813TIP3   OH241633   1.139   7.960   5.912 -0.4279 -0.1951 -0.0526
 5813TIP3    H141634   1.138   8.033   5.850  0.6535  0.9611  1.1991
 5813TIP3    H241635   1.048   7.932   5.919 -1.1055  1.8996  0.3490
 5814TIP3   OH241636   6.316   8.083   5.688 -0.0938 -0.6596 -0.5175
 5814TIP3    H141637   6.352   7.994   5.693 -0.8727 -0.9530  0.0627
 5814TIP3    H241638   6.383   8.134   5.642  0.2639 -1.5960 -1.0553
 5815TIP3   OH241639   7.332   7.784   5.497  0.1766  0.3232  0.0480
 5815TIP3    H141640   7.377   7.865   5.520  0.4965  0.3174 -0.5367
 5815TIP3    H241641   7.244   7.793   5.534  0.0461  1.1538 -0.4471
 5816TIP3   OH241642   2.144   7.004   6.265 -0.1584 -0.1140 -0.0778
 5816TIP3    H141643   2.218   7.061   6.286 -0.6908  0.7338 -0.4713
 5816TIP3    H241644   2.107   6.980   6.350 -0.6718  1.1385  0.0792
 5817TIP3   OH241645   3.618   0.260   6.556 -0.0258  0.2398  0.0949
 5817TIP3    H141646   3.596   0.353   6.543 -1.1816  0.2727  1.9582
 5817TIP3    H241647   3.714   0.257   6.550 -0.0531  1.2400 -1.6196
 5818TIP3   OH241648   7.810   5.314   5.670 -0.3239  0.6971  0.0856
 5818TIP3    H141649   7.828   5.308   5.576  0.6453 -0.8129  0.3182
 5818TIP3    H241650   7.896   5.304   5.711 -1.0145 -1.3944  1.1604
 5819TIP3   OH241651   4.744   9.126   5.561 -0.0993 -0.5188  0.1685
 5819TIP3    H141652   4.668   9.101   5.509  0.2473 -2.4989  0.5340
 5819TIP3    H241653   4.707   9.156   5.644 -0.5315 -3.0750  1.0048
 5820TIP3   OH241654   2.295   6.910   5.254 -0.4721  0.4041 -0.7250
 5820TIP3    H141655   2.282   6.994   5.211  0.8695  1.8400  1.4401
 5820TIP3    H241656   2.390   6.897   5.255 -0.5755 -0.4687  0.1333
 5821TIP3   OH241657   2.828   8.481   7.015 -0.3790 -0.4410 -0.2209
 5821TIP3    H141658   2.772   8.411   7.049  0.3173 -0.8282  0.1619
 5821TIP3    H241659   2.900   8.486   7.078 -0.5129  0.7506 -0.1438
 5822TIP3   OH241660   8.582   4.436   5.639 -0.1786  0.3884  0.6616
 5822TIP3    H141661   8.543   4.457   5.554 -0.1984  2.0144  1.0543
 5822TIP3    H241662   8.676   4.430   5.620 -0.2905 -0.4595  0.3117
 5823TIP3   OH241663   1.093   7.177   5.272 -0.2180  0.1321 -0.5574
 5823TIP3    H141664   1.136   7.154   5.189  0.6019 -0.6275  0.0555
 5823TIP3    H241665   1.035   7.103   5.289 -2.8038  1.6802 -1.9912
 5824TIP3   OH241666   1.812   7.164   4.489 -0.3190 -0.1160 -0.1937
 5824TIP3    H141667   1.894   7.173   4.539 -1.6482  1.2499  1.9169
 5824TIP3    H241668   1.758   7.237   4.520 -3.4927 -2.6914  0.8507
 5825TIP3   OH241669   3.453   3.135   6.218 -0.0459  0.1327 -0.0394
 5825TIP3    H141670   3.516   3.097   6.157 -0.9080 -1.2230 -0.1170
 5825TIP3    H241671   3.385   3.069   6.228 -1.8083  1.7876 -0.4465
 5826TIP3   OH241672   8.383   4.066   4.928  0.1342 -0.1859 -0.0922
 5826TIP3    H141673   8.376   4.115   5.010 -2.1447  0.2469 -0.4660
 5826TIP3    H241674   8.454   4.109   4.881  1.0226 -0.0065  1.3549
 5827TIP3   OH241675   4.478   3.761   5.815  0.1855  0.1685  0.1618
 5827TIP3    H141676   4.573   3.751   5.805  0.4355 -2.0822  3.1400
 5827TIP3    H241677   4.440   3.691   5.762  0.3101  0.1203  0.1373
 5828TIP3   OH241678   1.907   4.378   5.590  0.4043  0.5377  0.0357
 5828TIP3    H141679   1.843   4.308   5.602 -0.3914  0.7126 -2.6870
 5828TIP3    H241680   1.863   4.457   5.622  0.4566  0.1896  1.0077
 5829TIP3   OH241681   1.404   0.058   5.022 -0.4868  0.1084  0.0232
 5829TIP3    H141682   1.358  -0.025   5.009  0.3250 -0.4165  0.4071
 5829TIP3    H241683   1.376   0.088   5.109 -1.0077  0.3874 -0.2401
 5830TIP3   OH241684   4.399   6.862   5.515  0.7906 -0.5115  0.5743
 5830TIP3    H141685   4.461   6.934   5.504  0.6172  0.1242  2.9948
 5830TIP3    H241686   4.313   6.902   5.505  0.7149 -0.8451 -0.1720
 5831TIP3   OH241687   2.677   8.245   7.059  0.4031  0.0216 -0.2913
 5831TIP3    H141688   2.721   8.176   7.011  0.3710 -0.8811  0.9444
 5831TIP3    H241689   2.614   8.200   7.115 -1.5415  1.2006 -1.3680
 5832TIP3   OH241690   7.663   8.938   4.803 -0.3095 -0.8808  0.3047
 5832TIP3    H141691   7.588   8.895   4.843  0.5556 -1.0886  1.7744
 5832TIP3    H241692   7.735   8.926   4.866  0.6672  0.2832 -0.5275
 5833TIP3   OH241693   1.143   3.603   5.368  0.4977  0.4869  0.0344
 5833TIP3    H141694   1.101   3.628   5.450 -1.0704 -1.0021 -0.2694
 5833TIP3    H241695   1.171   3.512   5.382  2.1713  0.8974 -0.3658
 5834TIP3   OH241696   5.497   2.048   5.170  0.0686  0.3618 -0.2163
 5834TIP3    H141697   5.476   2.060   5.263 -1.2558 -0.0334 -0.4373
 5834TIP3    H241698   5.479   1.955   5.154 -0.0373  0.5006 -0.9316
 5835TIP3   OH241699   6.711   5.297   6.216 -0.6579  0.0547  0.1145
 5835TIP3    H141700   6.626   5.254   6.209 -1.1278  1.0158 -0.1972
 5835TIP3    H241701   6.772   5.226   6.233 -1.3701 -0.7767 -0.7132
 5836TIP3   OH241702   1.490   3.727   5.626  0.1822  0.1627 -0.0832
 5836TIP3    H141703   1.507   3.806   5.575 -1.1582  0.5966  0.1067
 5836TIP3    H241704   1.521   3.749   5.714  0.0739  0.3740 -0.0973
 5837TIP3   OH241705   8.469   4.121   5.485 -0.0293 -0.1177 -0.1523
 5837TIP3    H141706   8.564   4.116   5.472 -0.2385 -2.9219 -1.1898
 5837TIP3    H241707   8.440   4.189   5.425  1.1841 -0.2177 -0.8760
 5838TIP3   OH241708   1.730   6.105   6.983  0.6727  0.2623  0.0904
 5838TIP3    H141709   1.686   6.190   6.974  1.2819  0.3867 -2.4138
 5838TIP3    H241710   1.797   6.120   7.050  0.3015  1.5459  0.2030
 5839TIP3   OH241711   0.905   3.541   6.950 -0.3122  0.2039 -0.5917
 5839TIP3    H141712   0.923   3.620   6.899  0.1720  0.7476  0.3924
 5839TIP3    H241713   0.991   3.505   6.969 -0.5180 -0.3690 -0.7106
 5840TIP3   OH241714   7.414   6.785   4.928  0.8108 -0.1878 -0.2434
 5840TIP3    H141715   7.469   6.856   4.896  0.1343  0.0091 -0.9891
 5840TIP3    H241716   7.337   6.828   4.966  0.0089 -0.5165 -1.4286
 5841TIP3   OH241717   4.907   7.216   6.415 -0.2592 -0.3878 -0.0484
 5841TIP3    H141718   4.991   7.195   6.375 -0.3617  0.0389 -0.4972
 5841TIP3    H241719   4.929   7.262   6.496 -0.0655  0.3721 -0.5306
 5842TIP3   OH241720   4.469   2.695   6.710 -0.1048 -0.5886  0.1794
 5842TIP3    H141721   4.386   2.711   6.755  1.6999  0.9131  3.2740
 5842TIP3    H241722   4.499   2.782   6.684  0.9177 -1.0157 -0.1165
 5843TIP3   OH241723   7.176   3.888   5.000 -0.0691  0.1264 -0.4547
 5843TIP3    H141724   7.258   3.905   4.953 -0.2377 -0.3156 -0.9181
 5843TIP3    H241725   7.145   3.975   5.026  0.2068  0.3495 -0.8569
 5844TIP3   OH241726   2.756   0.046   5.985 -0.8313 -0.3027 -0.0289
 5844TIP3    H141727   2.832   0.015   6.034  0.8073  0.1787 -2.1087
 5844TIP3    H241728   2.764   0.004   5.899 -2.1517  0.8381 -0.7556
 5845TIP3   OH241729   5.024   3.971   6.071  0.0615  0.0125 -0.2847
 5845TIP3    H141730   4.946   3.916   6.069  0.1809 -0.2867  1.3397
 5845TIP3    H241731   4.992   4.059   6.048 -0.2187 -0.5848 -2.3450
 5846TIP3   OH241732   6.716   4.827   5.190 -0.0352 -0.3243  0.1555
 5846TIP3    H141733   6.786   4.883   5.226  0.0714  0.3917 -1.1092
 5846TIP3    H241734   6.635   4.869   5.221  0.0714 -0.5299  0.7244
 5847TIP3   OH241735   1.085   1.421   5.875 -0.3745  0.5409 -0.8552
 5847TIP3    H141736   1.013   1.415   5.813 -0.5378  0.2146 -0.6383
 5847TIP3    H241737   1.090   1.514   5.898  1.5238  1.2133 -3.5008
 5848TIP3   OH241738   5.556   7.229   7.031 -0.3180  0.8134  0.0825
 5848TIP3    H141739   5.598   7.181   7.103  0.0710 -1.1033 -1.3492
 5848TIP3    H241740   5.628   7.276   6.989  0.2010 -1.1752 -1.3745
 5849TIP3   OH241741   9.026   5.725   6.483  0.0963  0.5627 -0.4447
 5849TIP3    H141742   8.942   5.749   6.446 -0.2701  1.2943  0.7820
 5849TIP3    H241743   9.010   5.641   6.527  0.5613 -0.3653 -1.9948
 5850TIP3   OH241744   3.999   8.732   6.702 -0.1299  0.3684  0.0732
 5850TIP3    H141745   3.917   8.690   6.675 -0.4919  1.1447 -0.0828
 5850TIP3    H241746   4.040   8.758   6.619  0.0506  0.3894  0.1696
 5851TIP3   OH241747   1.375   0.489   5.581  0.0143 -0.5382 -0.0777
 5851TIP3    H141748   1.461   0.456   5.608  0.0965  0.3117  0.7309
 5851TIP3    H241749   1.348   0.548   5.652 -0.7538  0.0451 -0.8349
 5852TIP3   OH241750   4.437   7.880   4.824  0.5894 -0.1951  0.2357
 5852TIP3    H141751   4.474   7.856   4.739  2.7412 -1.3337  1.4390
 5852TIP3    H241752   4.471   7.968   4.841  0.5782 -0.1781  0.1719
 5853TIP3   OH241753   0.712   7.375   6.210 -0.0329  0.3310 -0.0785
 5853TIP3    H141754   0.705   7.305   6.275 -1.2995  0.5009 -0.0101
 5853TIP3    H241755   0.662   7.447   6.247  0.1303  0.8016 -0.7594
 5854TIP3   OH241756   7.783   1.992   6.007  0.1512  0.2811  0.2570
 5854TIP3    H141757   7.827   1.983   5.923  0.4930 -2.0994  0.6426
 5854TIP3    H241758   7.697   2.028   5.985  0.1310 -0.5586 -1.1377
 5855TIP3   OH241759   5.893   0.176   5.199 -0.0431  0.1797  0.2254
 5855TIP3    H141760   5.835   0.109   5.162  1.5396 -0.2309 -1.7093
 5855TIP3    H241761   5.907   0.238   5.127  2.4567 -0.1504  0.3326
 5856TIP3   OH241762   6.809   6.194   6.790 -0.4704 -0.4096 -0.1499
 5856TIP3    H141763   6.740   6.249   6.829  0.1966  1.8264 -1.9139
 5856TIP3    H241764   6.777   6.105   6.802 -1.2441  0.1900  3.5968
 5857TIP3   OH241765   4.473   5.983   6.066 -0.2649 -0.2375  0.2334
 5857TIP3    H141766   4.486   5.935   6.148 -0.3139  1.2905  1.2021
 5857TIP3    H241767   4.561   6.004   6.036 -0.2514  0.3223  0.6319
 5858TIP3   OH241768   3.347   3.628   6.184 -0.5410 -0.2361 -0.1733
 5858TIP3    H141769   3.389   3.655   6.266 -0.2320 -0.2038 -0.3406
 5858TIP3    H241770   3.292   3.554   6.209 -0.0982 -0.5208 -0.0116
 5859TIP3   OH241771   3.244   6.049   5.486 -0.1871 -0.0713  0.1094
 5859TIP3    H141772   3.202   6.130   5.455 -0.3042 -0.6168 -1.2569
 5859TIP3    H241773   3.172   5.988   5.500  0.0624 -1.0595 -2.3881
 5860TIP3   OH241774   6.717   1.429   5.738  0.2466  0.4441 -0.3486
 5860TIP3    H141775   6.664   1.508   5.722  0.3342  0.5604 -0.0729
 5860TIP3    H241776   6.654   1.365   5.772  0.1332  0.3211 -0.7874
 5861TIP3   OH241777   0.147   0.300   5.018  0.0881 -0.3535  0.1291
 5861TIP3    H141778   0.073   0.314   4.960 -0.1484 -0.9148  0.2910
 5861TIP3    H241779   0.140   0.369   5.083 -0.8887 -1.0073  0.7434
 5862TIP3   OH241780   7.555   8.570   5.049 -0.4360  0.0622  0.4817
 5862TIP3    H141781   7.597   8.607   5.126  1.0285 -0.0914 -0.2170
 5862TIP3    H241782   7.461   8.573   5.069 -0.1605  1.1947  1.7299
 5863TIP3   OH241783   2.741   0.956   7.107 -0.1664  0.3493 -0.3690
 5863TIP3    H141784   2.812   1.013   7.078 -0.8759  0.2086 -2.5151
 5863TIP3    H241785   2.663   0.992   7.066 -0.7543 -1.7096 -1.1638
 5864TIP3   OH241786   0.169   1.021   4.949  0.5780  1.0169 -0.3801
 5864TIP3    H141787   0.239   0.958   4.969  1.1450  2.4410  2.6407
 5864TIP3    H241788   0.088   0.971   4.959  0.9656 -0.7219 -4.1489
 5865TIP3   OH241789   2.902   8.856   5.307 -0.3647 -0.6392  0.0387
 5865TIP3    H141790   2.882   8.849   5.213  0.6187 -0.1526 -0.2210
 5865TIP3    H241791   2.880   8.946   5.329  1.0167 -0.2229 -0.1524
 5866TIP3   OH241792   8.527   7.217   6.906  0.1931  0.2300 -0.5018
 5866TIP3    H141793   8.534   7.305   6.942  1.4585  0.6433 -1.6955
 5866TIP3    H241794   8.435   7.209   6.879  0.2073  1.4147 -0.9508
 5867TIP3   OH241795   5.773   4.730   5.851  0.2180  0.3840 -0.0479
 5867TIP3    H141796   5.827   4.720   5.930  0.8376 -1.7218 -0.6673
 5867TIP3    H241797   5.695   4.678   5.870  0.2659  0.0643 -0.7042
 5868TIP3   OH241798   0.699   4.270   5.836 -0.0158 -0.5439  0.1114
 5868TIP3    H141799   0.657   4.269   5.750  1.3545 -0.7210 -0.5752
 5868TIP3    H241800   0.653   4.202   5.885 -2.5136  1.2241  0.4168
 5869TIP3   OH241801   6.635   0.648   5.604  0.5997  0.7718 -0.2655
 5869TIP3    H141802   6.627   0.665   5.698 -0.0781 -1.2622  0.0900
 5869TIP3    H241803   6.710   0.589   5.597  0.5671  0.8142 -0.9925
 5870TIP3   OH241804   0.187   0.706   6.780 -0.6262 -0.0345  0.5013
 5870TIP3    H141805   0.178   0.640   6.710 -0.1048 -1.4468  1.7148
 5870TIP3    H241806   0.115   0.685   6.841  1.5941 -1.8541  2.7080
 5871TIP3   OH241807   0.057   2.692   6.647  0.2185 -0.0024  0.0190
 5871TIP3    H141808   0.147   2.713   6.622  0.3707 -0.2724  0.3269
 5871TIP3    H241809   0.031   2.622   6.588  0.3923 -0.2774  0.2660
 5872TIP3   OH241810   7.644   0.196   6.903 -0.2986 -0.0684 -0.2506
 5872TIP3    H141811   7.621   0.248   6.980 -1.2123 -1.0933  0.1912
 5872TIP3    H241812   7.631   0.256   6.829 -1.1060  0.4046  0.2655
 5873TIP3   OH241813   3.586   6.325   5.757 -0.1919 -0.4599  0.0798
 5873TIP3    H141814   3.664   6.279   5.726 -0.4434 -0.9665  0.1904
 5873TIP3    H241815   3.514   6.284   5.710 -0.2559  1.1851 -1.3868
 5874TIP3   OH241816   8.839   0.586   6.619  0.4615 -0.1834  0.4393
 5874TIP3    H141817   8.898   0.594   6.693  0.0393 -1.7130  0.9792
 5874TIP3    H241818   8.888   0.537   6.554  0.6555  0.7273 -0.1189
 5875TIP3   OH241819   0.016   7.138   6.028 -0.2443  0.3827  0.1716
 5875TIP3    H141820   0.083   7.201   6.053  1.2160 -1.1843  0.3642
 5875TIP3    H241821  -0.014   7.101   6.111 -1.3505  1.0338  0.0839
 5876TIP3   OH241822   0.969   2.025   6.607 -0.2246  0.0778 -0.3640
 5876TIP3    H141823   0.912   1.948   6.601 -0.5556  0.2110  0.7734
 5876TIP3    H241824   1.051   1.997   6.567 -0.7796 -0.4232 -1.1802
 5877TIP3   OH241825   0.111   5.892   5.913 -0.0879  0.2522  0.0939
 5877TIP3    H141826   0.100   5.948   5.837 -0.8933 -0.0057  0.0124
 5877TIP3    H241827   0.205   5.875   5.918  0.0788  1.0644 -0.2641
 5878TIP3   OH241828   5.517   1.476   5.281  0.8409  0.1202 -0.5072
 5878TIP3    H141829   5.521   1.509   5.192 -2.3344 -0.5548 -1.0297
 5878TIP3    H241830   5.513   1.381   5.271 -2.0149  0.0849  0.0605
 5879TIP3   OH241831   6.545   1.636   5.704  0.4094 -0.1411 -0.2511
 5879TIP3    H141832   6.564   1.722   5.667  0.7858 -0.3717 -0.5981
 5879TIP3    H241833   6.488   1.654   5.779  1.4640  0.5168  0.4196
 5880TIP3   OH241834   1.538   3.517   6.485  0.3981  0.4113 -0.0685
 5880TIP3    H141835   1.606   3.536   6.420  0.5714  1.7697  0.4777
 5880TIP3    H241836   1.583   3.467   6.553  0.9216  1.4416  0.3687
 5881TIP3   OH241837   9.084   5.743   5.734 -0.2943 -0.2677 -0.4931
 5881TIP3    H141838   9.010   5.688   5.708 -0.3111 -0.7855  0.5902
 5881TIP3    H241839   9.157   5.682   5.740 -0.5955 -0.4806  2.0328
 5882TIP3   OH241840   3.886   7.434   5.882  0.2201  0.5889 -0.2328
 5882TIP3    H141841   3.793   7.454   5.894  0.2957  0.5551  0.4248
 5882TIP3    H241842   3.908   7.475   5.799 -0.3792  0.6185 -0.3810
 5883TIP3   OH241843   8.740   7.013   6.933 -0.2509  0.0677 -0.5591
 5883TIP3    H141844   8.653   7.053   6.938 -0.3693 -0.2447  0.0088
 5883TIP3    H241845   8.800   7.084   6.954 -0.3860  0.2227 -0.6947
 5884TIP3   OH241846   2.782   2.714   5.057 -0.0447  0.1855  0.4607
 5884TIP3    H141847   2.710   2.771   5.029 -0.5734 -1.3732 -1.5971
 5884TIP3    H241848   2.743   2.626   5.058  0.6763 -0.2123  3.7757
 5885TIP3   OH241849   7.226   4.994   6.764  0.3876  0.5778 -0.1990
 5885TIP3    H141850   7.318   4.971   6.774  0.3968 -0.7271 -2.4668
 5885TIP3    H241851   7.226   5.067   6.702 -0.1054  0.0952 -0.7819
 5886TIP3   OH241852   2.263   8.365   5.526 -0.0803 -0.1202  1.0140
 5886TIP3    H141853   2.314   8.300   5.572  0.1660 -2.2949 -2.0596
 5886TIP3    H241854   2.182   8.320   5.503 -0.8881  1.4056  0.7365
 5887TIP3   OH241855   1.805   3.616   5.035 -0.2474 -0.2718  0.1222
 5887TIP3    H141856   1.817   3.623   4.940  1.7133  0.9635  0.3953
 5887TIP3    H241857   1.723   3.663   5.052 -1.7209 -2.2491 -1.1117
 5888TIP3   OH241858   8.709   1.890   5.546  0.2739  0.4441  0.2509
 5888TIP3    H141859   8.687   1.960   5.607 -1.3038 -0.7235  1.1108
 5888TIP3    H241860   8.783   1.923   5.496  0.4268  2.1693  1.5478
 5889TIP3   OH241861   6.301   2.444   6.430 -0.7726  0.3190 -0.3262
 5889TIP3    H141862   6.310   2.356   6.392 -0.4255 -0.1178  0.7274
 5889TIP3    H241863   6.378   2.491   6.398 -1.1158  0.3487 -1.1437
 5890TIP3   OH241864   3.330   0.937   6.394  0.2258 -0.2529 -0.5567
 5890TIP3    H141865   3.237   0.930   6.419 -0.7136  2.1448 -2.9231
 5890TIP3    H241866   3.348   0.857   6.347 -0.8308 -0.5218 -0.5407
 5891TIP3   OH241867   0.267   5.601   6.170 -0.1241 -0.0332 -0.0421
 5891TIP3    H141868   0.339   5.662   6.185 -0.5524  0.2305  1.0410
 5891TIP3    H241869   0.228   5.629   6.087  0.0715  0.7741  0.1323
 5892TIP3   OH241870   0.561   0.832   6.453  0.3517 -0.4717  0.1026
 5892TIP3    H141871   0.604   0.752   6.423 -0.1571 -1.1613  1.1348
 5892TIP3    H241872   0.614   0.903   6.418  2.2791 -1.2861  1.2499
 5893TIP3   OH241873   0.470   6.207   6.116 -0.1462 -0.2501  0.1774
 5893TIP3    H141874   0.429   6.290   6.138 -3.3341 -1.9796  1.4534
 5893TIP3    H241875   0.474   6.159   6.199 -0.4980 -2.1913 -0.8556
 5894TIP3   OH241876   2.857   7.049   4.938  0.4272 -0.5459 -0.3734
 5894TIP3    H141877   2.912   7.101   4.997  0.8855 -0.6144 -0.7326
 5894TIP3    H241878   2.822   6.979   4.994  1.1823 -0.8477 -0.2697
 5895TIP3   OH241879   8.840   0.274   5.419  0.1782 -0.2284  0.1800
 5895TIP3    H141880   8.877   0.297   5.504 -0.2863  0.9244  0.0924
 5895TIP3    H241881   8.914   0.278   5.359  0.3977 -0.4891  0.4308
 5896TIP3   OH241882   0.218   7.391   4.454  0.2597  0.2993  0.2336
 5896TIP3    H141883   0.202   7.392   4.359  0.7083 -1.0845  0.1184
 5896TIP3    H241884   0.132   7.373   4.492  0.0352  1.0844  0.1056
 5897TIP3   OH241885   3.597   5.625   5.925 -0.1711  0.1312  0.1763
 5897TIP3    H141886   3.551   5.541   5.927 -1.5540  0.7190  4.3674
 5897TIP3    H241887   3.537   5.685   5.881  0.1781 -0.6781 -1.4831
 5898TIP3   OH241888   6.090   7.301   6.161  0.7815 -0.3915  0.4350
 5898TIP3    H141889   6.049   7.386   6.173  2.4159  0.2815  1.6992
 5898TIP3    H241890   6.041   7.243   6.220  0.8279  0.1032  0.9745
 5899TIP3   OH241891   3.910   1.655   5.638 -0.2005 -0.4248 -0.1754
 5899TIP3    H141892   3.859   1.647   5.558  0.8668 -0.0778 -0.9113
 5899TIP3    H241893   3.903   1.569   5.680 -0.3717 -0.7700 -0.8925
 5900TIP3   OH241894   8.061   1.358   5.705  0.8916 -0.8003  0.0318
 5900TIP3    H141895   8.119   1.360   5.629  1.2184 -3.2464  0.1444
 5900TIP3    H241896   8.107   1.408   5.772  1.0978  0.4769 -1.0201
 5901TIP3   OH241897   7.810   3.327   5.297 -0.9130  0.4650  0.7523
 5901TIP3    H141898   7.755   3.372   5.232 -0.8457 -0.3038  0.1493
 5901TIP3    H241899   7.887   3.382   5.306 -1.0775  0.7521  0.4235
 5902TIP3   OH241900   7.337   8.659   5.215 -0.3358  0.1930 -0.2122
 5902TIP3    H141901   7.289   8.579   5.236  0.1139 -0.0377 -0.0487
 5902TIP3    H241902   7.289   8.729   5.259  0.1616 -0.1893  0.9570
 5903TIP3   OH241903   7.298   3.374   5.455  0.3153 -0.4144  0.0756
 5903TIP3    H141904   7.343   3.364   5.372  0.8518  0.0590  0.3022
 5903TIP3    H241905   7.353   3.434   5.505 -1.7653  2.2012 -0.5389
 5904TIP3   OH241906   7.506   2.198   5.568 -0.3922 -0.0893 -0.1645
 5904TIP3    H141907   7.467   2.111   5.565 -0.9393  0.1694 -1.0501
 5904TIP3    H241908   7.590   2.189   5.523  0.1186 -0.4209  0.8343
 5905TIP3   OH241909   1.733   8.450   5.523  0.0516 -0.4639  0.3812
 5905TIP3    H141910   1.692   8.396   5.455 -0.3821 -1.3590  1.3181
 5905TIP3    H241911   1.827   8.441   5.506 -0.0693  0.9060 -1.2600
 5906TIP3   OH241912   3.519   6.471   4.986 -0.6540 -0.1045 -0.1743
 5906TIP3    H141913   3.518   6.483   4.891 -1.2195 -0.7594 -0.2662
 5906TIP3    H241914   3.455   6.534   5.019  0.2751  0.8350 -0.1166
 5907TIP3   OH241915   6.330   6.856   6.153 -0.1012 -0.3935 -0.0140
 5907TIP3    H141916   6.361   6.766   6.138  0.9042  0.3027 -2.7172
 5907TIP3    H241917   6.240   6.856   6.119 -0.3582 -0.5334  0.6544
 5908TIP3   OH241918   4.229   5.758   6.355  0.0185  0.3983 -0.0235
 5908TIP3    H141919   4.202   5.808   6.432 -0.2579  2.6811 -1.5195
 5908TIP3    H241920   4.310   5.715   6.382 -0.4930  0.4501  1.7636
 5909TIP3   OH241921   5.338   0.768   5.390 -0.5111  0.8210  0.2419
 5909TIP3    H141922   5.250   0.729   5.391  0.0034 -0.4383  2.1282
 5909TIP3    H241923   5.348   0.806   5.477  1.9967 -2.1008  1.4369
 5910TIP3   OH241924   2.340   0.951   6.323  0.0675  0.5820  0.1971
 5910TIP3    H141925   2.321   0.964   6.416 -0.0852  0.0071  0.2516
 5910TIP3    H241926   2.435   0.938   6.320 -0.2570 -2.7388  0.7281
 5911TIP3   OH241927   0.313   1.974   5.887  0.2508 -0.3218  0.2794
 5911TIP3    H141928   0.357   2.058   5.900 -1.6409  0.7490  0.0490
 5911TIP3    H241929   0.339   1.947   5.800  1.3745 -0.3009  0.5950
 5912TIP3   OH241930   1.108   2.463   5.132  0.4020 -0.0173 -0.5008
 5912TIP3    H141931   1.094   2.496   5.043  1.7812  0.5685 -0.5257
 5912TIP3    H241932   1.194   2.496   5.156 -0.5150  1.0374  1.6080
 5913TIP3   OH241933   1.490   7.178   5.914 -0.0863  0.0595 -0.1894
 5913TIP3    H141934   1.418   7.231   5.880  0.0255  1.5836  1.7491
 5913TIP3    H241935   1.450   7.122   5.980  0.3529  0.2408  0.2355
 5914TIP3   OH241936   2.677   2.124   5.155  0.1078  0.4171  0.0473
 5914TIP3    H141937   2.772   2.122   5.169  0.3881  0.6226 -1.5813
 5914TIP3    H241938   2.662   2.063   5.084 -1.1713 -0.5110  1.0787
 5915TIP3   OH241939   7.339   7.027   5.478 -0.1852  0.5436 -0.5786
 5915TIP3    H141940   7.252   7.035   5.440 -1.2943  3.2327  2.0905
 5915TIP3    H241941   7.379   7.112   5.465  0.5416  0.5693  1.4365
 5916TIP3   OH241942   7.638   2.889   5.725 -0.2434 -0.1358  0.4217
 5916TIP3    H141943   7.624   2.910   5.817 -0.3571 -2.8876  1.1143
 5916TIP3    H241944   7.730   2.911   5.710  0.0095 -0.4373  1.4331
 5917TIP3   OH241945   4.630   7.010   5.740  0.1604 -0.0917  0.6236
 5917TIP3    H141946   4.604   7.034   5.651 -0.0056  0.8145  0.9038
 5917TIP3    H241947   4.702   6.948   5.728 -1.3217 -1.7548 -0.1555
 5918TIP3   OH241948   3.385   8.514   5.213 -0.8554 -0.3558 -0.4451
 5918TIP3    H141949   3.365   8.585   5.151  1.0208  0.8363  0.2333
 5918TIP3    H241950   3.323   8.527   5.285 -1.4430 -0.2757 -0.9557
 5919TIP3   OH241951   3.287   7.351   5.708  0.9304  0.2618 -0.1047
 5919TIP3    H141952   3.192   7.349   5.717  1.0976 -0.2429  1.8156
 5919TIP3    H241953   3.306   7.288   5.638  0.0296 -1.7464  1.3705
 5920TIP3   OH241954   9.127   4.442   5.467 -0.0131  0.1970 -0.0246
 5920TIP3    H141955   9.215   4.478   5.459 -0.5809  1.5160 -0.4892
 5920TIP3    H241956   9.113   4.395   5.385  0.0829  0.3711 -0.1412
 5921TIP3   OH241957   7.694   7.348   6.057  0.1962  0.1994  0.0376
 5921TIP3    H141958   7.629   7.405   6.097  1.6463  2.2455 -0.3600
 5921TIP3    H241959   7.698   7.272   6.116 -0.3961  1.4203  1.7451
 5922TIP3   OH241960   7.474   6.761   6.908 -0.2125  0.2150  0.0057
 5922TIP3    H141961   7.420   6.803   6.841  0.4773 -0.6431 -1.1215
 5922TIP3    H241962   7.431   6.677   6.924 -1.4157  1.1122  2.0327
 5923TIP3   OH241963   7.741   4.581   4.903 -0.0447 -0.3653 -0.7980
 5923TIP3    H141964   7.732   4.535   4.986  0.3406 -0.3578 -0.7480
 5923TIP3    H241965   7.816   4.639   4.916 -0.0940 -0.2334 -1.0920
 5924TIP3   OH241966   5.051   5.689   5.675 -0.3021 -0.4413  0.0905
 5924TIP3    H141967   5.045   5.749   5.601 -0.2310 -0.8502 -0.2468
 5924TIP3    H241968   4.969   5.639   5.672  0.1155 -1.1194 -0.2882
 5925TIP3   OH241969   7.028   6.333   6.077  0.0248  0.4894  0.3516
 5925TIP3    H141970   6.992   6.370   6.158 -0.8761 -0.6902  0.5202
 5925TIP3    H241971   7.118   6.309   6.100  0.2935  1.6078  0.5290
 5926TIP3   OH241972   1.895   2.273   6.631 -0.1381  0.2264 -0.7455
 5926TIP3    H141973   1.962   2.263   6.699 -0.5790 -1.0389 -0.4568
 5926TIP3    H241974   1.885   2.185   6.595  0.6973  1.0009 -3.0839
 5927TIP3   OH241975   0.947   8.364   5.905 -0.1260 -0.0306 -0.4830
 5927TIP3    H141976   0.990   8.438   5.948 -0.3247  0.4416 -1.0918
 5927TIP3    H241977   0.856   8.391   5.895 -0.7364 -1.2348  1.2876
 5928TIP3   OH241978   7.600   0.701   5.047  0.1895 -0.4554  0.5522
 5928TIP3    H141979   7.603   0.640   5.121 -0.5778  0.7575  1.6462
 5928TIP3    H241980   7.509   0.696   5.017  0.5092 -0.9648 -0.3490
 5929TIP3   OH241981   8.460   6.017   5.079  0.1543 -0.2522 -0.2295
 5929TIP3    H141982   8.512   6.007   4.999 -0.1937  0.6512 -0.5827
 5929TIP3    H241983   8.402   5.941   5.081 -0.8673  0.4463 -1.6364
 5930TIP3   OH241984   1.416   0.849   5.304  0.4062 -0.6011 -0.1610
 5930TIP3    H141985   1.419   0.782   5.372  0.7691  0.6216  1.0707
 5930TIP3    H241986   1.507   0.860   5.277  0.3681 -0.5084 -0.2507
 5931TIP3   OH241987   7.765   4.997   5.053  0.5620 -0.3034 -0.3283
 5931TIP3    H141988   7.756   5.087   5.084  0.4345  0.0884 -1.4403
 5931TIP3    H241989   7.808   4.951   5.125 -2.8929 -0.3476  1.9411
 5932TIP3   OH241990   4.061   6.625   5.462 -0.0530  0.2041  0.6100
 5932TIP3    H141991   4.059   6.684   5.537  2.3641 -0.6975  1.4843
 5932TIP3    H241992   3.990   6.563   5.478 -0.8167  1.1799  1.1138
 5933TIP3   OH241993   2.076   1.795   5.306 -0.1473  0.4264  0.7063
 5933TIP3    H141994   2.068   1.729   5.375  2.8064  0.1339  0.9210
 5933TIP3    H241995   2.148   1.763   5.251  0.2335  2.6363 -0.1721
 5934TIP3   OH241996   3.630   8.301   5.896  0.0681 -0.2567  0.6195
 5934TIP3    H141997   3.678   8.226   5.932  2.7027  0.6588 -0.6629
 5934TIP3    H241998   3.629   8.365   5.968  0.9739 -0.2515  0.6502
 5935TIP3   OH241999   2.315   0.100   5.243  0.1124  0.2321 -0.3116
 5935TIP3    H142000   2.228   0.066   5.265 -0.1236  1.1413  0.2132
 5935TIP3    H242001   2.311   0.120   5.150 -1.0141  2.4202  0.1501
 5936TIP3   OH242002   2.575   6.120   6.067 -0.0663  0.4931  0.0555
 5936TIP3    H142003   2.597   6.210   6.043 -2.4589  0.9332 -0.7641
 5936TIP3    H242004   2.529   6.127   6.150  0.6139 -0.1011  0.4929
 5937TIP3   OH242005   7.412   4.609   6.335  0.0130  0.0172  0.1942
 5937TIP3    H142006   7.499   4.606   6.295  0.2700  0.8389  0.6578
 5937TIP3    H242007   7.425   4.662   6.414 -1.8926  4.6161 -2.2418
 5938TIP3   OH242008   9.058   8.012   5.981 -0.5547 -0.0753  0.7875
 5938TIP3    H142009   9.114   7.935   5.970 -3.2874 -2.3073  1.2937
 5938TIP3    H242010   9.094   8.058   6.057  1.2622 -0.7149  0.3467
 5939TIP3   OH242011   8.482   2.568   6.670  0.0476  0.3575 -0.2407
 5939TIP3    H142012   8.576   2.554   6.661  0.0058  0.0933 -0.2677
 5939TIP3    H242013   8.474   2.651   6.716  0.2978  0.0926  0.2865
 5940TIP3   OH242014   0.211   1.278   6.016  0.3589  0.1565 -0.4043
 5940TIP3    H142015   0.198   1.353   5.958 -0.5434  0.0261 -0.3857
 5940TIP3    H242016   0.209   1.315   6.104  0.6978  0.2108 -0.4163
 5941TIP3   OH242017   1.033   4.148   5.236  0.0166 -0.1842 -0.3194
 5941TIP3    H142018   1.091   4.089   5.188 -0.8746 -1.1132 -0.2840
 5941TIP3    H242019   1.032   4.113   5.325 -0.6736 -0.2264 -0.3446
 5942TIP3   OH242020   1.900   7.398   6.350  0.5168  0.1425  0.4850
 5942TIP3    H142021   1.840   7.332   6.385  0.6234  0.9701  2.3550
 5942TIP3    H242022   1.987   7.360   6.364  0.5357 -0.7277 -1.5417
 5943TIP3   OH242023   8.156   6.157   6.244  0.8492 -0.0406  0.3521
 5943TIP3    H142024   8.105   6.139   6.323 -1.7365 -0.3656 -1.2664
 5943TIP3    H242025   8.115   6.235   6.206  2.5706  0.6133 -0.2989
 5944TIP3   OH242026   4.640   9.170   6.545  0.0444 -0.9696  0.3717
 5944TIP3    H142027   4.666   9.258   6.516 -2.2201  0.5211  2.4673
 5944TIP3    H242028   4.692   9.155   6.625  0.3846 -1.5361  0.0510
 5945TIP3   OH242029   7.238   6.134   5.093  0.0882 -0.0824  0.0856
 5945TIP3    H142030   7.211   6.207   5.038  1.0108  0.1750 -0.0426
 5945TIP3    H242031   7.325   6.158   5.125  0.1001 -0.7991  0.6248
 5946TIP3   OH242032   3.477   6.683   6.346 -0.1001 -0.1106 -0.2256
 5946TIP3    H142033   3.439   6.610   6.395 -0.1129 -0.3813 -0.6349
 5946TIP3    H242034   3.425   6.759   6.371  0.6254 -0.0211  1.0850
 5947TIP3   OH242035   4.677   1.238   5.281  0.3249 -0.2103  0.2402
 5947TIP3    H142036   4.678   1.146   5.309  1.1522 -0.3100 -0.0952
 5947TIP3    H242037   4.584   1.261   5.281  0.1094 -1.0150  0.4250
 5948TIP3   OH242038   3.406   4.209   5.220  0.0752  0.0855 -0.5695
 5948TIP3    H142039   3.427   4.298   5.192 -0.1086  0.1552 -0.4829
 5948TIP3    H242040   3.462   4.194   5.296  0.6558 -0.1405 -1.0232
 5949TIP3   OH242041   0.928   8.502   5.499 -0.2104 -0.0162  0.5918
 5949TIP3    H142042   0.874   8.501   5.579 -0.5203 -0.1963  0.3841
 5949TIP3    H242043   0.963   8.413   5.493  0.2604  0.1478  0.8202
 5950TIP3   OH242044   8.640   0.544   6.087 -0.1293  0.0348 -0.2853
 5950TIP3    H142045   8.596   0.481   6.145  0.7710 -0.2918  0.0723
 5950TIP3    H242046   8.731   0.514   6.085 -0.3471 -0.6808 -2.8305
 5951TIP3   OH242047   7.342   0.055   5.300 -0.3286 -0.0517  0.2083
 5951TIP3    H142048   7.370   0.112   5.228 -0.8620  0.2365  0.2212
 5951TIP3    H242049   7.361  -0.033   5.270  0.8538  0.1481  0.3368
 5952TIP3   OH242050   3.399   6.991   4.920 -0.0285  0.3790  0.0320
 5952TIP3    H142051   3.467   7.058   4.917 -0.9387  1.3402  0.3329
 5952TIP3    H242052   3.447   6.908   4.923  1.1471  1.0730  1.6831
 5953TIP3   OH242053   2.634   0.225   5.023 -0.2752  0.2122  0.3353
 5953TIP3    H142054   2.554   0.172   5.027  0.0016 -0.2631 -0.2485
 5953TIP3    H242055   2.703   0.163   4.998  0.3852  0.5087  1.3455
 5954TIP3   OH242056   4.006   8.929   5.557 -0.0049 -0.0046  0.0572
 5954TIP3    H142057   4.008   8.952   5.464  0.6261  2.5795  0.6342
 5954TIP3    H242058   4.092   8.890   5.574 -1.1834 -3.4527 -0.9911
 5955TIP3   OH242059   2.684   2.333   6.340  0.0307  0.1214  0.0155
 5955TIP3    H142060   2.623   2.319   6.413  0.6568  0.1981  0.5636
 5955TIP3    H242061   2.767   2.298   6.372 -0.1164 -1.6714 -1.4011
 5956TIP3   OH242062   8.843   2.097  10.793  0.1330  0.3448 -0.1874
 5956TIP3    H142063   8.792   2.123  10.716  0.9562 -0.2308 -0.9562
 5956TIP3    H242064   8.912   2.042  10.757  1.8023  1.7658  0.7076
 5957TIP3   OH242065   4.719   6.622   6.339  0.3066 -0.5739  0.1763
 5957TIP3    H142066   4.789   6.598   6.399  0.2466 -2.0110 -0.2800
 5957TIP3    H242067   4.638   6.608   6.388  0.2856  2.6139  1.2508
 5958TIP3   OH242068   8.008   8.690   4.891 -0.8952 -0.3175 -0.4054
 5958TIP3    H142069   7.978   8.768   4.938  0.5588 -0.7689  1.3991
 5958TIP3    H242070   7.931   8.659   4.844 -1.9809  1.1462  0.3249
 5959TIP3   OH242071   6.495   2.120   5.259  0.8652 -0.0355  0.1209
 5959TIP3    H142072   6.409   2.121   5.216  0.6612  2.0268  0.4532
 5959TIP3    H242073   6.515   2.028   5.271 -1.0327 -0.5761 -0.5229
 5960TIP3   OH242074   2.854   1.203   5.060  0.3505  0.0722  0.0292
 5960TIP3    H142075   2.933   1.194   5.007 -0.5874  0.1053 -1.4319
 5960TIP3    H242076   2.869   1.146   5.135  1.2345 -0.9111 -0.8597
 5961TIP3   OH242077   9.058   8.975   6.087  0.0674 -0.5525  0.0572
 5961TIP3    H142078   9.010   9.053   6.114  1.4030  0.0309  0.8454
 5961TIP3    H242079   9.007   8.902   6.122 -1.0730 -0.0402 -0.4975
 5962TIP3   OH242080   6.432   9.113   5.200 -0.0284  0.8306  0.1149
 5962TIP3    H142081   6.350   9.161   5.211 -0.0263  0.9863 -0.5335
 5962TIP3    H242082   6.433   9.051   5.273 -0.5105  1.1222  0.3768
 5963TIP3   OH242083   2.954   4.752   6.254  0.4271 -0.6406  0.5265
 5963TIP3    H142084   2.927   4.844   6.246 -1.2031 -1.1762 -0.5982
 5963TIP3    H242085   3.021   4.741   6.187  0.7737 -0.2341  0.7968
 5964TIP3   OH242086   6.935   0.291   4.828 -0.4953  0.4458  0.3107
 5964TIP3    H142087   6.905   0.382   4.833 -0.7075  0.3272  1.7525
 5964TIP3    H242088   6.896   0.257   4.748 -0.3204  1.6479 -0.3109
 5965TIP3   OH242089   1.116   1.685   5.907  0.1072  0.4259 -0.5369
 5965TIP3    H142090   1.166   1.675   5.827 -0.0862 -0.6485 -0.5382
 5965TIP3    H242091   1.109   1.780   5.920  2.3319  0.6199 -0.3955
 5966TIP3   OH242092   1.996   8.906   6.572  0.0273 -0.2905  0.3995
 5966TIP3    H142093   2.090   8.925   6.580 -0.2117  0.8141  0.7786
 5966TIP3    H242094   1.953   8.975   6.623 -0.9829 -0.9762  0.4990
 5967TIP3   OH242095   8.979   4.661   5.387  0.2635 -0.0821 -0.2822
 5967TIP3    H142096   9.061   4.620   5.414  0.8476 -0.7162 -2.7625
 5967TIP3    H242097   8.960   4.623   5.301 -1.4809  1.6833 -0.7546
 5968TIP3   OH242098   9.098   4.394   6.204  0.2897 -0.1427  0.8305
 5968TIP3    H142099   9.031   4.455   6.175  0.2695  0.3527  1.8850
 5968TIP3    H242100   9.180   4.434   6.175  0.1531 -0.7387 -0.4397
 5969TIP3   OH242101   1.992   3.650   5.250  0.1746 -0.0681  0.2688
 5969TIP3    H142102   1.953   3.637   5.164  0.3762  0.4513  0.0933
 5969TIP3    H242103   2.048   3.727   5.240  2.2631 -1.5180  0.1760
 5970TIP3   OH242104   6.588   4.323   5.298  0.4665 -0.4167 -0.2472
 5970TIP3    H142105   6.569   4.280   5.381  0.3421 -2.0157 -1.0735
 5970TIP3    H242106   6.683   4.321   5.291  0.4610 -0.5268 -0.2819
 5971TIP3   OH242107   0.005   4.383   4.814 -0.0338 -0.0561  0.0174
 5971TIP3    H142108   0.014   4.317   4.883  0.0877 -0.5034 -0.4166
 5971TIP3    H242109  -0.009   4.332   4.734 -2.1788  0.4840 -0.0010
 5972TIP3   OH242110   0.708   8.866   5.462 -0.4032  0.4273  0.1773
 5972TIP3    H142111   0.674   8.956   5.460 -0.3553  0.4871  1.4054
 5972TIP3    H242112   0.792   8.873   5.508 -0.6128 -0.3063  0.6821
 5973TIP3   OH242113   8.066   8.749   5.805 -0.2398  0.4224  0.0219
 5973TIP3    H142114   7.977   8.737   5.837 -0.5744  2.2733 -0.0839
 5973TIP3    H242115   8.055   8.779   5.714  0.5215  0.0117 -0.2142
 5974TIP3   OH242116   7.165   1.799   5.632  0.1399 -0.0473 -0.2216
 5974TIP3    H142117   7.169   1.768   5.541  1.7101 -3.6011  0.8770
 5974TIP3    H242118   7.254   1.825   5.652 -0.5820  2.6285 -0.1768
 5975TIP3   OH242119   4.329   5.866   5.529 -0.3322  0.2690 -0.3951
 5975TIP3    H142120   4.256   5.845   5.586 -1.2073  0.8874 -1.2509
 5975TIP3    H242121   4.372   5.940   5.572 -0.2824 -0.0113  0.0422
 5976TIP3   OH242122   3.890   6.451   5.575 -0.6053 -0.0111  0.0265
 5976TIP3    H142123   3.905   6.375   5.631 -0.0144 -0.5678 -0.8541
 5976TIP3    H242124   3.849   6.516   5.632  0.1229 -0.4967  1.1237
 5977TIP3   OH242125   4.013   0.486   6.166  0.5139 -0.2313 -0.0940
 5977TIP3    H142126   3.970   0.539   6.233 -0.7203 -1.4389  0.1210
 5977TIP3    H242127   3.998   0.535   6.085  1.6695  1.0349  0.4251
 5978TIP3   OH242128   7.917   0.830   6.707 -0.0225 -0.0885 -0.1377
 5978TIP3    H142129   7.991   0.867   6.757 -0.7994  1.1929  0.1127
 5978TIP3    H242130   7.879   0.905   6.662 -1.7088 -0.5659  0.4210
 5979TIP3   OH242131   6.579   1.528   6.552  0.0943  0.1465  0.0203
 5979TIP3    H142132   6.591   1.450   6.498 -0.2153 -0.9151  1.4277
 5979TIP3    H242133   6.507   1.505   6.612 -1.8889  2.4944 -1.2596
 5980TIP3   OH242134   6.490   0.891   6.682  0.3842  0.1838  0.7498
 5980TIP3    H142135   6.405   0.932   6.692 -0.8531 -1.7865 -0.7683
 5980TIP3    H242136   6.510   0.854   6.768  0.3837  1.8129  1.4693
 5981TIP3   OH242137   5.291   7.827   6.197 -0.0924 -0.4304 -0.6575
 5981TIP3    H142138   5.346   7.904   6.211  0.0267 -0.6009 -0.1602
 5981TIP3    H242139   5.212   7.860   6.155 -0.5993  0.1587  0.7011
 5982TIP3   OH242140   3.341   3.577   6.677  0.6187  0.1085 -0.0272
 5982TIP3    H142141   3.328   3.500   6.622 -0.8395  0.6054 -0.4289
 5982TIP3    H242142   3.411   3.552   6.737  1.3151 -0.9276 -1.2149
 5983TIP3   OH242143   6.093   7.900   6.490 -0.2472 -0.9595 -0.5733
 5983TIP3    H142144   6.008   7.885   6.533  0.1200 -2.4096 -0.3018
 5983TIP3    H242145   6.071   7.914   6.398 -1.1298  2.9668  0.0304
 5984TIP3   OH242146   3.056   1.716   5.832  0.1375 -0.3533  1.0947
 5984TIP3    H142147   3.010   1.737   5.913 -1.2034 -0.7501  0.4670
 5984TIP3    H242148   3.044   1.622   5.821 -1.4412 -0.0172 -0.5592
 5985TIP3   OH242149   6.264   6.983   6.513  0.3434  0.3198  0.3234
 5985TIP3    H142150   6.182   6.994   6.563  0.7262 -0.4297  1.1247
 5985TIP3    H242151   6.243   6.918   6.446  0.8200 -1.4520  1.8197
 5986TIP3   OH242152   0.498   7.196   5.111 -0.4300  0.1373  0.1251
 5986TIP3    H142153   0.446   7.257   5.059 -1.3753  0.3327  1.2799
 5986TIP3    H242154   0.452   7.189   5.194 -0.5384 -2.4224 -0.0759
 5987TIP3   OH242155   8.905   5.330   5.742  0.4314 -0.3054 -0.7459
 5987TIP3    H142156   8.830   5.371   5.785  1.3658  0.5519  0.1005
 5987TIP3    H242157   8.907   5.369   5.654  1.4990  1.7885  0.1458
 5988TIP3   OH242158   7.839   1.343   5.310  0.7534  0.2901 -0.0811
 5988TIP3    H142159   7.764   1.371   5.364 -0.1573 -0.5274 -0.8876
 5988TIP3    H242160   7.914   1.389   5.349 -0.3001  1.9556  0.1266
 5989TIP3   OH242161   4.235   7.608   5.796  0.2724  0.6780  0.2827
 5989TIP3    H142162   4.311   7.662   5.820 -0.3993  0.5499  3.0332
 5989TIP3    H242163   4.265   7.518   5.807  0.0251  0.6121  0.4285
 5990TIP3   OH242164   0.021   2.458   5.373  0.2718  0.8070  0.6115
 5990TIP3    H142165  -0.015   2.423   5.292 -2.5324  1.8309  1.2912
 5990TIP3    H242166   0.094   2.513   5.345  1.0883 -0.9284 -0.9230
 5991TIP3   OH242167   5.467   4.665   6.453 -0.0234 -0.3553 -0.9721
 5991TIP3    H142168   5.497   4.713   6.530 -1.2589 -0.3426 -0.4727
 5991TIP3    H242169   5.509   4.708   6.379 -1.4339  1.8193 -0.5819
 5992TIP3   OH242170   0.887   6.589   5.343  0.6134  0.3184 -0.3204
 5992TIP3    H142171   0.916   6.593   5.435 -0.6024  2.1501  0.0406
 5992TIP3    H242172   0.798   6.554   5.348  1.0905 -1.0916 -1.0010
 5993TIP3   OH242173   6.217   6.523   5.733  0.3361 -0.1528 -0.1751
 5993TIP3    H142174   6.252   6.606   5.765  1.5230 -0.7503  0.1452
 5993TIP3    H242175   6.197   6.473   5.812  0.3573 -0.4694 -0.3690
 5994TIP3   OH242176   4.467   2.657   5.433 -0.3691  0.1203 -0.2859
 5994TIP3    H142177   4.505   2.602   5.365 -0.7833 -1.5927  0.8108
 5994TIP3    H242178   4.542   2.695   5.478 -0.0854  0.8490 -1.3254
 5995TIP3   OH242179   2.126   0.143   4.930 -0.0908  0.4764 -0.4173
 5995TIP3    H142180   2.036   0.139   4.960 -0.3557 -1.2568 -1.2568
 5995TIP3    H242181   2.144   0.236   4.918 -2.0856  0.8309 -1.1115
 5996TIP3   OH242182   4.934   0.593   6.376 -0.0286  0.2336  0.3524
 5996TIP3    H142183   4.846   0.629   6.381 -0.0753  0.1246  0.3224
 5996TIP3    H242184   4.987   0.664   6.341  0.2290  0.8903  1.9758
 5997TIP3   OH242185   7.600   1.416   5.959  0.2550 -0.2969 -0.0750
 5997TIP3    H142186   7.558   1.411   5.873  1.3312  0.8501 -0.7081
 5997TIP3    H242187   7.691   1.391   5.942  0.6196  0.5238  0.6104
 5998TIP3   OH242188   8.001   6.660   6.751 -0.2847  0.6157  0.1882
 5998TIP3    H142189   7.992   6.702   6.836 -0.0870 -0.3771  0.7113
 5998TIP3    H242190   8.059   6.586   6.766  1.9796  1.9192 -1.3478
 5999TIP3   OH242191   0.856   2.336   4.978  0.1990  0.5214  0.3639
 5999TIP3    H142192   0.873   2.428   4.996 -0.4799  0.5985  0.6231
 5999TIP3    H242193   0.763   2.323   4.998 -0.1733  0.1938 -1.4070
 6000TIP3   OH242194   6.345   7.022   5.658  0.7838 -0.0366 -0.5616
 6000TIP3    H142195   6.362   7.038   5.565 -0.0614  0.5988 -0.6250
 6000TIP3    H242196   6.295   7.099   5.686  0.5256 -0.4984  0.2753
 6001TIP3   OH242197   6.100   2.266   6.462 -0.3850 -0.1304  0.3428
 6001TIP3    H142198   6.167   2.229   6.404  0.2125  0.2297  0.7872
 6001TIP3    H242199   6.150   2.308   6.532 -1.1256 -2.0864  2.1094
 6002TIP3   OH242200   7.319   2.249   5.184  0.5268 -0.3552  0.1892
 6002TIP3    H142201   7.318   2.187   5.256  2.2275 -0.8691 -0.1989
 6002TIP3    H242202   7.232   2.289   5.186  0.3854 -0.6620  2.2370
 6003TIP3   OH242203   3.891   3.004   6.313 -0.5090 -0.3533 -0.3985
 6003TIP3    H142204   3.879   3.098   6.328  0.0486 -0.0951 -1.4932
 6003TIP3    H242205   3.986   2.993   6.314 -0.4380 -0.4507 -2.7722
 6004TIP3   OH242206   5.789   4.936   5.455 -0.4356 -0.5025 -0.5360
 6004TIP3    H142207   5.853   4.921   5.524 -2.0127  1.8599  1.6051
 6004TIP3    H242208   5.742   4.854   5.447  1.0763 -1.4385 -0.2798
 6005TIP3   OH242209   8.374   2.675   5.596  0.2426  0.1975 -0.5956
 6005TIP3    H142210   8.321   2.725   5.534 -0.4719  0.9817  0.6074
 6005TIP3    H242211   8.378   2.730   5.674 -0.1045 -1.3747  0.5775
 6006TIP3   OH242212   0.903   7.875   5.797  0.0615 -0.1180 -0.1683
 6006TIP3    H142213   0.903   7.820   5.718  0.3338 -1.3765  0.6751
 6006TIP3    H242214   0.829   7.934   5.785 -0.6307 -1.0923 -0.8310
 6007TIP3   OH242215   5.767   7.351   6.888 -0.3965  0.2413 -0.3006
 6007TIP3    H142216   5.857   7.372   6.910 -0.1886 -0.1231 -0.7844
 6007TIP3    H242217   5.723   7.436   6.882  0.3715  0.5469 -1.9715
 6008TIP3   OH242218   6.260   1.226   5.760 -0.1439 -0.0622 -0.4905
 6008TIP3    H142219   6.270   1.248   5.667 -1.1387  1.7669 -0.1981
 6008TIP3    H242220   6.199   1.290   5.794  0.6392 -0.3311  1.5853
 6009TIP3   OH242221   3.557   7.068   6.819 -0.3005 -0.1528 -0.4979
 6009TIP3    H142222   3.643   7.108   6.802  0.1639 -1.3440 -1.0343
 6009TIP3    H242223   3.573   6.974   6.817 -1.1584 -0.4255  1.8441
 6010TIP3   OH242224   7.827   0.367   6.266  0.1187 -0.1615  0.1409
 6010TIP3    H142225   7.776   0.300   6.221  1.0382 -0.9537  0.2475
 6010TIP3    H242226   7.855   0.324   6.348  0.2500  0.5370  0.4656
 6011TIP3   OH242227   2.327   1.413   4.917  0.2683  0.5641 -0.4754
 6011TIP3    H142228   2.232   1.405   4.920  0.1827  1.7436  0.3589
 6011TIP3    H242229   2.357   1.326   4.889 -0.9997 -0.0704  0.0552
 6012TIP3   OH242230   3.462   4.657   5.253 -0.2964 -0.4867 -0.2491
 6012TIP3    H142231   3.443   4.744   5.218  1.1585 -0.3400 -0.7132
 6012TIP3    H242232   3.427   4.660   5.342  0.2491  0.7837 -0.0516
 6013TIP3   OH242233   1.463   5.355   5.887  0.1533 -0.1069  0.0135
 6013TIP3    H142234   1.384   5.302   5.882 -0.2993  0.6011 -0.5803
 6013TIP3    H242235   1.516   5.313   5.954 -0.0873 -1.4224 -0.6004
 6014TIP3   OH242236   8.663   1.533   5.977  0.3655  0.3683  0.5072
 6014TIP3    H142237   8.692   1.546   5.887  0.9856 -2.0878  0.2843
 6014TIP3    H242238   8.740   1.498   6.022 -0.2262  0.6171  1.7537
 6015TIP3   OH242239   7.717   6.552   5.206 -0.0042  0.2402 -0.4747
 6015TIP3    H142240   7.669   6.516   5.132  0.6932 -0.8221 -0.4260
 6015TIP3    H242241   7.693   6.498   5.281  0.1396  0.6196 -0.1448
 6016TIP3   OH242242   0.853   7.288   5.421 -0.0366 -0.6524 -1.0032
 6016TIP3    H142243   0.813   7.231   5.356 -1.7187  0.5915 -1.1120
 6016TIP3    H242244   0.944   7.298   5.392 -0.8846  0.3468 -3.5411
 6017TIP3   OH242245   1.209   8.925   5.938  0.0781  0.3445 -0.3494
 6017TIP3    H142246   1.267   8.877   5.879  2.2284 -1.0528  2.6234
 6017TIP3    H242247   1.137   8.864   5.955  0.9847 -0.4915  0.6696
 6018TIP3   OH242248   4.129   1.204   6.076  0.3412 -0.0889 -0.1116
 6018TIP3    H142249   4.147   1.295   6.054  1.6494 -0.0207  1.0657
 6018TIP3    H242250   4.035   1.200   6.090  0.0459  0.7213 -1.6882
 6019TIP3   OH242251   0.019   0.677   4.824 -0.1172 -0.2670  0.4155
 6019TIP3    H142252  -0.039   0.751   4.842 -0.7128 -0.8362  0.8853
 6019TIP3    H242253   0.105   0.706   4.854  0.5910  1.7586 -2.9521
 6020TIP3   OH242254   5.716   7.231   6.097 -0.2864 -0.1041  0.0413
 6020TIP3    H142255   5.678   7.177   6.166  0.5567 -0.7333  0.0216
 6020TIP3    H242256   5.791   7.180   6.065 -0.1620  0.5657 -0.7500
 6021TIP3   OH242257   5.643   5.385   6.242  0.1155 -0.2613  0.0720
 6021TIP3    H142258   5.650   5.289   6.247 -2.1685 -0.4347  0.9644
 6021TIP3    H242259   5.549   5.402   6.245  0.4746  2.0336 -0.2130
 6022TIP3   OH242260   8.262   6.999   6.783 -0.2338  0.0313 -0.3002
 6022TIP3    H142261   8.208   6.991   6.704  1.3541  2.0659 -1.6980
 6022TIP3    H242262   8.246   7.088   6.814  1.0700  0.1132  0.1950
 6023TIP3   OH242263   9.002   8.892   5.462 -0.2236  1.1532 -0.0439
 6023TIP3    H142264   8.995   8.984   5.488 -1.4535  1.1098 -0.2043
 6023TIP3    H242265   9.085   8.888   5.415  0.7670  1.7793  1.5469
 6024TIP3   OH242266   3.235   4.077   5.652 -0.3046 -0.0091 -0.4263
 6024TIP3    H142267   3.229   4.069   5.747  0.2767 -0.2909 -0.4047
 6024TIP3    H242268   3.315   4.029   5.630 -0.7335 -0.4149 -1.1161
 6025TIP3   OH242269   4.550   2.670   6.097 -0.1505  0.2695 -0.3132
 6025TIP3    H142270   4.502   2.752   6.084 -0.6103  0.1532  0.5474
 6025TIP3    H242271   4.621   2.673   6.034 -0.5293  1.0530 -0.7136
 6026TIP3   OH242272   9.161   4.303   5.740 -0.8194 -0.1917 -0.5260
 6026TIP3    H142273   9.189   4.342   5.658 -0.9038  1.1644  0.0636
 6026TIP3    H242274   9.159   4.376   5.802  0.5705 -1.4252  1.0398
 6027TIP3   OH242275   3.010   3.303   5.482 -0.6677 -0.0692  0.0913
 6027TIP3    H142276   3.039   3.212   5.487 -0.7122 -0.1550 -1.0711
 6027TIP3    H242277   2.961   3.309   5.401  1.6369  1.6217 -1.3057
 6028TIP3   OH242278   8.782   8.946   6.658 -0.3603  0.1357 -0.2221
 6028TIP3    H142279   8.877   8.940   6.664 -0.3978 -2.1212 -1.0378
 6028TIP3    H242280   8.749   8.879   6.718 -1.3073 -1.2503 -2.1573
 6029TIP3   OH242281   7.410   3.223   6.100  0.0153 -0.1541  0.0263
 6029TIP3    H142282   7.451   3.278   6.033  1.0144 -0.8989  0.0015
 6029TIP3    H242283   7.348   3.281   6.143  1.2728  1.1092  0.2267
 6030TIP3   OH242284   6.437   1.636   6.828 -0.2637 -0.4874 -0.0703
 6030TIP3    H142285   6.357   1.587   6.810  0.1050 -1.1029 -0.0601
 6030TIP3    H242286   6.413   1.728   6.812 -1.0399 -0.6356  0.1834
 6031TIP3   OH242287   0.136   6.843   6.079 -0.3651  0.0015 -0.5262
 6031TIP3    H142288   0.171   6.914   6.025  1.2112 -0.7349 -0.5190
 6031TIP3    H242289   0.185   6.849   6.161  1.1824 -2.1902 -1.1866
 6032TIP3   OH242290   6.465   3.761   5.988  0.0357 -0.5599 -0.1393
 6032TIP3    H142291   6.535   3.714   6.034  1.4991  0.3797 -1.3087
 6032TIP3    H242292   6.418   3.693   5.941 -0.9869 -1.4328  2.0425
 6033TIP3   OH242293   7.885   4.059   5.022  0.5698  0.4500 -0.0278
 6033TIP3    H142294   7.885   4.144   4.978  0.5050  0.4044 -0.1172
 6033TIP3    H242295   7.970   4.020   4.998  0.5561  0.4466 -0.0707
 6034TIP3   OH242296   3.617   6.488   5.463 -0.3356 -0.3741 -0.1171
 6034TIP3    H142297   3.601   6.580   5.444  0.4676 -0.2983 -0.4907
 6034TIP3    H242298   3.677   6.489   5.537 -0.5856 -0.6073  0.0901
 6035TIP3   OH242299   4.500   9.078   5.477  0.2436 -0.5873  0.1637
 6035TIP3    H142300   4.476   9.001   5.528  0.6745  0.3051  1.7997
 6035TIP3    H242301   4.469   9.059   5.388 -1.3760 -1.8258  0.9348
 6036TIP3   OH242302   2.248   2.074   5.437 -0.1560  0.2261  0.0590
 6036TIP3    H142303   2.224   2.122   5.358 -0.2653 -0.7604 -0.5253
 6036TIP3    H242304   2.169   2.025   5.459  0.8903 -2.2562 -1.2883
 6037TIP3   OH242305   1.102   2.012   6.045  0.3029 -0.1285  0.4368
 6037TIP3    H142306   1.189   1.973   6.036  0.2157 -0.3799  0.6880
 6037TIP3    H242307   1.061   2.000   5.959  0.2815 -0.5765  0.5107
 6038TIP3   OH242308   7.034   3.154   6.356  0.6826  0.0595  0.1353
 6038TIP3    H142309   7.028   3.242   6.393  0.3914  0.5065 -0.9514
 6038TIP3    H242310   7.105   3.113   6.406  1.7029  1.3395 -0.1832
 6039TIP3   OH242311   6.050   0.849   5.487  0.1403  0.0656  0.3257
 6039TIP3    H142312   5.991   0.842   5.412  1.4298  0.7517 -0.7942
 6039TIP3    H242313   6.011   0.793   5.554 -0.7579 -0.9799 -1.0350
 6040TIP3   OH242314   8.992   6.624   5.694 -0.5501 -0.0941  0.3939
 6040TIP3    H142315   8.993   6.603   5.787 -0.7349  0.8223  0.6096
 6040TIP3    H242316   8.978   6.718   5.690 -0.4771 -0.1082 -0.5631
 6041TIP3   OH242317   5.197   0.655   6.499  0.0664  0.5975  1.0228
 6041TIP3    H142318   5.193   0.592   6.426 -3.0834  0.5953  1.0458
 6041TIP3    H242319   5.249   0.728   6.465 -0.0148 -0.0816 -0.6739
 6042TIP3   OH242320   7.391   0.280   7.144 -0.1525 -0.3251  0.4414
 6042TIP3    H142321   7.416   0.327   7.064 -0.4216  0.4962  0.8344
 6042TIP3    H242322   7.472   0.276   7.195 -0.0993 -0.4048  0.3531
 6043TIP3   OH242323   2.760   4.920   5.225 -0.5494 -0.3974 -0.0167
 6043TIP3    H142324   2.757   4.959   5.312 -0.0569 -1.0580  0.3050
 6043TIP3    H242325   2.704   4.977   5.172 -3.2300 -1.5896  1.3504
 6044TIP3   OH242326   2.666   1.682   4.991 -0.3614  0.0303  0.0311
 6044TIP3    H142327   2.749   1.690   5.038 -0.4900 -0.9196  0.4449
 6044TIP3    H242328   2.655   1.588   4.978 -0.7297  0.2325 -1.1974
 6045TIP3   OH242329   3.325   7.987   6.608  0.1636 -0.4977 -0.2285
 6045TIP3    H142330   3.232   8.008   6.601 -0.2448 -2.5174 -1.7781
 6045TIP3    H242331   3.368   8.072   6.620 -1.9503  0.3489  2.2131
 6046TIP3   OH242332   3.459   1.485   5.109  0.2102 -0.0674 -0.0645
 6046TIP3    H142333   3.406   1.557   5.076 -0.6757 -1.0877 -0.9480
 6046TIP3    H242334   3.549   1.511   5.091 -0.1536  0.2629 -1.5958
 6047TIP3   OH242335   0.345   6.879   5.159 -0.1035  0.3697  0.4250
 6047TIP3    H142336   0.322   6.900   5.069  0.9209 -1.3076 -0.2778
 6047TIP3    H242337   0.416   6.939   5.181  0.5511 -0.0943 -0.3780
 6048TIP3   OH242338   3.613   8.811   6.610 -0.3631 -0.4003 -0.3739
 6048TIP3    H142339   3.677   8.745   6.581 -0.5289 -0.8886  0.3485
 6048TIP3    H242340   3.664   8.891   6.618  0.1425 -0.7640  0.1120
 6049TIP3   OH242341   6.529   6.450   5.239 -0.1991  0.1602 -0.2437
 6049TIP3    H142342   6.442   6.476   5.268 -0.0429  1.1195 -0.6076
 6049TIP3    H242343   6.546   6.367   5.285 -1.2796 -0.0173 -0.1485
 6050TIP3   OH242344   0.602   7.253   5.932 -0.4428 -0.0769  0.0241
 6050TIP3    H142345   0.616   7.166   5.894 -1.2786  0.0884 -0.7229
 6050TIP3    H242346   0.634   7.247   6.021  1.4746 -0.5357 -0.6417
 6051TIP3   OH242347   0.344   7.168   4.646  0.3090 -0.2264 -0.1935
 6051TIP3    H142348   0.316   7.233   4.581 -0.1073 -1.0882 -0.9064
 6051TIP3    H242349   0.265   7.115   4.662  0.2680  0.2734  1.4062
 6052TIP3   OH242350   7.382   0.428   6.011 -0.0574 -0.3981 -0.6502
 6052TIP3    H142351   7.342   0.489   5.949 -1.3600 -0.9831 -0.4271
 6052TIP3    H242352   7.317   0.359   6.022  0.3769 -0.6097  0.9235
 6053TIP3   OH242353   4.806   3.609   6.610 -0.4130  0.3946 -0.0016
 6053TIP3    H142354   4.750   3.669   6.561 -1.3939 -1.1276 -0.8418
 6053TIP3    H242355   4.761   3.524   6.604  1.7423 -0.8044 -0.3210
 6054TIP3   OH242356   2.892   8.612   5.751 -0.1188  0.2785 -0.1639
 6054TIP3    H142357   2.854   8.618   5.664 -2.6442 -3.8539  0.3938
 6054TIP3    H242358   2.818   8.620   5.811  0.8364 -1.3243  1.3443
 6055TIP3   OH242359   3.481   5.609   5.631 -0.2947  0.2053  0.0653
 6055TIP3    H142360   3.491   5.622   5.537 -1.2454  1.5396  0.1248
 6055TIP3    H242361   3.393   5.573   5.641  0.6685 -2.2653  0.2914
 6056TIP3   OH242362   8.733   3.340   4.994  0.2310  0.3535 -0.0477
 6056TIP3    H142363   8.797   3.356   5.062 -1.0861 -0.0648  1.3503
 6056TIP3    H242364   8.694   3.426   4.976  1.1555  0.6090 -0.9075
 6057TIP3   OH242365   0.755   3.905   5.665  0.0708 -0.4950  0.6196
 6057TIP3    H142366   0.732   3.959   5.589  1.7583 -0.1025  0.3389
 6057TIP3    H242367   0.849   3.890   5.656  0.3455 -0.3569  2.6785
 6058TIP3   OH242368   8.238   8.288   5.919 -0.7457  0.8963  0.0394
 6058TIP3    H142369   8.253   8.294   6.013 -1.6433  1.1772  0.1763
 6058TIP3    H242370   8.153   8.331   5.905 -0.3567  1.3859 -0.9715
 6059TIP3   OH242371   1.485   1.994   4.970  0.1867 -0.2571  0.0304
 6059TIP3    H142372   1.489   2.070   4.912 -1.1973 -1.4863 -1.8131
 6059TIP3    H242373   1.575   1.963   4.976  0.3301 -0.3030 -1.8401
 6060TIP3   OH242374   0.906   7.612   5.332 -0.4542 -0.3336 -0.5891
 6060TIP3    H142375   0.830   7.555   5.324  0.7936 -2.5952  1.9760
 6060TIP3    H242376   0.966   7.582   5.264 -0.9247 -0.1401 -1.0916
 6061TIP3   OH242377   3.683   0.525   6.521  0.5426  0.6362 -0.1569
 6061TIP3    H142378   3.775   0.551   6.519  0.7114  0.0648 -0.1455
 6061TIP3    H242379   3.640   0.591   6.576  0.7260  1.5529 -1.0834
 6062TIP3   OH242380   6.790   5.055   6.312 -0.2962  0.3106 -0.1035
 6062TIP3    H142381   6.812   5.020   6.226  0.3509  0.2000  0.1033
 6062TIP3    H242382   6.838   5.000   6.374  1.1698  1.8632  0.2121
 6063TIP3   OH242383   5.594   7.449   5.947  0.1686  0.2483  0.8197
 6063TIP3    H142384   5.583   7.522   6.008  0.5170  0.8562  0.1798
 6063TIP3    H242385   5.622   7.376   6.002 -0.5407  0.4879  1.5223
 6064TIP3   OH242386   5.924   5.513   4.957 -0.0044 -0.3200 -0.1852
 6064TIP3    H142387   5.925   5.594   5.008  0.6876 -0.0667 -0.5753
 6064TIP3    H242388   5.840   5.473   4.977 -0.9177  1.1097 -0.9316
 6065TIP3   OH242389   3.860   6.887   5.464  0.1192  0.0562 -0.1976
 6065TIP3    H142390   3.907   6.968   5.447 -0.0477 -0.2277 -2.1787
 6065TIP3    H242391   3.863   6.839   5.382 -1.6423 -1.0042  0.3017
 6066TIP3   OH242392   5.197   0.296   6.364 -0.0809  0.6107 -0.1090
 6066TIP3    H142393   5.266   0.231   6.375  0.2409  1.0503  0.5940
 6066TIP3    H242394   5.233   0.359   6.301 -0.1223  0.4600 -0.2812
 6067TIP3   OH242395   6.895   6.945   6.334 -0.3003  0.4416  0.0461
 6067TIP3    H142396   6.935   7.015   6.282 -1.3010  0.7803 -0.2850
 6067TIP3    H242397   6.969   6.907   6.383  0.3840  1.2045 -0.3612
 6068TIP3   OH242398   7.947   4.569   6.160 -0.4540  0.3136  0.7661
 6068TIP3    H142399   7.952   4.641   6.097  0.4370 -0.8218 -0.5205
 6068TIP3    H242400   8.025   4.578   6.214  0.2710 -0.3085 -0.1392
 6069TIP3   OH242401   8.691   7.739   4.588  0.5226  0.5823  0.3166
 6069TIP3    H142402   8.628   7.784   4.532 -2.0384 -0.9358  1.7591
 6069TIP3    H242403   8.637   7.688   4.649  3.1793 -0.9210  1.6221
 6070TIP3   OH242404   7.673   8.862   6.145  0.2810 -0.5818 -0.4057
 6070TIP3    H142405   7.655   8.932   6.208 -1.8295 -0.0125 -1.5539
 6070TIP3    H242406   7.625   8.787   6.179 -0.1034 -0.5385 -0.8523
 6071TIP3   OH242407   0.204   3.126   5.129 -0.6136 -0.5014  0.0291
 6071TIP3    H142408   0.293   3.147   5.157 -0.4264 -1.4046  0.1552
 6071TIP3    H242409   0.207   3.133   5.033  0.4663 -3.4837 -0.2761
 6072TIP3   OH242410   1.586   8.736   4.858  0.1133  0.3776 -0.2417
 6072TIP3    H142411   1.661   8.691   4.818 -0.0901 -0.4644  0.3027
 6072TIP3    H242412   1.622   8.816   4.895  0.5493  0.4944 -0.9047
 6073TIP3   OH242413   2.691   4.432   5.484 -0.7915  0.1799 -0.7400
 6073TIP3    H142414   2.701   4.343   5.518  0.4799  0.9812  1.1480
 6073TIP3    H242415   2.777   4.456   5.451 -0.6723  1.2498  0.2623
 6074TIP3   OH242416   7.345   1.394   7.102  0.8819 -0.2108 -0.3600
 6074TIP3    H142417   7.333   1.345   7.021 -0.0759  1.2502 -1.1549
 6074TIP3    H242418   7.272   1.366   7.158 -0.2926  0.9939 -1.2097
 6075TIP3   OH242419   1.458   3.001   6.073 -0.1599  0.1392  0.2782
 6075TIP3    H142420   1.513   3.076   6.052  0.2803  0.0467  1.0291
 6075TIP3    H242421   1.513   2.925   6.054  0.5881  0.0577  2.4819
 6076TIP3   OH242422   1.618   6.874   6.469 -0.5043 -0.5663 -0.0044
 6076TIP3    H142423   1.570   6.852   6.549 -1.4089 -1.8994 -0.8782
 6076TIP3    H242424   1.690   6.810   6.466  1.2955  1.2878  1.1914
 6077TIP3   OH242425   5.545   4.232   5.777 -0.2308  0.0984 -0.0594
 6077TIP3    H142426   5.588   4.317   5.789 -0.8591  0.3200  0.7225
 6077TIP3    H242427   5.591   4.191   5.704  0.8517  0.6228  0.3149
 6078TIP3   OH242428   8.161   0.917   6.373  0.4808 -0.6730  0.7845
 6078TIP3    H142429   8.226   0.984   6.353 -0.0454 -0.0696  1.0303
 6078TIP3    H242430   8.100   0.921   6.299 -0.7473  0.6507  1.8097
 6079TIP3   OH242431   6.048   2.380   5.890  0.1787 -0.4768 -0.2491
 6079TIP3    H142432   6.128   2.429   5.911 -0.2241  0.0998 -0.0523
 6079TIP3    H242433   5.977   2.438   5.916 -0.3098 -0.9074 -0.6170
 6080TIP3   OH242434   8.116   6.045   5.334  0.1994 -0.3520  0.7682
 6080TIP3    H142435   8.088   5.982   5.401 -1.2806  1.4496  1.9856
 6080TIP3    H242436   8.057   6.029   5.260  1.5389 -2.0514  0.0141
 6081TIP3   OH242437   6.491   4.183   6.016  0.2079  0.2414 -0.3092
 6081TIP3    H142438   6.563   4.214   6.071  0.2821 -1.4971  0.6681
 6081TIP3    H242439   6.444   4.120   6.072 -1.4773  0.5800 -1.2619
 6082TIP3   OH242440   6.565   1.237   5.435  0.4459  0.4716 -0.5028
 6082TIP3    H142441   6.472   1.222   5.415  0.3293  0.9567 -0.3464
 6082TIP3    H242442   6.599   1.283   5.359  0.0967  1.9677  0.2116
 6083TIP3   OH242443   6.955   4.435   6.518  0.3513  0.2393 -0.3792
 6083TIP3    H142444   6.926   4.344   6.528 -2.0249  0.4878 -3.5459
 6083TIP3    H242445   7.039   4.429   6.473  1.5775 -0.3225  1.8092
 6084TIP3   OH242446   4.690   3.106   6.494 -0.2494  0.0200  0.2709
 6084TIP3    H142447   4.777   3.087   6.529 -0.5882  0.8762  1.6301
 6084TIP3    H242448   4.706   3.124   6.401  0.8294 -1.1024  0.2136
 6085TIP3   OH242449   9.165   0.072   5.324  0.3725  0.3606  0.3767
 6085TIP3    H142450   9.206  -0.005   5.286 -0.0616 -0.2635  1.1397
 6085TIP3    H242451   9.235   0.115   5.373  0.1796 -0.6235  1.5599
 6086TIP3   OH242452   2.339   7.141   6.410 -0.1191  1.0106 -0.4186
 6086TIP3    H142453   2.407   7.208   6.423  0.3811  0.4053  0.1583
 6086TIP3    H242454   2.381   7.059   6.434 -0.6867  0.4592 -1.2589
 6087TIP3   OH242455   2.057   7.033   5.568 -0.0862 -0.0281 -0.0696
 6087TIP3    H142456   2.151   7.040   5.552 -0.0885  1.4976  0.4082
 6087TIP3    H242457   2.040   6.939   5.572  1.4415 -0.3269 -0.0344
 6088TIP3   OH242458   0.416   3.651   5.626  0.2850  0.1088  0.3044
 6088TIP3    H142459   0.441   3.559   5.642 -0.2124 -0.2673 -0.9650
 6088TIP3    H242460   0.433   3.664   5.532 -0.7377  0.9731  0.2287
 6089TIP3   OH242461   7.494   5.238   6.078 -0.1642  0.2561  0.1875
 6089TIP3    H142462   7.566   5.240   6.141 -0.9367 -0.7546  1.1449
 6089TIP3    H242463   7.505   5.156   6.031 -0.1131  0.5833 -0.3849
 6090TIP3   OH242464   2.496   2.092   6.476 -0.3336  0.2291  0.1975
 6090TIP3    H142465   2.482   2.187   6.478 -0.4503  0.2909 -1.5771
 6090TIP3    H242466   2.421   2.056   6.524 -1.3008  0.9705 -0.7063
 6091TIP3   OH242467   7.624   0.468   5.791  0.0520  0.0427  0.4788
 6091TIP3    H142468   7.627   0.435   5.880  0.4938  0.2906  0.5604
 6091TIP3    H242469   7.689   0.416   5.743  1.3777  1.3255  0.8036
 6092TIP3   OH242470   5.201   2.957   5.215 -0.0664  0.7813 -0.3839
 6092TIP3    H142471   5.295   2.950   5.233 -0.7782  0.0259  4.0855
 6092TIP3    H242472   5.171   2.867   5.205 -0.5163  0.9805 -0.9277
 6093TIP3   OH242473   1.558   5.028   5.676 -0.0051  0.3289  0.0269
 6093TIP3    H142474   1.545   4.934   5.663  1.3922  0.1901 -0.6026
 6093TIP3    H242475   1.483   5.069   5.634  0.4178 -0.4560 -1.6181
 6094TIP3   OH242476   6.142   2.730   5.214 -0.3083 -0.6158  0.4627
 6094TIP3    H142477   6.101   2.812   5.187 -0.1796 -0.5141  0.5720
 6094TIP3    H242478   6.087   2.699   5.286 -1.5974 -1.7149 -0.9371
 6095TIP3   OH242479   5.500   2.938   5.178 -0.5169 -1.0022  0.3887
 6095TIP3    H142480   5.543   2.854   5.160 -2.1700 -1.7856 -0.1413
 6095TIP3    H242481   5.571   3.003   5.174  0.6865 -2.2866  0.1325
 6096TIP3   OH242482   3.467   0.678   5.971 -0.0832  0.0464  0.3110
 6096TIP3    H142483   3.470   0.584   5.954  1.8314 -0.2911  2.0798
 6096TIP3    H242484   3.506   0.718   5.894 -0.6910 -0.6104 -0.3521
 6097TIP3   OH242485   1.525   0.841   5.564 -0.5649  0.4609 -0.4511
 6097TIP3    H142486   1.564   0.923   5.534 -0.1610  0.0601 -1.0429
 6097TIP3    H242487   1.549   0.836   5.657  2.3190 -0.5793 -1.1408
 6098TIP3   OH242488   9.020   7.749   7.220  0.3577 -0.2988  0.1247
 6098TIP3    H142489   9.030   7.843   7.234  0.7901 -0.3089 -0.0749
 6098TIP3    H242490   9.089   7.727   7.158  1.2919 -1.0256  1.3638
 6099TIP3   OH242491   4.249   6.252   6.589  0.5180 -0.0645  0.1728
 6099TIP3    H142492   4.273   6.159   6.592  0.9064  0.0512  0.8748
 6099TIP3    H242493   4.208   6.264   6.503  0.3687 -0.9078  0.1219
 6100TIP3   OH242494   0.258   8.871   5.693  0.2783  0.1860 -0.2857
 6100TIP3    H142495   0.291   8.960   5.699  1.7475 -0.3777  0.8374
 6100TIP3    H242496   0.337   8.817   5.685 -0.1389 -1.3236  3.5163
 6101TIP3   OH242497   7.894   6.785   5.962 -0.6277  0.0786 -0.2913
 6101TIP3    H142498   7.922   6.707   6.011 -0.4900 -0.0605 -0.5911
 6101TIP3    H242499   7.798   6.786   5.971 -0.7023 -0.5822 -0.9711
 6102TIP3   OH242500   4.900   8.204   6.341 -0.2447 -0.1214 -1.0697
 6102TIP3    H142501   4.946   8.173   6.263 -0.0646 -0.2712 -0.9045
 6102TIP3    H242502   4.904   8.299   6.335  0.4648 -0.1305 -0.8382
 6103TIP3   OH242503   4.971   5.771   6.508 -0.2522 -0.4865  0.9846
 6103TIP3    H142504   4.949   5.806   6.422 -0.4060 -0.3669  1.0720
 6103TIP3    H242505   4.993   5.680   6.492  1.1863 -0.0969  0.5903
 6104TIP3   OH242506   2.867   3.650   6.381 -0.0360  0.7293 -0.8319
 6104TIP3    H142507   2.855   3.611   6.294  1.5322 -0.4891 -0.5362
 6104TIP3    H242508   2.863   3.576   6.441  0.1700  1.4034  0.0258
 6105TIP3   OH242509   3.589   6.797   4.947  0.2416 -0.1107 -0.2453
 6105TIP3    H142510   3.682   6.776   4.936  0.1202 -0.6262 -0.3220
 6105TIP3    H242511   3.557   6.729   5.007 -0.1476 -0.0901 -0.4306
 6106TIP3   OH242512   0.098   7.199   6.613 -0.1504 -0.4453 -0.3834
 6106TIP3    H142513   0.109   7.118   6.562  1.4606  0.7838 -2.1447
 6106TIP3    H242514   0.187   7.224   6.637 -0.5981  0.9559 -0.1194
 6107TIP3   OH242515   0.571   6.455   6.681  0.0128  0.0181  0.2961
 6107TIP3    H142516   0.506   6.525   6.689  0.0104 -0.1665  2.4036
 6107TIP3    H242517   0.650   6.491   6.720  0.1394 -0.9668  0.9917
 6108TIP3   OH242518   6.702   8.909   5.012  0.0614  0.1512 -0.4994
 6108TIP3    H142519   6.613   8.916   4.979 -0.1773  0.5462  0.2076
 6108TIP3    H242520   6.723   8.997   5.044  0.0188 -0.3643  1.0454
 6109TIP3   OH242521   4.151   3.360   6.035  0.2051  0.1965  0.2165
 6109TIP3    H142522   4.064   3.388   6.007  0.2338  0.9113  0.8167
 6109TIP3    H242523   4.136   3.278   6.082 -0.2145  0.5644  0.7404
 6110TIP3   OH242524   1.330   9.153   5.534 -0.1729  0.1524  0.7757
 6110TIP3    H142525   1.402   9.156   5.597  0.5555 -2.3577  0.1775
 6110TIP3    H242526   1.275   9.081   5.564 -0.2942 -0.5018 -0.9051
 6111TIP3   OH242527   4.618   7.587   6.036 -0.2141  0.3461  0.2723
 6111TIP3    H142528   4.644   7.555   5.950 -0.5140  1.2486 -0.1631
 6111TIP3    H242529   4.566   7.515   6.073 -1.5304  0.5941 -1.0075
 6112TIP3   OH242530   1.325   8.712   4.832  0.1396 -0.0249 -0.0841
 6112TIP3    H142531   1.416   8.732   4.812  0.2230 -0.0114  0.2963
 6112TIP3    H242532   1.320   8.715   4.928 -0.1350 -0.5779 -0.0762
 6113TIP3   OH242533   0.369   2.690   6.032  0.0480 -0.2184  0.0937
 6113TIP3    H142534   0.309   2.763   6.018  0.8836  0.5820  0.4952
 6113TIP3    H242535   0.324   2.632   6.094  0.3259  1.2145  1.7394
 6114TIP3   OH242536   2.648   5.891   5.924  0.0344  0.5268 -0.2132
 6114TIP3    H142537   2.574   5.830   5.925 -0.3423  0.9724 -0.8726
 6114TIP3    H242538   2.615   5.971   5.965  1.0165 -0.2229  2.3003
 6115TIP3   OH242539   1.428   5.671   5.117 -0.7662  0.2694 -0.3746
 6115TIP3    H142540   1.466   5.626   5.041 -1.7771 -1.2261 -0.0510
 6115TIP3    H242541   1.485   5.646   5.190  0.7039  2.3891 -0.7170
 6116TIP3   OH242542   5.087   2.044   5.214 -0.0528  0.2896  0.4108
 6116TIP3    H142543   5.014   2.092   5.176 -0.1406 -0.3783 -0.2954
 6116TIP3    H242544   5.162   2.104   5.208  0.3608 -0.3548 -2.4550
 6117TIP3   OH242545   5.147   2.657   5.199  0.1898 -0.2302  0.4164
 6117TIP3    H142546   5.171   2.585   5.258  1.2891 -1.0120 -0.9229
 6117TIP3    H242547   5.172   2.627   5.112 -1.7695  0.7301 -0.5526
 6118TIP3   OH242548   2.838   3.719   5.551  0.6070 -0.5607 -0.5881
 6118TIP3    H142549   2.821   3.689   5.462 -0.3464 -1.5219 -0.1082
 6118TIP3    H242550   2.761   3.770   5.574  1.2820  0.5193 -0.6362
 6119TIP3   OH242551   3.400   5.852   6.557  0.2644  0.3460 -0.0407
 6119TIP3    H142552   3.328   5.914   6.545 -0.6641 -0.4827  0.9527
 6119TIP3    H242553   3.475   5.894   6.515  0.2701  3.2049  2.4628
 6120TIP3   OH242554   8.065   7.970   5.207 -0.1822 -0.0187  0.1164
 6120TIP3    H142555   8.013   7.890   5.220 -0.3172  0.0149 -0.2282
 6120TIP3    H242556   8.080   7.974   5.113 -0.7017  0.6902  0.0570
 6121TIP3   OH242557   6.508   7.890   5.729  0.0398 -0.1772  0.5198
 6121TIP3    H142558   6.561   7.890   5.809  1.1730  1.4096 -0.1796
 6121TIP3    H242559   6.568   7.921   5.661 -0.7357 -2.0050 -1.0902
 6122TIP3   OH242560   7.328   3.237   5.832  0.1898  0.3663 -0.1999
 6122TIP3    H142561   7.267   3.252   5.759 -0.2541  1.0838  0.3010
 6122TIP3    H242562   7.407   3.284   5.807 -0.1324  1.0242 -0.0093
 6123TIP3   OH242563   6.708   4.030   6.371 -0.4074 -0.3986 -0.3298
 6123TIP3    H142564   6.690   3.978   6.449 -0.9246 -1.7511 -1.3117
 6123TIP3    H242565   6.716   3.966   6.300 -0.8117  0.8327 -1.5485
 6124TIP3   OH242566   8.778   4.663   5.037  0.0907  0.3154  0.2251
 6124TIP3    H142567   8.872   4.656   5.022  0.3310 -0.9880  1.9747
 6124TIP3    H242568   8.768   4.740   5.094  0.1128  0.4123  0.0967
 6125TIP3   OH242569   0.692   8.885   5.917  0.0118  0.2430 -0.5711
 6125TIP3    H142570   0.643   8.966   5.931  0.6738  0.5424  0.1169
 6125TIP3    H242571   0.648   8.841   5.845 -0.0638  1.4576 -1.2774
 6126TIP3   OH242572   8.685   9.154   7.072 -0.5505  1.0628 -0.2431
 6126TIP3    H142573   8.754   9.095   7.041  0.7350  1.8918  0.9099
 6126TIP3    H242574   8.642   9.106   7.142  1.2313  1.8288  1.4706
 6127TIP3   OH242575   1.330   3.341   5.044 -0.6301 -0.0302 -0.1315
 6127TIP3    H142576   1.297   3.291   5.118 -0.0658  0.4547  0.4646
 6127TIP3    H242577   1.360   3.424   5.083  2.1377 -0.7814 -0.4424
 6128TIP3   OH242578   5.789   8.126   5.295  0.0525  0.3647  0.2045
 6128TIP3    H142579   5.704   8.136   5.253 -0.1342 -0.1396  0.4434
 6128TIP3    H242580   5.826   8.214   5.299  0.1333  0.4031 -1.1196
 6129TIP3   OH242581   4.083   7.611   5.025 -0.4383 -0.2359 -0.5188
 6129TIP3    H142582   4.163   7.651   4.991 -0.1242  1.6863  2.1170
 6129TIP3    H242583   4.029   7.686   5.052 -0.9610 -1.4616  2.2378
 6130TIP3   OH242584   5.027   2.661   5.569  0.0522  0.1668 -0.2831
 6130TIP3    H142585   5.041   2.568   5.582 -0.4802 -0.0999 -1.4301
 6130TIP3    H242586   5.092   2.704   5.624  0.3774 -0.8786  0.1627
 6131TIP3   OH242587   0.327   1.245   4.880  0.3362 -0.1215 -0.3910
 6131TIP3    H142588   0.256   1.181   4.886  0.5768 -0.2993  0.8897
 6131TIP3    H242589   0.395   1.210   4.938  0.6048  1.1332  0.0798
 6132TIP3   OH242590   3.643   1.310   5.334 -0.4978 -0.4489  0.3974
 6132TIP3    H142591   3.665   1.312   5.241  0.4251 -2.4952  0.4980
 6132TIP3    H242592   3.603   1.395   5.352  0.2721  0.3969 -1.6189
 6133TIP3   OH242593   3.511   6.210   6.344 -0.0710  0.1329 -0.2806
 6133TIP3    H142594   3.597   6.244   6.316  0.2769 -0.9521 -0.5756
 6133TIP3    H242595   3.491   6.259   6.423  0.3150  1.1729 -0.7968
 6134TIP3   OH242596   6.852   5.384   5.817  0.6661  0.4699  0.6269
 6134TIP3    H142597   6.800   5.305   5.800  0.7143  0.9027 -2.0552
 6134TIP3    H242598   6.807   5.453   5.769  3.7777  0.7809 -2.1879
 6135TIP3   OH242599   3.225   5.529   6.973  0.4687 -0.4983  0.1151
 6135TIP3    H142600   3.180   5.472   7.035 -0.0650  0.0897  0.2814
 6135TIP3    H242601   3.155   5.578   6.929  0.8733 -0.5565 -0.6003
 6136TIP3   OH242602   0.325   0.065   6.417  0.7542  0.0041 -0.0085
 6136TIP3    H142603   0.355   0.132   6.355  0.0874 -0.6245 -1.0537
 6136TIP3    H242604   0.344   0.102   6.503 -0.6598  2.0715 -0.5056
 6137TIP3   OH242605   4.236   8.981   6.579  0.4088 -0.3679 -0.4352
 6137TIP3    H142606   4.174   9.006   6.647  0.8406 -2.0550  0.6241
 6137TIP3    H242607   4.287   9.060   6.564 -0.3118  0.3071  0.5180
 6138TIP3   OH242608   6.485   0.195   6.585 -0.6566  0.6503  0.1918
 6138TIP3    H142609   6.518   0.283   6.567 -0.7842  0.4699 -0.9737
 6138TIP3    H242610   6.469   0.195   6.680 -0.3250  1.7621  0.2666
 6139TIP3   OH242611   5.324   3.308   6.250  0.0171  0.0016 -0.3711
 6139TIP3    H142612   5.248   3.357   6.281  0.5610  0.4506  0.2786
 6139TIP3    H242613   5.383   3.303   6.325  1.1943  0.7872 -1.1949
 6140TIP3   OH242614   1.219   1.632   5.650 -0.2069 -0.2061  0.5717
 6140TIP3    H142615   1.243   1.557   5.595  1.8913  2.1809 -2.0612
 6140TIP3    H242616   1.166   1.687   5.593 -1.1657  0.6667  2.2453
 6141TIP3   OH242617   3.468   0.431   6.097 -0.4890  0.2109 -0.0858
 6141TIP3    H142618   3.542   0.483   6.130 -1.1171  1.3188 -0.3813
 6141TIP3    H242619   3.417   0.409   6.175  0.7949 -1.6655  0.2946
 6142TIP3   OH242620   5.153   3.482   5.518 -0.0535 -0.3187  0.0272
 6142TIP3    H142621   5.175   3.415   5.583 -0.0004 -0.8941 -0.5791
 6142TIP3    H242622   5.157   3.565   5.567  1.9403 -0.5314  0.3276
 6143TIP3   OH242623   4.422   5.981   6.567  0.3789 -0.3049  0.3494
 6143TIP3    H142624   4.419   5.899   6.615  1.3750  0.0634  1.0783
 6143TIP3    H242625   4.456   5.958   6.481  0.9968 -0.6081  0.6723
 6144TIP3   OH242626   7.061   9.131   7.226 -0.0180 -0.1177  0.0748
 6144TIP3    H142627   6.992   9.185   7.186 -0.0124 -0.3923 -0.3092
 6144TIP3    H242628   7.112   9.192   7.279 -1.4175 -0.1338  1.5416
 6145TIP3   OH242629   3.375   2.627   6.049 -0.4640 -0.5530  0.3542
 6145TIP3    H142630   3.311   2.665   5.989  0.1182  1.0958  0.7153
 6145TIP3    H242631   3.368   2.681   6.128  1.8939  0.2024  0.1172
 6146TIP3   OH242632   6.884   5.755   5.817 -0.2223 -0.3123  0.5716
 6146TIP3    H142633   6.909   5.696   5.888  0.2613  0.4027  1.0079
 6146TIP3    H242634   6.816   5.708   5.769 -0.7720 -0.6967  1.6869
 6147TIP3   OH242635   4.236   6.378   6.009  0.2053 -0.0005 -0.0171
 6147TIP3    H142636   4.211   6.390   5.918  1.1562  1.0372 -0.1716
 6147TIP3    H242637   4.211   6.288   6.030 -2.3506  0.5159 -0.5143
 6148TIP3   OH242638   2.604   3.378   5.410  0.0586 -0.0352  0.0067
 6148TIP3    H142639   2.657   3.445   5.367  0.4307 -1.1379 -1.3664
 6148TIP3    H242640   2.516   3.414   5.411  0.1744  0.3145 -1.1062
 6149TIP3   OH242641   1.755   7.012   5.259  1.1044  0.4524  0.7156
 6149TIP3    H142642   1.770   7.089   5.205  1.0983  0.0441  0.1252
 6149TIP3    H242643   1.833   6.958   5.246 -0.5080 -1.4776 -2.0153
 6150TIP3   OH242644   5.566   5.330   5.423  0.0414 -1.2083  0.6762
 6150TIP3    H142645   5.586   5.265   5.490 -1.0253 -1.9112  0.3509
 6150TIP3    H242646   5.480   5.365   5.448 -0.6515 -1.9013 -0.6034
 6151TIP3   OH242647   3.816   7.724   6.578 -0.2269  0.4737  0.1719
 6151TIP3    H142648   3.858   7.754   6.498  1.7047  1.0822  1.3363
 6151TIP3    H242649   3.798   7.631   6.562 -1.6507  1.0078 -1.6289
 6152TIP3   OH242650   1.122   1.526   5.405  0.4649  0.1474 -0.0670
 6152TIP3    H142651   1.100   1.447   5.355 -2.1387 -0.1679  1.3730
 6152TIP3    H242652   1.156   1.587   5.340 -0.5145 -1.0528 -1.7865
 6153TIP3   OH242653   1.409   1.152   5.625  0.3579  0.1105 -0.4027
 6153TIP3    H142654   1.322   1.188   5.642 -0.0431 -0.4092 -1.3108
 6153TIP3    H242655   1.429   1.100   5.704  0.5365  1.4880  0.4948
 6154TIP3   OH242656   1.064   2.778   4.782  0.4729  0.9316 -0.4495
 6154TIP3    H142657   1.141   2.757   4.835  0.9055  0.5587 -1.1990
 6154TIP3    H242658   1.081   2.866   4.749  1.0107  0.5069 -1.3370
 6155TIP3   OH242659   8.536   2.910   6.310  0.4112  0.3264 -0.4793
 6155TIP3    H142660   8.582   2.940   6.389 -1.9343  2.2734  0.2748
 6155TIP3    H242661   8.533   2.987   6.254 -1.1674  0.0482 -0.8277
 6156TIP3   OH242662   3.191   5.914   6.223  0.0466  0.5019  0.2661
 6156TIP3    H142663   3.101   5.913   6.189 -1.5025 -1.7548  3.9082
 6156TIP3    H242664   3.189   5.978   6.294  1.5904  0.8986  0.0017
 6157TIP3   OH242665   2.389   1.049   6.569 -0.5369 -0.3500 -0.4901
 6157TIP3    H142666   2.484   1.053   6.554 -0.6630 -1.8537 -1.9719
 6157TIP3    H242667   2.364   1.140   6.586  1.2887 -0.0396  0.8491
 6158TIP3   OH242668   5.846   6.501   5.812  0.3100  0.0439  0.6706
 6158TIP3    H142669   5.886   6.496   5.899  1.0452 -1.0564  0.2972
 6158TIP3    H242670   5.764   6.452   5.821  1.5391 -2.2925  0.1899
 6159TIP3   OH242671   5.268   8.623   5.917 -0.2593 -0.1168  0.3122
 6159TIP3    H142672   5.188   8.675   5.912 -1.6482 -2.2161 -1.7668
 6159TIP3    H242673   5.334   8.675   5.873 -0.8217  1.0648  0.8300
 6160TIP3   OH242674   4.534   7.096   5.470  0.3209  0.3615  0.7762
 6160TIP3    H142675   4.553   7.076   5.379 -3.5817 -0.2525 -0.0788
 6160TIP3    H242676   4.566   7.185   5.482  1.2947  0.3002 -1.0553
 6161TIP3   OH242677   1.109   8.310   6.314 -0.2367  0.3620  0.0850
 6161TIP3    H142678   1.078   8.329   6.402 -0.3693 -1.5703  0.4864
 6161TIP3    H242679   1.050   8.242   6.281  0.3092  0.4660 -1.1872
 6162TIP3   OH242680   2.533   1.519   5.600 -0.5584 -0.0517  0.1414
 6162TIP3    H142681   2.601   1.521   5.667 -0.6589 -1.2263  0.3111
 6162TIP3    H242682   2.576   1.547   5.520  0.0331 -0.4425  0.3205
 6163TIP3   OH242683   1.790   7.451   5.785 -0.1593 -0.2843 -0.1679
 6163TIP3    H142684   1.737   7.388   5.736 -0.3138 -0.7902  0.6404
 6163TIP3    H242685   1.792   7.417   5.874 -0.9208  1.2806  0.4799
 6164TIP3   OH242686   9.126   0.684   6.858 -0.5837  0.2686  0.1746
 6164TIP3    H142687   9.058   0.619   6.845 -0.0212 -0.2532 -0.2108
 6164TIP3    H242688   9.097   0.734   6.934 -2.0745  0.9612 -0.8165
 6165TIP3   OH242689   2.160   8.653   6.765  0.1789 -0.1962 -0.0944
 6165TIP3    H142690   2.079   8.704   6.759  0.1149 -0.4722 -2.5305
 6165TIP3    H242691   2.130   8.563   6.778  0.0144 -0.4046 -1.7199
 6166TIP3   OH242692   5.394   1.247   5.526 -0.6802 -0.3352 -0.2433
 6166TIP3    H142693   5.481   1.240   5.566 -1.2796  0.1133  1.2011
 6166TIP3    H242694   5.409   1.234   5.432  1.0064  0.2791 -0.0780
 6167TIP3   OH242695   9.174   0.414   5.605 -0.1763  0.3327 -0.2928
 6167TIP3    H142696   9.098   0.458   5.567 -0.5616 -0.8278 -0.9052
 6167TIP3    H242697   9.216   0.481   5.659 -0.2510  1.7160 -1.8714
 6168TIP3   OH242698   2.059   1.101   5.260 -0.0539 -0.1751  0.1762
 6168TIP3    H142699   1.973   1.142   5.268 -0.2374 -0.8289  1.7363
 6168TIP3    H242700   2.044   1.022   5.208 -0.0571  0.6054 -1.0587
 6169TIP3   OH242701   2.882   1.093  10.377  0.5010 -0.2422 -0.5293
 6169TIP3    H142702   2.794   1.131  10.382  0.1466 -0.9463 -1.1911
 6169TIP3    H242703   2.878   1.033  10.303  2.1070  1.1732 -1.8468
 6170TIP3   OH242704   8.109   1.396   6.915 -0.2290 -0.0537  0.1743
 6170TIP3    H142705   8.104   1.472   6.857  0.9566  1.0495  1.4682
 6170TIP3    H242706   8.203   1.377   6.921 -0.3070 -0.0248  1.8500
 6171TIP3   OH242707   7.765   6.955   6.674 -0.0837  0.4005 -0.0092
 6171TIP3    H142708   7.767   6.946   6.770 -1.8982 -1.8760 -0.1009
 6171TIP3    H242709   7.673   6.974   6.654  0.2665  0.8123 -1.3266
 6172TIP3   OH242710   0.976   1.433   5.626 -0.2770  0.3012 -0.7343
 6172TIP3    H142711   1.035   1.470   5.561 -1.5856  0.7614 -1.6968
 6172TIP3    H242712   0.899   1.489   5.624 -1.3001 -1.0409 -0.4639
 6173TIP3   OH242713   8.774   4.921   5.270  0.0051 -0.0356  0.5398
 6173TIP3    H142714   8.716   4.855   5.307  0.6814 -0.2535  1.2452
 6173TIP3    H242715   8.718   4.973   5.213 -0.0403 -2.7979 -2.1744
 6174TIP3   OH242716   7.804   0.648   5.963 -0.0631 -0.6249  0.0815
 6174TIP3    H142717   7.822   0.701   6.041  1.0948 -0.7267 -0.1024
 6174TIP3    H242718   7.755   0.573   5.996 -2.7095  1.0150  0.2075
 6175TIP3   OH242719   5.076   4.467   6.421 -0.1511  0.2251 -0.2843
 6175TIP3    H142720   5.001   4.444   6.368  0.6413 -1.9657 -0.5556
 6175TIP3    H242721   5.066   4.415   6.501  1.8161 -1.3485 -0.9832
 6176TIP3   OH242722   5.497   1.602   5.031 -0.3547 -0.2052 -0.0779
 6176TIP3    H142723   5.469   1.553   4.954 -1.0615 -0.3363  0.2509
 6176TIP3    H242724   5.437   1.676   5.036 -0.2075 -0.1045  0.2435
 6177TIP3   OH242725   2.091   1.575   5.456  0.0173  0.2162  0.2903
 6177TIP3    H142726   2.124   1.500   5.407 -1.0369  0.2121 -0.4436
 6177TIP3    H242727   2.030   1.537   5.519 -1.4002  0.5173 -0.8438
 6178TIP3   OH242728   2.355   1.453   5.794 -0.2697 -0.5543 -0.2714
 6178TIP3    H142729   2.412   1.488   5.726  0.0396  0.7659  0.6328
 6178TIP3    H242730   2.335   1.363   5.765  0.0857 -0.1324 -1.9276
 6179TIP3   OH242731   6.071   5.433   5.268  0.3142 -0.0840 -0.3501
 6179TIP3    H142732   5.986   5.393   5.289  0.2148  0.4757  0.3641
 6179TIP3    H242733   6.091   5.402   5.180 -0.8222  0.0940 -0.6908
 6180TIP3   OH242734   8.421   8.160   5.743  0.0886  0.0477 -0.2903
 6180TIP3    H142735   8.411   8.216   5.666 -1.7353 -1.8839 -1.6119
 6180TIP3    H242736   8.366   8.201   5.810  0.8098  1.1703 -0.3718
 6181TIP3   OH242737   6.919   0.013   6.063  0.1191  0.1785 -0.6386
 6181TIP3    H142738   6.994   0.020   6.123 -0.5556  0.1841  0.2338
 6181TIP3    H242739   6.945  -0.053   5.999 -0.3495 -2.2532  1.5251
 6182TIP3   OH242740   1.275   2.962   5.836  0.1824  0.8271 -0.0353
 6182TIP3    H142741   1.189   2.973   5.876  0.0605  1.3772 -0.4248
 6182TIP3    H242742   1.335   3.011   5.894 -0.0089  1.7052 -0.5562
 6183TIP3   OH242743   6.061   8.716   5.442 -0.0298  0.1630  0.0954
 6183TIP3    H142744   5.993   8.650   5.458 -0.2036  0.4253  0.4583
 6183TIP3    H242745   6.071   8.718   5.347  0.7489 -1.1636  0.1284
 6184TIP3   OH242746   0.397   2.950   4.831 -0.1031  0.4838 -0.7638
 6184TIP3    H142747   0.350   2.870   4.808  0.8133  0.5117 -3.0416
 6184TIP3    H242748   0.331   3.019   4.827 -0.7694 -0.0415  0.6152
 6185TIP3   OH242749   5.825   3.722   5.875 -0.1557  0.4026  0.7026
 6185TIP3    H142750   5.806   3.746   5.966 -2.8376 -0.6678  0.5489
 6185TIP3    H242751   5.755   3.660   5.853  0.2759  0.8145 -2.1661
 6186TIP3   OH242752   3.621   1.987   5.639 -0.7393  0.0159  0.1028
 6186TIP3    H142753   3.604   1.894   5.625  0.8579 -0.0357 -2.0988
 6186TIP3    H242754   3.678   2.012   5.565 -0.3648  2.5162  1.1429
 6187TIP3   OH242755   0.100   1.766   5.668  0.2986 -0.6022  0.8024
 6187TIP3    H142756   0.124   1.848   5.626  0.4957 -0.7021  0.7205
 6187TIP3    H242757   0.166   1.703   5.639 -0.2941 -0.9769  0.2557
 6188TIP3   OH242758   1.111   6.305   5.109 -0.1985 -0.5607  0.7192
 6188TIP3    H142759   1.044   6.371   5.124  0.6566  0.6488 -0.5513
 6188TIP3    H242760   1.146   6.325   5.022  1.2054 -1.6845  0.9814
 6189TIP3   OH242761   4.506   6.784   5.889  0.1944  0.0285 -0.0316
 6189TIP3    H142762   4.522   6.747   5.976  0.3682  0.4498  0.1183
 6189TIP3    H242763   4.582   6.839   5.873  0.1573 -0.0396 -0.4509
 6190TIP3   OH242764   5.303   3.924   6.375 -0.3658 -0.2144  0.2846
 6190TIP3    H142765   5.296   3.979   6.298 -0.1765 -1.5077 -0.6918
 6190TIP3    H242766   5.348   3.978   6.440 -0.2466  0.7800 -0.6030
 6191TIP3   OH242767   8.836   5.974   5.723 -0.4959  0.3826 -0.2506
 6191TIP3    H142768   8.876   6.046   5.673  0.9820  0.6713  1.2471
 6191TIP3    H242769   8.856   5.896   5.672  1.6559  0.5758  0.1968
 6192TIP3   OH242770   1.570   6.319   5.565 -0.2343 -0.2053 -0.2644
 6192TIP3    H142771   1.592   6.375   5.491 -0.5559 -0.0509 -0.2431
 6192TIP3    H242772   1.510   6.254   5.528  0.2761 -0.6496 -0.3311
 6193TIP3   OH242773   3.369   4.930   5.170 -0.5331 -0.2275  0.0599
 6193TIP3    H142774   3.400   4.942   5.260 -0.6041 -1.5077  0.2860
 6193TIP3    H242775   3.366   5.018   5.133 -1.3308  0.4168  1.5772
 6194TIP3   OH242776   2.594   4.623   5.654  0.1181  0.3130  0.3944
 6194TIP3    H142777   2.626   4.574   5.578  0.6241  0.3431  0.5852
 6194TIP3    H242778   2.603   4.563   5.728  0.6190  0.6390  0.6069
 6195TIP3   OH242779   2.157   4.610   6.842  0.3582  0.6362  0.1908
 6195TIP3    H142780   2.093   4.647   6.903  1.2430  0.7583  1.0726
 6195TIP3    H242781   2.241   4.644   6.873  0.7564  1.3378 -1.5821
 6196TIP3   OH242782   3.197   2.771   5.858  0.8227  0.2574  0.1221
 6196TIP3    H142783   3.263   2.827   5.818  0.1511  0.1030 -1.2781
 6196TIP3    H242784   3.158   2.824   5.927  1.3104  0.9218 -0.1043
 6197TIP3   OH242785   7.745   6.211   6.148 -0.1312 -0.0619 -0.2914
 6197TIP3    H142786   7.686   6.177   6.081  0.4522  1.4270 -1.6062
 6197TIP3    H242787   7.760   6.137   6.207 -1.2588 -1.1811 -1.3635
 6198TIP3   OH242788   6.604   8.227   6.515 -1.0612  0.3929  0.0360
 6198TIP3    H142789   6.641   8.161   6.574 -0.9072 -0.0678 -0.5687
 6198TIP3    H242790   6.608   8.308   6.565 -0.7163  0.0506  0.5758
 6199TIP3   OH242791   1.944   6.850   6.759 -0.6554  0.2912  0.0822
 6199TIP3    H142792   1.935   6.868   6.666 -0.7583 -0.7206 -0.1162
 6199TIP3    H242793   2.033   6.879   6.781  0.1307 -1.3020 -0.7982
 6200TIP3   OH242794   9.070   7.167   6.749 -0.2595  0.1831 -0.4536
 6200TIP3    H142795   9.157   7.168   6.710 -0.1864  2.4291 -0.3742
 6200TIP3    H242796   9.011   7.141   6.678  0.1796  1.4614 -1.3137
 6201TIP3   OH242797   1.585   5.411   5.636  0.1818  0.0976 -0.5331
 6201TIP3    H142798   1.596   5.415   5.731  3.7544 -0.6266 -0.7730
 6201TIP3    H242799   1.547   5.495   5.612 -0.5123  0.3967  1.5028
 6202TIP3   OH242800   1.489   5.971   5.659 -0.5641  0.1242  0.0962
 6202TIP3    H142801   1.482   5.881   5.692  0.1271  0.3782  0.9869
 6202TIP3    H242802   1.582   5.992   5.668 -0.9642  1.4846  1.4532
 6203TIP3   OH242803   1.456   1.343   5.411  0.1556 -0.5984 -0.6474
 6203TIP3    H142804   1.396   1.305   5.347  0.2337 -0.5454 -0.7525
 6203TIP3    H242805   1.450   1.285   5.487  1.3524 -1.6514 -1.3199
 6204TIP3   OH242806   1.321   6.549   6.552 -0.1921  0.5208 -0.5299
 6204TIP3    H142807   1.399   6.579   6.598 -2.1054 -0.7550  4.1682
 6204TIP3    H242808   1.354   6.491   6.483  2.9935  3.1352 -1.4579
 6205TIP3   OH242809   3.258   3.314   6.573 -0.2334 -0.3168 -0.1931
 6205TIP3    H142810   3.195   3.375   6.533  0.7245  0.3352 -0.7549
 6205TIP3    H242811   3.214   3.229   6.570 -0.9571  0.0641 -0.8615
 6206TIP3   OH242812   9.117   0.169   5.707 -0.2031  0.4151 -0.1766
 6206TIP3    H142813   9.137   0.260   5.682  0.8060 -0.3456 -2.3416
 6206TIP3    H242814   9.022   0.162   5.697 -0.2663  1.1641 -0.2141
 6207TIP3   OH242815   6.584   6.736   5.390  0.4326 -0.0926 -0.4089
 6207TIP3    H142816   6.645   6.676   5.348 -1.0228 -2.0612  0.1182
 6207TIP3    H242817   6.581   6.706   5.481 -1.2765 -0.0623 -0.4227
 6208TIP3   OH242818   1.479   1.620   5.509 -0.2263  0.3209 -0.3576
 6208TIP3    H142819   1.428   1.695   5.478 -0.2956 -0.3494 -1.9933
 6208TIP3    H242820   1.434   1.544   5.472  0.0044 -0.5246  1.0360
 6209TIP3   OH242821   3.593   6.771   6.781 -0.1934 -0.1142 -0.4986
 6209TIP3    H142822   3.688   6.761   6.784 -0.0213  0.9342  3.6541
 6209TIP3    H242823   3.560   6.683   6.765  1.5400 -1.3887  2.2196
 6210TIP3   OH242824   7.209   2.854   5.474 -0.3897  0.8560  0.0587
 6210TIP3    H142825   7.301   2.831   5.462 -0.5474  0.6378 -0.7379
 6210TIP3    H242826   7.169   2.775   5.510 -0.7142  0.1894 -1.6889
 6211TIP3   OH242827   5.917   6.786   5.749  0.0641 -0.2723  0.3021
 6211TIP3    H142828   5.956   6.786   5.662 -1.7312  0.6736 -0.5423
 6211TIP3    H242829   5.887   6.696   5.762  0.3295 -0.4132 -0.0378
 6212TIP3   OH242830   7.739   3.734   5.496  0.1148 -0.1125  0.0086
 6212TIP3    H142831   7.651   3.732   5.458 -0.8370  0.8855  2.0197
 6212TIP3    H242832   7.797   3.710   5.423 -1.6698  0.7354 -1.7867
 6213TIP3   OH242833   7.624   0.478   6.073 -0.1805  0.4217  0.1371
 6213TIP3    H142834   7.533   0.449   6.062  0.0257  0.4669 -2.1054
 6213TIP3    H242835   7.627   0.513   6.162 -2.2460  0.0272  0.4135
 6214TIP3   OH242836   0.498   1.646   6.188 -0.1836  0.1800  0.4247
 6214TIP3    H142837   0.569   1.614   6.244 -0.6697  1.0515  1.5760
 6214TIP3    H242838   0.539   1.713   6.134  0.2911 -0.6685 -0.2972
 6215TIP3   OH242839   6.560   7.112   5.219  0.1302  0.0760 -0.5721
 6215TIP3    H142840   6.519   7.175   5.159 -0.2299 -1.4605 -2.0169
 6215TIP3    H242841   6.653   7.135   5.217  0.1449  0.0005 -1.8294
 6216TIP3   OH242842   6.457   6.185   5.709  0.5554  0.2872 -0.0205
 6216TIP3    H142843   6.383   6.169   5.651 -1.5509  0.5418  2.4097
 6216TIP3    H242844   6.528   6.132   5.673 -0.5702  0.5106 -2.8092
 6217TIP3   OH242845   8.923   3.047   5.884  0.1577 -0.1969 -0.0524
 6217TIP3    H142846   8.829   3.041   5.903  0.2860 -0.3364  0.5797
 6217TIP3    H242847   8.939   2.979   5.819 -0.6162  1.4172 -2.0518
 6218TIP3   OH242848   0.536   2.803   5.029 -0.0931 -0.6340 -0.1684
 6218TIP3    H142849   0.487   2.843   4.957  0.0903  1.0141  0.5807
 6218TIP3    H242850   0.605   2.865   5.049  1.2751 -2.1280 -0.0456
 6219TIP3   OH242851   8.548   7.912   5.818  0.7587 -0.0383 -0.0668
 6219TIP3    H142852   8.637   7.904   5.853  0.3436  1.1862  1.3595
 6219TIP3    H242853   8.543   8.002   5.787  0.4035 -0.4751 -1.3345
 6220TIP3   OH242854   8.640   4.439   6.189 -0.2759  0.2365 -0.1706
 6220TIP3    H142855   8.730   4.445   6.219 -0.2128 -0.5744 -0.1777
 6220TIP3    H242856   8.588   4.430   6.269 -0.1689 -1.2205 -0.2367
 6221TIP3   OH242857   5.854   0.731   5.268  0.1527 -0.2329 -0.3547
 6221TIP3    H142858   5.817   0.696   5.348  0.0168  0.6946  0.0029
 6221TIP3    H242859   5.923   0.670   5.244 -0.3260 -0.9374  0.0338
 6222TIP3   OH242860   0.182   0.273   5.905 -0.2259  0.1662 -0.2962
 6222TIP3    H142861   0.173   0.334   5.979  0.6657  0.6337 -0.5635
 6222TIP3    H242862   0.108   0.213   5.915 -0.2911  0.4095  0.7998
 6223TIP3   OH242863   6.591   1.913   5.695  0.2594 -0.4689  0.2898
 6223TIP3    H142864   6.504   1.946   5.674  0.6949  0.4927 -0.0693
 6223TIP3    H242865   6.621   1.969   5.768  1.4517  0.7515 -1.0539
 6224TIP3   OH242866   6.952   9.154   6.853 -0.2858  0.2094 -0.3288
 6224TIP3    H142867   6.925   9.199   6.933 -0.7303  0.2637 -0.5108
 6224TIP3    H242868   6.963   9.062   6.880 -0.6828  0.1800 -0.2600
 6225TIP3   OH242869   8.912   9.113   5.783 -0.1722  0.2518 -0.2758
 6225TIP3    H142870   8.872   9.153   5.860 -0.8876 -0.0257 -0.4998
 6225TIP3    H242871   8.841   9.064   5.741  0.4747 -0.5026 -0.5102
 6226TIP3   OH242872   8.239   3.159   5.629  0.2556 -0.0718  0.0158
 6226TIP3    H142873   8.223   3.134   5.720 -1.0161  1.7305  0.3443
 6226TIP3    H242874   8.290   3.239   5.635  0.6638 -0.2577 -0.8793
 6227TIP3   OH242875   3.135   0.110   5.534 -0.1514  0.4329 -0.2126
 6227TIP3    H142876   3.096   0.196   5.520 -0.1153  0.4809 -0.0112
 6227TIP3    H242877   3.119   0.063   5.452 -1.1759  0.2444  0.0785
 6228TIP3   OH242878   1.449   7.131   5.271 -0.1400  0.1491  0.1818
 6228TIP3    H142879   1.434   7.037   5.262 -1.3029  0.2609  0.8102
 6228TIP3    H242880   1.527   7.138   5.326  0.9827 -0.4427 -1.2790
 6229TIP3   OH242881   0.921   6.761   6.466 -0.6452 -0.2619 -0.2355
 6229TIP3    H142882   0.989   6.724   6.409 -2.0328 -0.5789 -1.7702
 6229TIP3    H242883   0.862   6.688   6.483 -1.1236  0.2358  0.2483
 6230TIP3   OH242884   3.350   2.858   6.232 -0.0960 -0.8153  0.2460
 6230TIP3    H142885   3.436   2.851   6.272 -0.9368  1.0362  2.6323
 6230TIP3    H242886   3.293   2.805   6.288 -0.5980 -1.8751 -1.1947
 6231TIP3   OH242887   6.536   7.466   6.380 -1.0267  0.0373  0.1874
 6231TIP3    H142888   6.449   7.437   6.409 -0.5205 -0.8858  0.8155
 6231TIP3    H242889   6.523   7.493   6.289 -2.1898  0.9503  0.5961
 6232TIP3   OH242890   8.542   9.119   6.819 -0.1411 -1.0635 -0.0435
 6232TIP3    H142891   8.558   9.129   6.913  1.2928 -3.8616  0.1218
 6232TIP3    H242892   8.628   9.132   6.779 -0.8882  0.9590 -1.1443
 6233TIP3   OH242893   5.193   4.852   5.361  0.4833 -0.4487 -0.0626
 6233TIP3    H142894   5.206   4.937   5.402 -0.2903 -1.0992  1.6411
 6233TIP3    H242895   5.104   4.856   5.324  0.9597 -0.0702 -1.2215
 6234TIP3   OH242896   2.527   6.448   6.484  0.2389  0.6299 -0.4507
 6234TIP3    H142897   2.569   6.529   6.454 -0.3801  1.6930  1.3992
 6234TIP3    H242898   2.538   6.449   6.579 -0.5931 -1.0244 -0.2986
 6235TIP3   OH242899   6.020   8.118   5.616 -0.4088 -0.6760 -0.1013
 6235TIP3    H142900   6.052   8.208   5.607  0.0861 -0.7600  0.7102
 6235TIP3    H242901   6.098   8.067   5.638 -0.4489 -1.5402 -1.8062
 6236TIP3   OH242902   2.007   7.238   5.403  0.7506 -0.4412  0.6541
 6236TIP3    H142903   2.007   7.156   5.454  2.8541 -0.2275  1.1114
 6236TIP3    H242904   1.990   7.306   5.468 -1.4638 -0.4815  0.2006
 6237TIP3   OH242905   7.346   8.939   6.255  0.3672  0.2335 -0.4378
 6237TIP3    H142906   7.348   9.009   6.189  0.7822 -0.4631 -1.1886
 6237TIP3    H242907   7.311   8.863   6.208 -0.8591  0.1356  0.5832
 6238TIP3   OH242908   8.372   4.704   6.350 -0.5188  0.0533  0.0333
 6238TIP3    H142909   8.441   4.770   6.340 -0.3025  0.1131  1.7368
 6238TIP3    H242910   8.418   4.625   6.379 -1.3055  0.7955  3.8691
 6239TIP3   OH242911   5.778   7.349   5.436 -0.3097 -0.2626  0.3417
 6239TIP3    H142912   5.873   7.355   5.437 -0.2456 -0.7392 -0.8536
 6239TIP3    H242913   5.758   7.260   5.466 -0.3403 -0.3540  0.0593
 6240TIP3   OH242914   1.193   8.050   6.650 -0.2101 -0.2041 -0.3298
 6240TIP3    H142915   1.158   8.099   6.724  0.2564  0.2131 -0.3796
 6240TIP3    H242916   1.275   8.012   6.684  0.2507  0.3828 -0.7665
 6241TIP3   OH242917   3.928   5.931   5.554 -0.0562  0.0486  0.2287
 6241TIP3    H142918   3.872   5.854   5.547 -1.9728  1.3949  0.1587
 6241TIP3    H242919   3.945   5.940   5.647 -0.2457 -0.1404  0.2819
 6242TIP3   OH242920   1.852   6.057   6.499 -0.5199  0.0229  0.1887
 6242TIP3    H142921   1.879   6.133   6.448 -1.7277 -1.0895 -2.2743
 6242TIP3    H242922   1.912   5.988   6.471 -0.9270 -0.5067  0.6155
 6243TIP3   OH242923   2.928   2.416   5.567  0.2862 -0.2550  0.1514
 6243TIP3    H142924   2.993   2.360   5.609 -0.1506 -0.2839  0.8081
 6243TIP3    H242925   2.943   2.503   5.603 -0.7130 -0.4662  1.1365
 6244TIP3   OH242926   7.822   4.036   5.920  0.4057 -0.3762 -0.3738
 6244TIP3    H142927   7.847   4.103   5.856 -2.8896  0.9542 -0.4807
 6244TIP3    H242928   7.843   3.953   5.879  0.8509  0.5220 -2.0357
 6245TIP3   OH242929   8.866   4.389   5.526  0.0998 -0.9071 -0.3300
 6245TIP3    H142930   8.959   4.412   5.532 -0.4266  1.4939 -0.3569
 6245TIP3    H242931   8.841   4.408   5.436 -0.6617 -0.4508 -0.0353
 6246TIP3   OH242932   4.152   8.780   5.876 -0.5547 -0.5767  0.0992
 6246TIP3    H142933   4.208   8.805   5.803  0.0790  1.4929  1.2051
 6246TIP3    H242934   4.145   8.860   5.929  0.5238 -2.3823  3.2506
 6247TIP3   OH242935   5.982   6.197   5.767  0.1597  0.0366 -0.0016
 6247TIP3    H142936   6.040   6.126   5.792  1.0513  1.6359  3.0288
 6247TIP3    H242937   6.024   6.276   5.802 -3.2519  1.4053  1.4795
 6248TIP3   OH242938   2.264   0.889   6.077  0.1535  0.0875  0.2964
 6248TIP3    H142939   2.324   0.815   6.079  0.2538  0.0742 -1.4303
 6248TIP3    H242940   2.280   0.936   6.159  1.9951 -0.3185  0.2084
 6249TIP3   OH242941   3.954   9.191   5.847 -0.1199  0.4428 -0.4743
 6249TIP3    H142942   3.975   9.278   5.882 -1.5711  0.6013  0.0683
 6249TIP3    H242943   3.868   9.201   5.807 -0.8687 -1.0245  0.6854
 6250TIP3   OH242944   5.638   6.881   5.821  0.0352  0.0234 -0.6275
 6250TIP3    H142945   5.731   6.877   5.801  0.0013  0.2304 -0.8235
 6250TIP3    H242946   5.601   6.806   5.774  0.0118  0.2947 -1.0541
 6251TIP3   OH242947   0.384   1.517   5.600  0.2576  0.1486  0.1175
 6251TIP3    H142948   0.452   1.459   5.567 -0.2293 -0.8019  0.7289
 6251TIP3    H242949   0.350   1.561   5.523 -0.5049 -1.6439 -0.6344
 6252TIP3   OH242950   7.035   3.794   6.337 -0.6645  0.6030 -0.3412
 6252TIP3    H142951   6.951   3.759   6.307  0.0072  1.4895 -3.6371
 6252TIP3    H242952   7.029   3.888   6.320  0.6014  0.8595  0.5081
 6253TIP3   OH242953   2.794   4.407   6.115 -0.0878 -0.4989  0.3149
 6253TIP3    H142954   2.755   4.495   6.114  1.5294  0.2597 -0.0248
 6253TIP3    H242955   2.796   4.382   6.207 -2.2697 -1.0269  0.2773
 6254TIP3   OH242956   1.518   5.208   6.115 -0.2138  0.7254 -0.6631
 6254TIP3    H142957   1.568   5.150   6.057  0.8900 -0.0112  0.9432
 6254TIP3    H242958   1.446   5.154   6.147 -0.3676  0.8811 -0.7462
 6255TIP3   OH242959   8.641   1.161   5.306 -0.1431 -0.1540 -0.3567
 6255TIP3    H142960   8.658   1.140   5.214  1.1051  1.4565 -0.5308
 6255TIP3    H242961   8.549   1.188   5.308  0.3559  1.8705 -1.5923
 6256TIP3   OH242962   7.951   1.694   5.585  0.2850 -0.7179 -0.2743
 6256TIP3    H142963   7.947   1.700   5.681  0.8265 -1.4204 -0.2048
 6256TIP3    H242964   7.913   1.777   5.555 -1.3535 -1.1267  0.5255
 6257TIP3   OH242965   5.839   4.635   5.429  0.0980  0.0526 -0.6699
 6257TIP3    H142966   5.872   4.610   5.343 -0.5316  2.0262 -1.5461
 6257TIP3    H242967   5.776   4.566   5.451  1.0106 -1.0208 -1.2899
 6258TIP3   OH242968   8.957   2.537   6.731  0.9064  0.4451 -0.1420
 6258TIP3    H142969   8.988   2.504   6.646 -0.9861 -2.3253  0.1042
 6258TIP3    H242970   9.016   2.498   6.795 -0.0053 -0.7252  0.0141
 6259TIP3   OH242971   1.718   6.971   6.901 -0.3105 -0.7015 -0.1408
 6259TIP3    H142972   1.692   6.895   6.954  0.3997 -1.3829 -0.7489
 6259TIP3    H242973   1.780   6.936   6.838  1.7323  0.7997  0.9367
 6260TIP3   OH242974   6.140   5.152   5.401 -0.1738  0.4140  0.3168
 6260TIP3    H142975   6.126   5.087   5.470  1.0478  1.3780  1.5457
 6260TIP3    H242976   6.170   5.230   5.448  1.9339  0.7283 -1.4029
 6261TIP3   OH242977   7.908   5.266   4.908  1.1122 -0.9510  0.7636
 6261TIP3    H142978   7.954   5.184   4.888  0.6575 -1.3882  1.4520
 6261TIP3    H242979   7.816   5.240   4.918  1.0587 -0.4737  1.6227
 6262TIP3   OH242980   8.909   2.407   5.102 -0.6231  0.4056 -0.0640
 6262TIP3    H142981   9.003   2.417   5.087 -0.3966 -0.7684  0.4623
 6262TIP3    H242982   8.892   2.313   5.092 -2.1112  0.8048 -2.0439
 6263TIP3   OH242983   2.112   6.539   4.850 -0.1555 -0.0752  0.0355
 6263TIP3    H142984   2.098   6.556   4.944  1.1813 -1.0491  0.4343
 6263TIP3    H242985   2.039   6.583   4.807 -1.6862 -0.9267  1.6421
 6264TIP3   OH242986   0.494   6.235   5.188 -0.4750 -0.3649  0.1178
 6264TIP3    H142987   0.479   6.170   5.120  0.1069  0.3301 -0.6989
 6264TIP3    H242988   0.477   6.319   5.145 -0.3213  0.0759  0.8906
 6265TIP3   OH242989   1.190   5.513   5.235  0.6745  0.7422  0.0894
 6265TIP3    H142990   1.224   5.425   5.253  1.1189  1.0019  0.5644
 6265TIP3    H242991   1.256   5.553   5.178 -0.2658  0.2545 -1.3974
 6266TIP3   OH242992   7.437   8.459   6.105 -0.3259 -0.1699  0.2596
 6266TIP3    H142993   7.475   8.390   6.051 -0.1517 -0.5629  0.8685
 6266TIP3    H242994   7.389   8.514   6.044  0.5215 -0.1503 -0.3989
 6267TIP3   OH242995   6.285   6.456   6.440  0.2243 -0.2261 -0.5085
 6267TIP3    H142996   6.371   6.417   6.422  1.6908  1.6096  1.8704
 6267TIP3    H242997   6.293   6.492   6.528 -2.4382  1.5899 -0.8930
 6268TIP3   OH242998   7.721   7.493   6.356 -0.6412  0.4402  0.8825
 6268TIP3    H142999   7.712   7.523   6.446  3.4090 -0.0152  1.6412
 6268TIP3    H243000   7.741   7.572   6.305 -0.3383  0.3897  0.9173
 6269TIP3   OH243001   2.842   4.725   5.938  0.0245  0.2878 -0.2329
 6269TIP3    H143002   2.906   4.790   5.969 -1.1966  1.2553  0.3339
 6269TIP3    H243003   2.892   4.670   5.878  1.4227  0.9487  0.2586
 6270TIP3   OH243004   2.221   3.958   5.824 -0.2216 -0.5567 -0.3221
 6270TIP3    H143005   2.305   3.998   5.800 -1.0349  1.7839  0.3697
 6270TIP3    H243006   2.188   3.922   5.743  0.7393 -0.0643 -0.9590
 6271TIP3   OH243007   6.729   0.803   5.862  0.4536 -0.3827 -0.0690
 6271TIP3    H143008   6.790   0.735   5.893 -0.4133 -0.5102  1.4463
 6271TIP3    H243009   6.785   0.865   5.815  1.8785 -0.2101  1.7258
 6272TIP3   OH243010   7.302   7.292   4.979 -0.5788 -0.1116  0.1103
 6272TIP3    H143011   7.379   7.236   4.982 -1.1652 -0.9007  1.3493
 6272TIP3    H243012   7.230   7.232   4.956 -1.1443  0.2078  0.9848
 6273TIP3   OH243013   0.027   5.520   6.890  0.2344  0.3217  0.0925
 6273TIP3    H143014   0.026   5.444   6.832  3.2438  0.6200 -0.5196
 6273TIP3    H243015  -0.038   5.500   6.957 -0.1776 -2.0635 -0.9219
 6274TIP3   OH243016   7.410   5.899   5.425 -0.3010  0.0611 -0.1830
 6274TIP3    H143017   7.435   5.874   5.514  1.9090  1.7670 -0.2421
 6274TIP3    H243018   7.353   5.975   5.437 -0.6473 -0.1842 -0.2349
 6275TIP3   OH243019   5.405   8.955   6.505  0.0565  0.2444 -0.3866
 6275TIP3    H143020   5.359   9.015   6.565  1.4050 -1.4165  2.5486
 6275TIP3    H243021   5.495   8.986   6.506  0.1782 -0.0708 -1.2486
 6276TIP3   OH243022   2.763   7.547   6.233 -0.0419  0.0452 -0.3611
 6276TIP3    H143023   2.826   7.619   6.239 -2.5036  2.2725  0.4217
 6276TIP3    H243024   2.805   7.475   6.281  1.9346  1.3969  0.0543
 6277TIP3   OH243025   8.207   5.645   5.533 -0.5707  0.1078  0.5637
 6277TIP3    H143026   8.145   5.572   5.526  0.2709 -0.7673  1.9774
 6277TIP3    H243027   8.175   5.696   5.607 -0.0786  0.1362  0.7536
 6278TIP3   OH243028   2.352   8.863   5.897 -0.3158  0.2379  0.4554
 6278TIP3    H143029   2.382   8.783   5.854 -1.2522 -0.8925  1.7973
 6278TIP3    H243030   2.272   8.887   5.851  0.0177  0.4727 -0.0093
 6279TIP3   OH243031   7.394   3.757   5.960  0.7437 -0.2813 -0.0424
 6279TIP3    H143032   7.378   3.837   5.911  0.0867 -0.3759  0.0088
 6279TIP3    H243033   7.315   3.704   5.946  0.7073 -0.4703  0.8042
 6280TIP3   OH243034   1.839   2.220   6.245  0.7827 -0.1536 -0.4153
 6280TIP3    H143035   1.917   2.240   6.297  0.2971 -0.7639  0.5838
 6280TIP3    H243036   1.811   2.133   6.276 -0.1153 -0.0810 -0.9779
 6281TIP3   OH243037   1.689   3.305   4.921 -0.1518 -0.2602 -0.1604
 6281TIP3    H143038   1.717   3.306   5.012  2.2937 -3.0869 -0.7129
 6281TIP3    H243039   1.634   3.227   4.913 -0.2799 -0.0910 -1.1218
 6282TIP3   OH243040   4.475   2.047   5.551  0.4256  0.0021  0.6801
 6282TIP3    H143041   4.512   2.098   5.479 -0.0581 -0.6315 -0.0282
 6282TIP3    H243042   4.549   2.000   5.588  0.5477 -0.2943  0.0698
 6283TIP3   OH243043   8.247   6.379   5.741  0.3761 -0.0025  0.5421
 6283TIP3    H143044   8.204   6.345   5.663  0.8731 -1.1365  0.7370
 6283TIP3    H243045   8.284   6.301   5.784 -0.9137  0.4284  2.5579
 6284TIP3   OH243046   1.590   6.476   5.305  0.3541 -0.3050  0.2919
 6284TIP3    H143047   1.503   6.484   5.265  1.4099 -1.1901 -2.4165
 6284TIP3    H243048   1.628   6.564   5.297  1.0078 -0.7260 -2.0028
 6285TIP3   OH243049   0.108   4.658   6.036 -0.0334 -0.0828 -0.1020
 6285TIP3    H143050   0.047   4.725   6.065 -2.0201 -1.1514 -1.5103
 6285TIP3    H243051   0.166   4.703   5.975 -0.3277  0.6813  0.1696
 6286TIP3   OH243052   7.362   5.740   6.273  0.1225 -0.8411 -0.0612
 6286TIP3    H143053   7.271   5.770   6.270  0.2992 -0.1947  0.7017
 6286TIP3    H243054   7.357   5.648   6.298 -0.2972 -0.6304  0.6438
 6287TIP3   OH243055   7.461   1.023   5.217 -0.0852  0.2865  0.1552
 6287TIP3    H143056   7.476   0.971   5.296  1.6786  2.9410  1.7606
 6287TIP3    H243057   7.532   0.997   5.158 -0.7618 -0.9301 -0.1509
 6288TIP3   OH243058   8.035   7.550   5.468 -0.0337  0.2005  0.1418
 6288TIP3    H143059   8.049   7.475   5.525 -0.0711  0.4451  0.4772
 6288TIP3    H243060   7.982   7.516   5.395  0.0018 -0.1084  0.2601
 6289TIP3   OH243061   4.397   5.836   5.820 -0.7663 -0.1898  0.3259
 6289TIP3    H143062   4.461   5.861   5.754 -0.3424  0.6932  1.0535
 6289TIP3    H243063   4.422   5.885   5.898 -2.0226 -0.2261  0.7772
 6290TIP3   OH243064   1.368   0.589   6.430  0.1488 -0.3974  0.1696
 6290TIP3    H143065   1.274   0.598   6.412 -0.1204 -0.2213  1.5828
 6290TIP3    H243066   1.380   0.496   6.449 -0.0911 -0.1241  1.7683
 6291TIP3   OH243067   8.399   6.313   6.313 -0.5230 -0.6541  0.1855
 6291TIP3    H143068   8.336   6.242   6.298 -0.4263 -0.5653 -0.7347
 6291TIP3    H243069   8.345   6.392   6.315 -0.7394 -0.8179  2.1553
 6292TIP3   OH243070   2.177   0.518   4.985  0.3039 -0.5663  0.1017
 6292TIP3    H143071   2.096   0.489   5.026  0.4341 -1.3532 -0.1582
 6292TIP3    H243072   2.245   0.501   5.050  0.2495  0.2181  0.3700
 6293TIP3   OH243073   3.528   4.896   6.595  0.8462  0.2684  0.0685
 6293TIP3    H143074   3.532   4.940   6.511  0.2402 -0.2204 -0.2220
 6293TIP3    H243075   3.436   4.873   6.606  1.1543 -0.9778  0.1761
 6294TIP3   OH243076   5.955   5.689   5.900  0.9626 -0.5453  0.2606
 6294TIP3    H143077   5.918   5.725   5.820 -0.0422 -0.5809  0.6971
 6294TIP3    H243078   6.040   5.732   5.908  0.7777 -0.0241 -0.4594
 6295TIP3   OH243079   0.228   4.773   6.416  0.1686  0.6718  0.4307
 6295TIP3    H143080   0.165   4.794   6.347 -0.8405 -1.1714  0.7343
 6295TIP3    H243081   0.236   4.854   6.466 -1.0474  1.3006 -0.3363
 6296TIP3   OH243082   3.136   4.913   6.930 -0.1941  0.1338  0.4967
 6296TIP3    H143083   3.045   4.889   6.945 -0.3883  0.1182 -0.6290
 6296TIP3    H243084   3.132   5.002   6.894  0.1408 -0.3564 -0.7958
 6297TIP3   OH243085   4.733   6.331   5.905 -0.6318 -0.0919  0.4216
 6297TIP3    H143086   4.754   6.396   5.971 -0.0182  0.5516 -0.3789
 6297TIP3    H243087   4.642   6.346   5.883 -0.4641  0.5693  0.1694
 6298TIP3   OH243088   8.755   3.626   5.484 -0.2454 -0.3378 -0.0223
 6298TIP3    H143089   8.748   3.561   5.554 -0.7169  2.3730  2.6763
 6298TIP3    H243090   8.837   3.672   5.502 -0.1274  0.1123 -1.5959
 6299TIP3   OH243091   0.780   4.741   5.933 -0.9597 -0.1953  0.1276
 6299TIP3    H143092   0.708   4.697   5.888 -0.7888 -0.5193  0.1655
 6299TIP3    H243093   0.819   4.673   5.988 -1.7000  0.4166  1.4285
 6300TIP3   OH243094   4.919   1.368   6.016 -0.0556 -0.1418  0.3844
 6300TIP3    H143095   4.827   1.365   5.992  0.0231 -1.1242  0.1535
 6300TIP3    H243096   4.964   1.322   5.944  0.7673  1.4913 -0.1959
 6301TIP3   OH243097   4.837   3.841   6.398  0.0654  0.0378 -0.4262
 6301TIP3    H143098   4.895   3.781   6.446  0.7963 -0.4100 -1.8205
 6301TIP3    H243099   4.749   3.818   6.428  0.2506 -2.2580 -1.4377
 6302TIP3   OH243100   7.862   7.776   5.273 -0.1240  0.7911 -0.3376
 6302TIP3    H143101   7.771   7.786   5.246  0.6149  0.3658 -3.3465
 6302TIP3    H243102   7.878   7.682   5.273  0.6870  0.9100 -1.3388
 6303TIP3   OH243103   8.639   3.690   5.822  0.3617 -0.7502  0.2817
 6303TIP3    H143104   8.704   3.689   5.893  1.2783  0.1030 -0.5200
 6303TIP3    H243105   8.665   3.763   5.767 -2.6136  1.1475  1.1400
 6304TIP3   OH243106   7.699   7.972   5.004  0.7850  0.2462 -0.3884
 6304TIP3    H143107   7.759   7.904   5.035  1.4533  0.9927  0.0016
 6304TIP3    H243108   7.657   7.933   4.927  0.4828 -0.9394  0.3527
 6305TIP3   OH243109   7.130   4.936   5.071 -0.5360  0.6634 -0.1922
 6305TIP3    H143110   7.151   5.029   5.072 -0.5897  0.7314 -2.1059
 6305TIP3    H243111   7.041   4.933   5.035 -2.6950  0.1630  4.4930
 6306TIP3   OH243112   8.220   8.922   5.278  0.6163 -0.1145  0.3719
 6306TIP3    H143113   8.290   8.939   5.215 -0.1552  0.7019 -0.2861
 6306TIP3    H243114   8.167   8.853   5.238  0.2918  0.2047  0.2362
 6307TIP3   OH243115   2.739   7.432   6.584 -0.6377 -0.2977  0.1896
 6307TIP3    H143116   2.822   7.420   6.630 -0.6689 -1.5282 -0.0520
 6307TIP3    H243117   2.734   7.527   6.568  0.3545 -0.1161  0.8586
 6308TIP3   OH243118   5.978   0.631   6.083 -0.2143 -0.2635  0.3622
 6308TIP3    H143119   6.071   0.654   6.084 -0.5552  1.2021  1.2084
 6308TIP3    H243120   5.968   0.566   6.152 -0.0123  0.4950  1.1254
 6309TIP3   OH243121   3.785   9.051   5.628 -0.5211 -0.4422 -0.1107
 6309TIP3    H143122   3.868   9.009   5.604 -0.3741  0.6584 -1.6921
 6309TIP3    H243123   3.719   9.001   5.580 -0.5985 -0.3312 -0.1193
 6310TIP3   OH243124   6.679   9.056   6.682 -0.1709 -0.2444  0.2222
 6310TIP3    H143125   6.717   9.125   6.737  2.6741 -1.1067 -0.5036
 6310TIP3    H243126   6.585   9.077   6.679 -0.0044  1.4220  3.0514
 6311TIP3   OH243127   9.028   9.055   5.094  0.3336 -0.0677  0.3648
 6311TIP3    H143128   9.034   8.964   5.066  0.9569  0.4456 -1.2964
 6311TIP3    H243129   9.118   9.082   5.109  0.2378  0.5769 -0.1959
 6312TIP3   OH243130   5.833   8.296   6.442 -0.2014 -0.0636  0.5590
 6312TIP3    H143131   5.754   8.285   6.389 -0.4771  2.0543  0.4193
 6312TIP3    H243132   5.900   8.321   6.378 -0.1885  1.0954  0.9928
 6313TIP3   OH243133   0.808   8.829   6.458 -0.4757 -0.6756 -0.4108
 6313TIP3    H143134   0.823   8.875   6.376 -1.9889  0.4047 -0.1278
 6313TIP3    H243135   0.886   8.849   6.511  0.5864 -1.5110 -1.5823
 6314TIP3   OH243136   1.929   0.734   5.072  0.2461 -0.1836  0.0965
 6314TIP3    H143137   1.934   0.642   5.095 -1.7316 -0.2597  0.4053
 6314TIP3    H243138   1.986   0.778   5.136  2.7142 -1.2838 -1.1984
 6315TIP3   OH243139   8.937   7.537   5.929  0.0212  0.0013  0.4054
 6315TIP3    H143140   8.996   7.544   5.854 -1.0717 -0.1568 -0.5078
 6315TIP3    H243141   8.962   7.610   5.986 -1.3080  2.3213 -1.7446
 6316TIP3   OH243142   3.175   8.734   6.752 -0.4760 -0.2406  0.4053
 6316TIP3    H143143   3.117   8.725   6.827 -1.0443  3.3184  0.5417
 6316TIP3    H243144   3.261   8.709   6.786 -0.7223  1.2268  2.3109
 6317TIP3   OH243145   1.875   0.473   5.751 -0.5944  0.0597 -0.3799
 6317TIP3    H143146   1.852   0.525   5.673  1.4895  3.1157  0.8506
 6317TIP3    H243147   1.956   0.428   5.726  1.0524  2.3873  0.3873
 6318TIP3   OH243148   3.164   0.476   6.214 -0.0714  0.3342  0.1220
 6318TIP3    H143149   3.231   0.422   6.258  0.1064  0.3961 -0.0736
 6318TIP3    H243150   3.126   0.528   6.284  0.0167  0.2267  0.2513
 6319TIP3   OH243151   6.463   2.721   6.638 -0.1225 -0.0130  0.0566
 6319TIP3    H143152   6.450   2.805   6.682 -0.0865  0.0632 -0.0754
 6319TIP3    H243153   6.512   2.743   6.558 -1.8531  0.1369 -1.0319
 6320TIP3   OH243154   2.281   5.854   6.561  0.3933  0.0500 -0.4709
 6320TIP3    H143155   2.339   5.899   6.622  0.3144  0.2915 -0.5740
 6320TIP3    H243156   2.234   5.924   6.516 -0.4794 -0.1589  0.0960
 6321TIP3   OH243157   4.006   5.525   5.394  0.8861 -0.4583  0.2340
 6321TIP3    H143158   4.080   5.564   5.440  2.0193 -0.9081 -1.1166
 6321TIP3    H243159   4.036   5.437   5.370 -0.4793 -1.0319  0.5526
 6322TIP3   OH243160   5.611   7.665   5.776  0.0167  0.4351 -0.1593
 6322TIP3    H143161   5.620   7.571   5.792 -2.4750 -0.2311 -2.1240
 6322TIP3    H243162   5.549   7.695   5.843 -0.3842  0.3385 -0.4827
 6323TIP3   OH243163   2.493   8.162   6.462  0.2989  0.0578 -0.4051
 6323TIP3    H143164   2.544   8.145   6.541  0.6611  0.9435 -0.4396
 6323TIP3    H243165   2.453   8.247   6.478  1.2007  0.7301 -1.5935
 6324TIP3   OH243166   6.688   7.838   5.272  0.3086 -0.1410 -0.4267
 6324TIP3    H143167   6.732   7.838   5.357 -2.4696  2.0974  1.1899
 6324TIP3    H243168   6.715   7.920   5.231  0.8193 -0.7288 -1.3096
 6325TIP3   OH243169   2.658   3.127   5.534 -0.5988 -0.1027 -0.2157
 6325TIP3    H143170   2.652   3.202   5.474 -0.4952  0.2859  0.2504
 6325TIP3    H243171   2.679   3.053   5.478 -0.9275  0.1748 -0.7167
 6326TIP3   OH243172   5.223   8.862   5.632 -0.5321 -0.4703  0.6891
 6326TIP3    H143173   5.142   8.891   5.675 -1.1860  0.0353 -0.8210
 6326TIP3    H243174   5.285   8.933   5.648 -0.9057 -0.0834  0.4342
 6327TIP3   OH243175   0.456   1.055   6.826  0.0025  0.2291  0.0456
 6327TIP3    H143176   0.510   1.133   6.815  0.4333 -0.1504 -0.6743
 6327TIP3    H243177   0.512   0.983   6.796 -1.0533 -0.1191 -1.2032
 6328TIP3   OH243178   2.600   9.007   6.618  0.7216  0.7568 -0.0710
 6328TIP3    H143179   2.541   9.075   6.651  0.5926  1.0400 -0.8712
 6328TIP3    H243180   2.543   8.947   6.570  1.1283  1.2819 -1.2501
 6329TIP3   OH243181   0.074   7.104   4.650  0.1730 -0.1913  0.4412
 6329TIP3    H143182   0.044   7.015   4.664  0.9787 -0.5039  0.2390
 6329TIP3    H243183   0.007   7.159   4.690 -0.6785 -0.8600 -0.0510
 6330TIP3   OH243184   1.541   0.694   4.937  0.5223  0.0103 -0.8000
 6330TIP3    H143185   1.490   0.677   4.858  0.8247  2.7558 -1.6623
 6330TIP3    H243186   1.480   0.739   4.995  0.7580 -0.6150 -0.0423
 6331TIP3   OH243187   7.253   4.511   5.414  0.2895 -0.4195  0.3431
 6331TIP3    H143188   7.182   4.551   5.464 -0.1199 -0.4076 -0.2251
 6331TIP3    H243189   7.329   4.514   5.471  0.1971  0.9242  0.4128
 6332TIP3   OH243190   6.038   1.217   5.237 -0.9077 -0.1131  0.1102
 6332TIP3    H143191   5.988   1.297   5.219  1.7863  2.4875  2.8786
 6332TIP3    H243192   5.985   1.169   5.301 -1.1775  1.1966  0.9205
 6333TIP3   OH243193   6.133   5.370   6.238 -0.6985 -0.5090 -0.3681
 6333TIP3    H143194   6.174   5.367   6.325 -1.1666  1.6307 -0.0095
 6333TIP3    H243195   6.203   5.346   6.178  0.1422 -0.2363  0.4765
 6334TIP3   OH243196   1.481   7.536   6.473 -0.0245 -0.1231  0.2675
 6334TIP3    H143197   1.503   7.605   6.535  1.1572 -0.8423  0.6820
 6334TIP3    H243198   1.539   7.464   6.496 -1.5406 -1.4521  0.1583
 6335TIP3   OH243199   2.132   7.880   5.159  0.2543  0.5770  0.5234
 6335TIP3    H143200   2.162   7.905   5.246  2.3573  0.1359 -0.0151
 6335TIP3    H243201   2.182   7.935   5.099 -0.3998  0.1563 -0.4453
 6336TIP3   OH243202   8.529   6.438   5.587  0.2534 -0.0164 -0.1798
 6336TIP3    H143203   8.560   6.348   5.600  0.7489 -0.0201 -1.2684
 6336TIP3    H243204   8.552   6.458   5.496 -3.7796 -0.3611 -1.4971
 6337TIP3   OH243205   5.410   7.666   5.507  0.6061 -0.1891 -0.1420
 6337TIP3    H143206   5.486   7.610   5.492  1.3815  1.4456 -3.1329
 6337TIP3    H243207   5.403   7.672   5.602  2.2309 -2.9365  0.2521
 6338TIP3   OH243208   8.733   1.264   6.059  0.2823 -0.0057  0.1071
 6338TIP3    H143209   8.653   1.212   6.057  0.3903 -0.2097  0.8916
 6338TIP3    H243210   8.772   1.251   5.972 -1.3233  1.3651 -0.9038
 6339TIP3   OH243211   7.770   6.805   5.234  0.2924 -0.1212 -0.5342
 6339TIP3    H143212   7.777   6.834   5.325 -0.5843  0.8504 -0.7585
 6339TIP3    H243213   7.741   6.715   5.240 -1.4111  0.4319  0.1514
 6340TIP3   OH243214   5.452   6.339   6.386 -0.0199 -0.5910  0.3384
 6340TIP3    H143215   5.418   6.420   6.348  0.5741 -1.5591 -2.5564
 6340TIP3    H243216   5.378   6.279   6.383 -0.2022 -0.4521  1.6115
 6341TIP3   OH243217   5.970   8.913   6.304 -0.0267  0.2938  0.1854
 6341TIP3    H143218   5.893   8.944   6.257 -1.8319 -0.2015  2.6630
 6341TIP3    H243219   5.982   8.823   6.274 -1.0482  0.0425  0.4964
 6342TIP3   OH243220   0.406   7.217   5.372 -0.1104  0.0356 -0.1029
 6342TIP3    H143221   0.338   7.265   5.420  0.8160  1.0018  0.2945
 6342TIP3    H243222   0.486   7.232   5.423  0.2378 -1.9626  0.0404
 6343TIP3   OH243223   3.409   3.621   5.861 -0.0895 -0.4107  0.4632
 6343TIP3    H143224   3.314   3.621   5.859 -0.0911 -1.0854  0.1835
 6343TIP3    H243225   3.431   3.564   5.935  0.1042  1.4744  1.9442
 6344TIP3   OH243226   8.575   7.486   6.605 -0.0301  0.2524 -0.3585
 6344TIP3    H143227   8.628   7.561   6.578  1.1843 -0.8018 -0.9867
 6344TIP3    H243228   8.495   7.525   6.640  1.0672  1.8729  0.4367
 6345TIP3   OH243229   7.638   9.160   4.641 -0.1350 -0.1028 -0.0359
 6345TIP3    H143230   7.730   9.145   4.618  0.0623 -0.5466  1.0061
 6345TIP3    H243231   7.600   9.072   4.646 -1.0443  0.1204 -2.0624
 6346TIP3   OH243232   2.830   5.954   5.368  0.1758 -0.3449  0.7217
 6346TIP3    H143233   2.750   5.992   5.333 -0.1726 -2.4555 -0.9475
 6346TIP3    H243234   2.881   6.030   5.398 -2.1425  1.0840  1.2906
 6347TIP3   OH243235   6.779   1.731   5.908 -0.6567 -0.8090 -0.0907
 6347TIP3    H143236   6.742   1.684   5.833  0.2491 -2.8169  0.6334
 6347TIP3    H243237   6.827   1.804   5.870 -2.4494 -0.1600 -1.2520
 6348TIP3   OH243238   2.763   9.095   5.378 -0.1925  0.3218 -0.0673
 6348TIP3    H143239   2.701   9.073   5.447 -1.2309  0.8620 -0.8104
 6348TIP3    H243240   2.727   9.173   5.336  1.6957  1.5002  0.3551
 6349TIP3   OH243241   1.632   3.446   5.332 -0.2475 -0.0285  0.5834
 6349TIP3    H143242   1.694   3.410   5.268 -0.4392  0.9330 -0.1615
 6349TIP3    H243243   1.644   3.392   5.410  1.4444  0.0627  0.4216
 6350TIP3   OH243244   3.915   1.935   5.565  0.3642 -0.3756  0.5890
 6350TIP3    H143245   3.994   1.990   5.570  0.4383 -0.4853  0.6422
 6350TIP3    H243246   3.930   1.867   5.630  0.8601 -1.2045 -0.3452
 6351TIP3   OH243247   8.207   4.682   5.934 -0.1311 -0.4011 -0.3681
 6351TIP3    H143248   8.167   4.670   5.848  0.1905 -0.8022 -0.4701
 6351TIP3    H243249   8.301   4.678   5.917 -0.0429 -2.9008  0.2832
 6352TIP3   OH243250   7.996   3.382   6.845  0.1088 -0.0533 -0.3474
 6352TIP3    H143251   7.923   3.432   6.809  0.4753  1.1816  0.5583
 6352TIP3    H243252   8.061   3.448   6.869  0.5898 -0.9530  0.9377
 6353TIP3   OH243253   4.439   2.937   5.401  0.6279  0.2809  0.0683
 6353TIP3    H143254   4.527   2.943   5.437  1.6777  1.1555 -2.3770
 6353TIP3    H243255   4.433   2.846   5.369  1.6181  0.8490 -1.8713
 6354TIP3   OH243256   0.076   3.253   5.635  0.6590 -0.0853 -0.2945
 6354TIP3    H143257   0.140   3.302   5.584 -1.3756  2.7842 -0.3626
 6354TIP3    H243258   0.051   3.180   5.579  1.4857  0.6384 -1.6626
 6355TIP3   OH243259   4.353   8.376   5.223 -0.5438  0.3995  0.4160
 6355TIP3    H143260   4.339   8.457   5.174  0.5828 -1.6906 -3.7543
 6355TIP3    H243261   4.448   8.365   5.224 -0.7259 -1.6904 -0.7111
 6356TIP3   OH243262   2.205   3.067   6.082 -0.0021  0.1054 -0.2904
 6356TIP3    H143263   2.247   3.035   6.002 -0.3502 -0.1324 -0.3790
 6356TIP3    H243264   2.185   3.159   6.064  2.2571  0.8024  0.4594
 6357TIP3   OH243265   1.479   3.162   4.891 -0.2626  0.0951 -0.1830
 6357TIP3    H143266   1.451   3.121   4.809 -1.2173 -0.4197  0.3718
 6357TIP3    H243267   1.407   3.220   4.915  0.3612  0.8540 -0.1111
 6358TIP3   OH243268   2.391   3.380   6.010 -0.3766 -0.3222  0.3083
 6358TIP3    H143269   2.409   3.333   5.928  0.0287  0.1419  0.1218
 6358TIP3    H243270   2.477   3.410   6.038 -0.6388  0.3486  0.3988
 6359TIP3   OH243271   8.652   6.763   5.809 -0.5380  0.2070 -0.0174
 6359TIP3    H143272   8.697   6.843   5.835 -0.4942  0.4413 -0.7953
 6359TIP3    H243273   8.638   6.773   5.715 -1.5969 -0.1696  0.0887
 6360TIP3   OH243274   6.132   8.372   5.442  0.0612 -0.1389 -0.4694
 6360TIP3    H143275   6.164   8.433   5.509 -0.2610  1.0793 -1.3790
 6360TIP3    H243276   6.186   8.294   5.454  0.0732  0.0678  1.1418
 6361TIP3   OH243277   8.369   0.305   5.149  0.0815 -0.1866  0.0816
 6361TIP3    H143278   8.403   0.393   5.129  0.2143 -0.4571 -0.9293
 6361TIP3    H243279   8.438   0.265   5.201  0.0498  0.2892  0.4967
 6362TIP3   OH243280   4.099   6.127   5.466  0.4326 -0.2375 -0.2482
 6362TIP3    H143281   4.167   6.080   5.417  2.7482 -0.3849  2.7745
 6362TIP3    H243282   4.050   6.058   5.511  0.0825 -0.0238 -0.3077
 6363TIP3   OH243283   8.248   9.170   6.313  0.2534 -0.3994  0.1874
 6363TIP3    H143284   8.247   9.178   6.409 -2.2251  1.6078  0.0882
 6363TIP3    H243285   8.199   9.246   6.282  1.9834 -0.3430 -2.7823
 6364TIP3   OH243286   4.247   8.304   5.836 -0.3930 -0.3277 -0.6707
 6364TIP3    H143287   4.247   8.209   5.827 -1.8737 -0.4800  0.5704
 6364TIP3    H243288   4.156   8.330   5.827 -0.1368  0.8780 -0.0638
 6365TIP3   OH243289   2.016   1.251   6.662  0.0821 -0.2174 -0.0228
 6365TIP3    H143290   1.998   1.159   6.643 -0.1079 -0.1555 -0.1362
 6365TIP3    H243291   2.108   1.263   6.637 -0.3131  0.0003 -1.4204
 6366TIP3   OH243292   1.659   7.965   5.060 -0.0814 -0.1561 -0.0656
 6366TIP3    H143293   1.646   8.004   4.974 -0.4995  1.0498  0.5117
 6366TIP3    H243294   1.677   7.872   5.043  0.3593  0.1677 -1.4595
 6367TIP3   OH243295   2.173   8.259   4.905  0.0984  0.2979 -0.4797
 6367TIP3    H143296   2.260   8.220   4.893 -0.2113 -0.4790 -0.2460
 6367TIP3    H243297   2.117   8.186   4.931 -0.7342  0.7052 -1.0783
 6368TIP3   OH243298   0.192   3.018   6.428  0.2738 -0.5702  0.8003
 6368TIP3    H143299   0.283   3.046   6.419 -0.3590  1.5525  0.4962
 6368TIP3    H243300   0.178   2.959   6.355  0.8278  0.8116 -0.4783
 6369TIP3   OH243301   1.575   7.805   5.956  0.5809  0.3512  0.0200
 6369TIP3    H143302   1.588   7.891   5.915  0.2585  0.5464  0.3302
 6369TIP3    H243303   1.510   7.762   5.901 -1.1987  1.2921  1.3110
 6370TIP3   OH243304   4.501   7.413   6.566  0.1452  0.0118  0.1217
 6370TIP3    H143305   4.439   7.349   6.531 -0.3529  0.4520  0.1791
 6370TIP3    H243306   4.584   7.392   6.524 -0.1920 -0.1774 -0.4621
 6371TIP3   OH243307   5.482   2.474   5.161  0.1154  0.1426  0.2587
 6371TIP3    H143308   5.550   2.407   5.155  1.2324  1.3275 -1.4356
 6371TIP3    H243309   5.414   2.436   5.217  0.1427 -2.8742 -1.5637
 6372TIP3   OH243310   0.213   5.133   5.203 -0.6509  0.4411 -0.9070
 6372TIP3    H143311   0.190   5.044   5.173 -1.0427  0.2587 -0.0802
 6372TIP3    H243312   0.248   5.175   5.125  1.9872 -1.2558 -0.7801
 6373TIP3   OH243313   3.190   6.856   5.194  0.3026 -0.1514  0.0509
 6373TIP3    H143314   3.117   6.864   5.255 -0.7799  0.2350 -1.2339
 6373TIP3    H243315   3.238   6.938   5.201  1.1667 -0.7452  1.5320
 6374TIP3   OH243316   1.552   1.044   4.849 -0.1478 -1.0472 -0.5997
 6374TIP3    H143317   1.624   1.067   4.908 -0.0674  0.4681 -1.2248
 6374TIP3    H243318   1.594   1.020   4.767 -0.3152 -0.2706 -0.9314
 6375TIP3   OH243319   2.476   0.696   4.990 -0.5341 -0.3589  0.1627
 6375TIP3    H143320   2.455   0.614   4.945  1.1321 -0.0655 -1.2508
 6375TIP3    H243321   2.561   0.680   5.032  1.6606  1.5838 -3.0758
 6376TIP3   OH243322   3.693   0.565   6.219 -0.5814 -0.3051  0.2074
 6376TIP3    H143323   3.760   0.497   6.207  0.8105  0.6919  1.7639
 6376TIP3    H243324   3.649   0.542   6.300 -2.7027 -1.3354 -1.1573
 6377TIP3   OH243325   0.731   9.184   5.408 -0.1286  0.3315 -0.3890
 6377TIP3    H143326   0.740   9.279   5.405 -1.2313  0.4802  0.6150
 6377TIP3    H243327   0.800   9.155   5.467  0.5693  0.4408 -1.1351
 6378TIP3   OH243328   8.183   4.232   5.885 -0.1349 -0.2427  0.2327
 6378TIP3    H143329   8.184   4.194   5.973  0.2872 -1.6684 -0.3616
 6378TIP3    H243330   8.247   4.181   5.836 -1.6293 -0.6768 -1.3770
 6379TIP3   OH243331   7.757   4.553   6.532  0.3457 -0.1175  0.3242
 6379TIP3    H143332   7.730   4.569   6.442 -1.3364 -2.2260  0.3718
 6379TIP3    H243333   7.677   4.525   6.576  1.6477 -1.7954  1.7683
 6380TIP3   OH243334   7.240   8.384   5.120 -0.4584 -0.5897  0.2049
 6380TIP3    H143335   7.264   8.294   5.096  1.0375 -0.0538 -0.4467
 6380TIP3    H243336   7.174   8.408   5.055  0.5967 -0.5566 -0.9008
 6381TIP3   OH243337   5.816   2.954   6.432  0.0696  0.1705  0.1305
 6381TIP3    H143338   5.815   2.872   6.483  1.3142 -0.2314 -0.4617
 6381TIP3    H243339   5.772   2.931   6.350  1.8079 -0.3665 -0.6823
 6382TIP3   OH243340   7.296   0.713   5.080  0.1825  0.3058  0.0531
 6382TIP3    H143341   7.209   0.719   5.042  0.4095 -0.5845 -0.6312
 6382TIP3    H243342   7.284   0.734   5.173 -0.7780  0.0516 -0.0114
 6383TIP3   OH243343   0.810   8.567   6.517 -0.2772 -0.7032  0.0708
 6383TIP3    H143344   0.903   8.546   6.531 -0.1121  0.0754  0.1951
 6383TIP3    H243345   0.809   8.661   6.499 -1.1180 -0.5573  0.8056
 6384TIP3   OH243346   1.727   3.321   6.664 -0.2947 -0.3060  0.0412
 6384TIP3    H143347   1.761   3.237   6.633 -0.3767  0.2059 -1.4684
 6384TIP3    H243348   1.804   3.376   6.676 -0.4322  0.5308 -2.4251
 6385TIP3   OH243349   1.305   3.476   5.577  0.5292  0.0328 -0.2186
 6385TIP3    H143350   1.315   3.408   5.643  2.9290  0.1719 -0.3747
 6385TIP3    H243351   1.307   3.558   5.626 -2.0825  0.0872 -0.0617
 6386TIP3   OH243352   3.998   0.223   6.071 -0.3837 -0.0776  0.5719
 6386TIP3    H143353   4.065   0.234   6.003 -0.0292 -0.1357  0.9046
 6386TIP3    H243354   3.987   0.311   6.107  0.5586 -0.3121  1.4784
 6387TIP3   OH243355   4.367   5.608   6.022 -0.3090 -0.8586  0.2121
 6387TIP3    H143356   4.335   5.663   5.950  1.3976  1.0494  0.7990
 6387TIP3    H243357   4.290   5.591   6.076 -0.8780  1.2329  0.1470
 6388TIP3   OH243358   0.671   3.619   6.076  0.2795  0.6113 -0.4833
 6388TIP3    H143359   0.697   3.531   6.105 -0.3174  1.2288  2.2243
 6388TIP3    H243360   0.690   3.620   5.983  2.3311 -1.6641 -0.1942
 6389TIP3   OH243361   7.260   3.104   5.567 -0.4492 -0.5140  0.6463
 6389TIP3    H143362   7.267   3.025   5.514 -0.6189 -0.5376  0.6583
 6389TIP3    H243363   7.287   3.175   5.509 -0.1562 -0.5982  0.6807
 6390TIP3   OH243364   5.384   9.097   5.687  0.8440 -0.2737  0.5734
 6390TIP3    H143365   5.359   9.129   5.774 -2.2187  0.8547 -0.5803
 6390TIP3    H243366   5.388   9.176   5.633  1.5954 -1.0700 -0.5869
 6391TIP3   OH243367   2.338   8.590   5.685 -0.3255 -0.3970  0.0391
 6391TIP3    H143368   2.347   8.504   5.644  0.2556 -0.3258  0.0140
 6391TIP3    H243369   2.368   8.578   5.775  0.2141 -0.1110 -0.0993
 6392TIP3   OH243370   3.768   0.292   5.172 -0.8477 -0.0079 -0.3858
 6392TIP3    H143371   3.710   0.223   5.139 -0.0148 -1.0304  0.2314
 6392TIP3    H243372   3.835   0.246   5.222  0.7056  1.0991 -1.3309
 6393TIP3   OH243373   4.403   6.663   4.905 -0.7566 -0.6313 -0.2408
 6393TIP3    H143374   4.371   6.581   4.943  2.0590 -1.4325  0.6692
 6393TIP3    H243375   4.357   6.670   4.822 -3.3730 -1.4718  1.0384
 6394TIP3   OH243376   6.297   5.795   6.834 -0.0384  0.7603 -0.3919
 6394TIP3    H143377   6.287   5.721   6.895  0.0660  0.6737 -0.4788
 6394TIP3    H243378   6.269   5.871   6.885 -2.5364  0.3761 -1.0463
 6395TIP3   OH243379   3.228   1.818   5.581  0.2924  0.1620 -0.2249
 6395TIP3    H143380   3.144   1.838   5.623  1.0008  1.4277  0.6774
 6395TIP3    H243381   3.206   1.765   5.505 -1.3558  0.7902 -0.2153
 6396TIP3   OH243382   1.852   6.499  10.587  0.6342 -0.5165 -0.2545
 6396TIP3    H143383   1.924   6.513  10.525 -0.3155 -2.0013 -1.7902
 6396TIP3    H243384   1.813   6.416  10.560 -1.4837  0.0959  0.6916
 6397TIP3   OH243385   7.263   2.491   6.206  0.0803  0.2276  0.1444
 6397TIP3    H143386   7.310   2.555   6.153  1.0118  0.5339  1.2906
 6397TIP3    H243387   7.331   2.443   6.252 -0.6834 -0.0457  1.0277
 6398TIP3   OH243388   0.921   5.546   5.232  0.2490  0.3650  0.0570
 6398TIP3    H143389   0.923   5.642   5.238  1.3315  0.3035  4.0589
 6398TIP3    H243390   1.013   5.519   5.239 -0.0782 -0.9691 -0.4651
 6399TIP3   OH243391   5.018   7.564   5.965  0.5324 -0.4730 -0.3140
 6399TIP3    H143392   4.982   7.551   6.053  0.7929 -0.0953 -0.1462
 6399TIP3    H243393   5.110   7.586   5.981  0.2869  0.8435 -0.6066
 6400TIP3   OH243394   7.413   0.619   7.270  0.1931  0.4544 -0.2142
 6400TIP3    H143395   7.369   0.643   7.189  0.7160  1.7827 -0.1186
 6400TIP3    H243396   7.362   0.545   7.304 -0.9087  0.8379 -0.9908
 6401TIP3   OH243397   1.601   2.316   6.419  0.2565 -0.0652  0.1114
 6401TIP3    H143398   1.623   2.230   6.382 -0.1901 -0.2682  0.3104
 6401TIP3    H243399   1.524   2.300   6.473  1.1438  0.1527  1.4734
 6402TIP3   OH243400   6.610   6.776   5.798  0.3008  0.0952  0.0155
 6402TIP3    H143401   6.621   6.697   5.744 -0.3691 -1.5355  2.1110
 6402TIP3    H243402   6.694   6.785   5.844  0.3447  0.5692 -0.1524
 6403TIP3   OH243403   7.484   8.817   6.852  0.2667  0.6612  0.4762
 6403TIP3    H143404   7.523   8.799   6.767 -0.2441  0.3941  0.2944
 6403TIP3    H243405   7.481   8.731   6.895 -1.9169  0.2990 -0.2838
 6404TIP3   OH243406   4.209   2.866   5.719 -0.1397  0.3037  0.6144
 6404TIP3    H143407   4.286   2.811   5.732  0.3576  0.6053 -0.8861
 6404TIP3    H243408   4.217   2.934   5.786  0.0273 -0.5611  1.5073
 6405TIP3   OH243409   0.267   7.018   4.939 -0.0245  0.1809  0.0525
 6405TIP3    H143410   0.229   7.105   4.946  0.0456  0.1953  0.2741
 6405TIP3    H243411   0.342   7.028   4.881 -1.0389 -0.0739 -1.3585
 6406TIP3   OH243412   1.834   6.194   6.739  0.0027 -0.1540  0.1352
 6406TIP3    H143413   1.833   6.138   6.816  0.5680 -1.1517 -0.5638
 6406TIP3    H243414   1.826   6.134   6.665 -0.6216  0.7863 -0.5948
 6407TIP3   OH243415   3.617   2.625   5.701 -0.0399  0.1194  0.1113
 6407TIP3    H143416   3.527   2.593   5.701 -0.4305  1.1490  0.8138
 6407TIP3    H243417   3.668   2.555   5.742 -0.7355  0.0462  0.8767
 6408TIP3   OH243418   9.034   3.455   5.532  0.1030  0.5395  0.1227
 6408TIP3    H143419   9.012   3.428   5.621  0.1310 -0.4405 -0.1505
 6408TIP3    H243420   9.113   3.405   5.510  0.1234  0.8044 -0.4302
 6409TIP3   OH243421   6.388   2.385   5.004 -0.4641 -0.1176  0.1642
 6409TIP3    H143422   6.469   2.416   4.963 -1.4331  1.4247 -0.7061
 6409TIP3    H243423   6.376   2.442   5.080 -1.5640  0.8277 -0.6769
 6410TIP3   OH243424   1.148   7.202   6.201 -0.2042  0.0564 -0.3235
 6410TIP3    H143425   1.239   7.232   6.190 -0.2566  0.0388 -0.8158
 6410TIP3    H243426   1.154   7.131   6.266 -0.0879  1.1384  0.8799
 6411TIP3   OH243427   3.207   2.787   5.017  0.6041  0.6032 -0.2782
 6411TIP3    H143428   3.248   2.707   5.051  0.1783  0.1147 -0.8910
 6411TIP3    H243429   3.124   2.792   5.063  0.6515  0.7254 -0.2054
 6412TIP3   OH243430   9.087   8.647   6.746 -0.3679  0.5769 -0.2984
 6412TIP3    H143431   9.041   8.564   6.745  1.1433 -0.2967 -0.2758
 6412TIP3    H243432   9.108   8.665   6.654 -1.5584  1.4714 -0.4246
 6413TIP3   OH243433   0.316   0.508   5.830  0.7113  0.0426 -0.1359
 6413TIP3    H143434   0.408   0.485   5.820  0.2684 -0.8056 -3.2651
 6413TIP3    H243435   0.273   0.426   5.854  0.5153 -0.1166 -0.9749
 6414TIP3   OH243436   0.524   8.354   5.290 -0.2679 -0.1856 -0.6052
 6414TIP3    H143437   0.470   8.277   5.271 -1.7512  0.6840 -0.0961
 6414TIP3    H243438   0.614   8.322   5.287 -0.8593 -1.9972 -0.1408
 6415TIP3   OH243439   1.395   8.304   6.664  0.8606 -0.4253 -0.3010
 6415TIP3    H143440   1.485   8.300   6.696  0.8342 -1.6101 -0.3199
 6415TIP3    H243441   1.387   8.390   6.624  1.9816 -0.2980 -0.2696
 6416TIP3   OH243442   3.531   1.200   6.554 -0.2420 -0.4928 -0.1958
 6416TIP3    H143443   3.577   1.196   6.470  1.3606  1.1213  0.5217
 6416TIP3    H243444   3.546   1.114   6.593 -0.3640 -0.9990 -1.2302
 6417TIP3   OH243445   3.593   5.635   5.256  0.3351  0.1085 -0.8223
 6417TIP3    H143446   3.651   5.692   5.207  0.9027  1.1963  1.0370
 6417TIP3    H243447   3.516   5.689   5.275  1.8539  1.2521  3.0003
 6418TIP3   OH243448   7.585   3.995   6.703 -0.0980  0.1553  0.4787
 6418TIP3    H143449   7.513   4.054   6.681  0.7972  0.8374 -0.6817
 6418TIP3    H243450   7.584   3.993   6.799 -0.2451  1.9420  0.5582
 6419TIP3   OH243451   7.736   1.744   5.801 -0.7661  0.1277  0.2440
 6419TIP3    H143452   7.825   1.745   5.837 -0.6482 -1.0059  0.0267
 6419TIP3    H243453   7.728   1.826   5.754  1.0851 -0.7835 -1.8520
 6420TIP3   OH243454   3.767   0.916   6.500 -0.5841 -0.4851  0.6247
 6420TIP3    H143455   3.777   1.004   6.463  5.1750 -0.7885  0.4387
 6420TIP3    H243456   3.781   0.929   6.594  1.3411 -1.1349  0.4801
 6421TIP3   OH243457   3.758   4.232   5.865 -0.2871  0.0747  0.4690
 6421TIP3    H143458   3.745   4.217   5.958  1.9759 -0.8900  0.6873
 6421TIP3    H243459   3.677   4.202   5.824 -0.3490 -1.9210  1.9291
 6422TIP3   OH243460   7.236   6.505   6.821 -0.1134 -0.5639 -0.8326
 6422TIP3    H143461   7.201   6.435   6.766  0.1475 -1.7745  0.4754
 6422TIP3    H243462   7.227   6.472   6.910 -0.5863  1.3672 -0.1176
 6423TIP3   OH243463   1.192   3.715   5.795  0.3359 -0.3792  0.0313
 6423TIP3    H143464   1.277   3.746   5.766  1.8728 -2.8562  1.4906
 6423TIP3    H243465   1.192   3.732   5.889 -1.1525  0.2972 -0.0689
 6424TIP3   OH243466   5.017   4.643   5.640  0.1764  0.1692 -1.3566
 6424TIP3    H143467   4.961   4.645   5.562 -1.2197  0.2159 -0.3943
 6424TIP3    H243468   4.974   4.581   5.699  0.9142  0.5270 -0.4198
 6425TIP3   OH243469   1.653   2.717   5.666  0.4235 -0.2646  0.4735
 6425TIP3    H143470   1.623   2.747   5.752  0.2080  0.0538  0.2894
 6425TIP3    H243471   1.706   2.788   5.632 -2.0310  1.0093 -0.9890
 6426TIP3   OH243472   4.026   8.092   4.873  0.2150 -0.0326 -0.4170
 6426TIP3    H143473   3.965   8.139   4.816  0.6154 -0.2627 -1.0375
 6426TIP3    H243474   4.059   8.160   4.933 -2.3864 -0.2838  1.5245
 6427TIP3   OH243475   7.900   3.067   5.730  0.1966 -0.0964 -0.4499
 6427TIP3    H143476   7.848   3.078   5.651  1.0042 -0.3725 -1.0326
 6427TIP3    H243477   7.898   3.153   5.772  0.3939  0.2670 -1.1652
 6428TIP3   OH243478   7.998   7.798   5.628 -0.0692 -0.1667  0.3119
 6428TIP3    H143479   8.019   7.746   5.706  0.4270 -0.7118 -0.1671
 6428TIP3    H243480   8.025   7.742   5.555  1.8901  1.3489 -0.2151
 6429TIP3   OH243481   7.524   8.298   5.884 -0.3253 -0.3087  0.0106
 6429TIP3    H143482   7.571   8.335   5.809 -0.4902  2.5643  1.2171
 6429TIP3    H243483   7.593   8.261   5.939 -0.0999 -1.3721 -0.9419
 6430TIP3   OH243484   2.631   8.785   5.706  0.7783  0.4258 -0.4689
 6430TIP3    H143485   2.666   8.802   5.794 -1.2152  2.4861  0.0240
 6430TIP3    H243486   2.581   8.864   5.685  0.6962 -0.2706 -3.2341
 6431TIP3   OH243487   8.336   0.217   6.456  0.8462 -0.0396 -0.1052
 6431TIP3    H143488   8.255   0.224   6.508  1.4477 -0.5778  0.9425
 6431TIP3    H243489   8.346   0.303   6.416 -0.2293  0.0429 -0.2258
 6432TIP3   OH243490   7.189   0.128   6.800  0.4697 -0.5289 -0.5987
 6432TIP3    H143491   7.224   0.217   6.807  1.4954 -0.9454 -0.3642
 6432TIP3    H243492   7.167   0.118   6.708  0.7080 -0.1649 -0.6958
 6433TIP3   OH243493   2.094   3.805   5.576  0.2843  0.0795 -0.2016
 6433TIP3    H143494   2.052   3.722   5.602  0.7198 -1.5348 -3.9171
 6433TIP3    H243495   2.185   3.781   5.557 -0.0265  0.7995 -3.1956
 6434TIP3   OH243496   0.970   5.443   6.645 -0.0213  0.1781 -0.1524
 6434TIP3    H143497   0.950   5.451   6.738 -0.9556  2.1811 -0.4733
 6434TIP3    H243498   0.884   5.438   6.602  0.3351  1.1202 -1.0213
 6435TIP3   OH243499   3.071   3.780   6.154  0.2212  0.3015 -0.1652
 6435TIP3    H143500   3.031   3.765   6.240 -0.2689  0.3642 -0.3738
 6435TIP3    H243501   3.147   3.722   6.152 -1.3705 -1.8906 -0.7804
 6436TIP3   OH243502   1.230   2.791   6.344 -0.3417 -0.0719 -0.3262
 6436TIP3    H143503   1.159   2.810   6.282 -1.3854 -0.5126  0.6933
 6436TIP3    H243504   1.242   2.874   6.391 -0.4196 -0.0934 -0.2679
 6437TIP3   OH243505   2.746   2.274   5.425  0.2048  0.2517  0.0293
 6437TIP3    H143506   2.785   2.209   5.365 -0.1759 -1.2564  1.3440
 6437TIP3    H243507   2.819   2.301   5.480  0.1947  0.3368  0.0003
 6438TIP3   OH243508   1.423   6.927   5.744 -0.4015 -0.3504 -0.1621
 6438TIP3    H143509   1.480   6.991   5.788 -0.0545 -1.7127  1.4769
 6438TIP3    H243510   1.359   6.902   5.811 -1.1934 -0.9398 -1.1148
 6439TIP3   OH243511   1.379   7.586   4.512  0.0379 -0.4918 -0.4710
 6439TIP3    H143512   1.418   7.516   4.565  1.2151 -0.1561 -0.8791
 6439TIP3    H243513   1.341   7.540   4.437  1.2953 -0.6633 -1.0259
 6440TIP3   OH243514   2.477   5.352   6.708  0.0018  0.1431 -0.0071
 6440TIP3    H143515   2.478   5.295   6.631  0.6505  0.9528 -0.6211
 6440TIP3    H243516   2.565   5.390   6.710  0.6067 -1.1951  2.1547
 6441TIP3   OH243517   2.964   1.437   5.510 -0.5801  0.4161  0.3038
 6441TIP3    H143518   3.021   1.378   5.462  1.3406  1.3988  1.2786
 6441TIP3    H243519   2.924   1.383   5.578  0.8731  0.1317  0.9567
 6442TIP3   OH243520   2.848   1.160   6.237  0.1943  0.5282 -0.2532
 6442TIP3    H143521   2.906   1.092   6.201 -0.4819  0.0450 -0.4554
 6442TIP3    H243522   2.861   1.154   6.331 -0.8267 -0.8198 -0.1551
 6443TIP3   OH243523   4.401   4.362   5.514 -0.2254 -0.0092 -0.1695
 6443TIP3    H143524   4.349   4.330   5.440 -0.8185  1.2636 -0.3295
 6443TIP3    H243525   4.419   4.284   5.566 -1.3415 -0.6557 -0.7135
 6444TIP3   OH243526   2.053   2.512   5.718 -0.6299  0.0037  0.6382
 6444TIP3    H143527   2.079   2.477   5.633  0.6283 -0.7764  1.2987
 6444TIP3    H243528   2.102   2.458   5.781 -2.3963 -0.1902  1.9078
 6445TIP3   OH243529   8.479   6.316   6.013  0.4087 -0.2675 -0.3528
 6445TIP3    H143530   8.413   6.252   5.986 -0.1190 -0.4271  1.1953
 6445TIP3    H243531   8.508   6.357   5.932 -0.0369 -1.6969 -1.2759
 6446TIP3   OH243532   8.896   3.930   5.955 -0.2096 -0.8015 -0.2077
 6446TIP3    H143533   8.988   3.903   5.966  0.0583 -0.2053 -0.8728
 6446TIP3    H243534   8.901   4.024   5.938 -1.0321 -0.5688  0.7758
 6447TIP3   OH243535   0.372   5.850   5.205  0.4629  0.3047 -0.3256
 6447TIP3    H143536   0.318   5.860   5.284 -1.3014 -1.8627 -1.1748
 6447TIP3    H243537   0.362   5.934   5.159  0.4111  1.0880  1.0543
 6448TIP3   OH243538   8.645   2.624   5.494  0.3912  0.4328  0.5525
 6448TIP3    H143539   8.619   2.592   5.408  1.9027 -0.8549  0.5210
 6448TIP3    H243540   8.562   2.645   5.538 -0.9404 -4.0554  0.7307
 6449TIP3   OH243541   2.480   1.756   5.864 -0.6553  0.0097 -0.3708
 6449TIP3    H143542   2.470   1.666   5.834 -0.4902 -0.4928  1.0008
 6449TIP3    H243543   2.499   1.806   5.784 -0.7120 -1.1668 -1.1482
 6450TIP3   OH243544   8.656   6.432   5.340  0.3499  0.2114  0.2531
 6450TIP3    H143545   8.627   6.341   5.328  0.5643  0.2556 -0.6930
 6450TIP3    H243546   8.749   6.424   5.362  0.3331  0.1974  0.3187
 6451TIP3   OH243547   8.661   3.079   5.831 -0.2855  0.5824  0.1190
 6451TIP3    H143548   8.590   3.128   5.872 -0.8076  0.3653 -0.4907
 6451TIP3    H243549   8.641   3.083   5.737  0.5787  0.6171 -0.0666
 6452TIP3   OH243550   2.543   8.718   6.726 -0.2758 -0.3389  0.5266
 6452TIP3    H143551   2.460   8.762   6.746  1.1645  2.1549  1.4049
 6452TIP3    H243552   2.562   8.741   6.635  0.3638  0.6971  0.9137
 6453TIP3   OH243553   5.686   7.683   5.419 -0.0005 -0.1783  0.3471
 6453TIP3    H143554   5.710   7.675   5.511 -0.8735 -0.0415  0.5946
 6453TIP3    H243555   5.735   7.613   5.375 -0.7394 -1.2076  1.1451
 6454TIP3   OH243556   4.782   8.085   5.590 -0.1351  0.2098  0.0383
 6454TIP3    H143557   4.745   8.010   5.542 -0.0566  0.0251  0.2677
 6454TIP3    H243558   4.752   8.162   5.541  1.9561 -0.0379 -1.7664
 6455TIP3   OH243559   3.344   0.720   6.213 -0.3833  0.1171  0.2140
 6455TIP3    H143560   3.322   0.637   6.256 -0.6571  0.9583  1.7977
 6455TIP3    H243561   3.396   0.694   6.137  0.2410 -1.4770  1.1187
 6456TIP3   OH243562   8.518   2.230   5.997 -0.0986  0.4565 -0.4903
 6456TIP3    H143563   8.513   2.323   5.976 -1.1827  0.4012 -0.5138
 6456TIP3    H243564   8.484   2.222   6.086 -2.7895 -0.2328 -1.4909
 6457TIP3   OH243565   3.219   8.995   6.595 -0.2292 -0.2409  0.3006
 6457TIP3    H143566   3.277   8.940   6.543  0.4286 -0.7135  1.4795
 6457TIP3    H243567   3.236   8.968   6.686 -1.3819  0.4945  0.7567
 6458TIP3   OH243568   1.987   7.451   5.591  0.3758  0.0313 -0.2055
 6458TIP3    H143569   1.936   7.435   5.670  0.2580 -2.0329 -0.6605
 6458TIP3    H243570   2.045   7.524   5.615 -0.8278  0.5705  1.2075
 6459TIP3   OH243571   7.830   0.796   5.318 -0.0572 -0.1302  0.1703
 6459TIP3    H143572   7.818   0.802   5.224 -0.7875 -1.3516  0.1708
 6459TIP3    H243573   7.900   0.859   5.337  1.5147 -1.2649 -1.4598
 6460TIP3   OH243574   6.706   1.362   6.098 -0.0401 -0.1879 -0.2123
 6460TIP3    H143575   6.617   1.368   6.062  0.9900  0.9979 -2.8557
 6460TIP3    H243576   6.724   1.449   6.132  0.7294  0.1705 -1.4587
 6461TIP3   OH243577   8.733   7.780   5.148 -0.4910 -0.3307 -0.1756
 6461TIP3    H143578   8.723   7.793   5.242  0.1012 -2.1689  0.1690
 6461TIP3    H243579   8.818   7.818   5.127 -0.1033 -0.9648  0.2490
 6462TIP3   OH243580   5.886   4.214   6.367  0.1327  0.2908  0.2780
 6462TIP3    H143581   5.797   4.249   6.362  0.2934  0.6671 -0.0226
 6462TIP3    H243582   5.942   4.290   6.353  0.4971 -0.0059  0.1198
 6463TIP3   OH243583   8.989   7.705   6.133 -0.2159  0.2867 -0.4446
 6463TIP3    H143584   8.947   7.720   6.218 -1.0624 -2.9360 -0.1620
 6463TIP3    H243585   9.070   7.660   6.155  0.3348  0.8215 -1.3185
 6464TIP3   OH243586   6.898   7.916   5.862 -0.2654  0.2509  0.0710
 6464TIP3    H143587   6.948   7.995   5.881  1.8758 -1.0401  0.1823
 6464TIP3    H243588   6.875   7.923   5.770  0.8119  0.5409 -0.1835
 6465TIP3   OH243589   8.197   7.091   5.214 -0.0732  0.1333 -0.8925
 6465TIP3    H143590   8.265   7.028   5.191 -0.6556 -0.0420 -2.2743
 6465TIP3    H243591   8.125   7.037   5.248 -0.6465 -0.0047 -2.2575
 6466TIP3   OH243592   4.276   6.908   5.867  0.6181  0.6460 -0.4711
 6466TIP3    H143593   4.291   6.965   5.943  2.1214  0.4863 -0.6017
 6466TIP3    H243594   4.355   6.853   5.864 -1.0114 -1.8483 -0.0164
 6467TIP3   OH243595   1.066   2.846   6.122 -0.0440  0.2811  0.0280
 6467TIP3    H143596   1.025   2.865   6.037 -0.4686 -1.0245 -0.0816
 6467TIP3    H243597   0.998   2.865   6.186  0.7855  2.8908  0.2754
 6468TIP3   OH243598   3.309   0.671   5.010  0.1361  0.0228 -0.3475
 6468TIP3    H143599   3.250   0.745   4.992 -0.0571  0.3411  1.3409
 6468TIP3    H243600   3.389   0.712   5.042  0.2789 -0.4656 -0.0638
 6469TIP3   OH243601   3.939   6.023   6.417  0.5252 -0.4271 -0.1426
 6469TIP3    H143602   3.879   6.023   6.342 -0.8731 -1.2372  0.9063
 6469TIP3    H243603   4.012   6.078   6.390 -0.9964  1.1466 -1.2466
 6470TIP3   OH243604   7.807   1.913   5.245 -0.3075 -0.2268  0.0363
 6470TIP3    H143605   7.865   1.878   5.177 -0.5745 -0.5225 -0.0403
 6470TIP3    H243606   7.785   1.837   5.298  0.3643  0.1031  0.8047
 6471TIP3   OH243607   5.401   9.151   6.103 -0.1656  0.3583  0.1218
 6471TIP3    H143608   5.358   9.068   6.083 -1.6362  0.5490  2.1156
 6471TIP3    H243609   5.494   9.130   6.108 -0.1857 -0.5178 -2.3122
 6472TIP3   OH243610   3.822   8.093   6.066  0.0655  0.3909  0.2093
 6472TIP3    H143611   3.756   8.031   6.033 -0.1182  0.4241  0.5032
 6472TIP3    H243612   3.902   8.070   6.020 -0.4169  1.1202 -1.0608
 6473TIP3   OH243613   6.503   7.034   5.894 -0.2210 -0.0761 -0.2837
 6473TIP3    H143614   6.426   7.082   5.863 -1.3036 -1.6434 -0.1207
 6473TIP3    H243615   6.514   6.963   5.830  0.7002 -0.2570  0.0644
 6474TIP3   OH243616   2.282   2.943   5.821  0.0048 -0.0368  0.3327
 6474TIP3    H143617   2.198   2.943   5.776  0.2695  0.5525 -0.1823
 6474TIP3    H243618   2.315   2.853   5.812  0.3551  0.2096 -1.2535
 6475TIP3   OH243619   2.741   7.951   6.219 -0.0311 -0.6705 -0.2705
 6475TIP3    H143620   2.683   7.875   6.225  0.2950 -0.8605  0.6904
 6475TIP3    H243621   2.737   7.991   6.306  2.3360 -1.4888  0.2794
 6476TIP3   OH243622   2.104   5.533   6.520 -0.4165  0.0212 -0.2955
 6476TIP3    H143623   2.156   5.491   6.452 -0.0997  0.1643 -0.1445
 6476TIP3    H243624   2.014   5.510   6.499 -0.3261  0.1110 -0.7936
 6477TIP3   OH243625   8.758   1.584   6.927  0.1702  0.6190  0.1020
 6477TIP3    H143626   8.813   1.537   6.864 -1.3008 -0.3975 -0.4560
 6477TIP3    H243627   8.814   1.595   7.004  0.9248 -1.0104 -0.1855
 6478TIP3   OH243628   9.137   3.541   5.000  0.7527  0.0791  0.4553
 6478TIP3    H143629   9.225   3.516   4.973  0.5239 -1.6014  1.1047
 6478TIP3    H243630   9.132   3.517   5.093  0.1019  1.6015  0.8423
 6479TIP3   OH243631   9.043   8.975   6.737 -0.6060  0.1747 -0.5229
 6479TIP3    H143632   9.071   8.993   6.648 -0.4277  1.0876 -0.2983
 6479TIP3    H243633   9.123   8.949   6.783 -0.5253  0.6138 -0.4114
 6480TIP3   OH243634   2.515   6.886   6.195  0.2117  0.1684 -0.1861
 6480TIP3    H143635   2.491   6.926   6.112  3.1573  1.3927 -0.5825
 6480TIP3    H243636   2.580   6.945   6.232  0.5549 -1.4475  1.9669
 6481TIP3   OH243637   1.026   3.421   6.540  0.0204 -0.3040  0.0304
 6481TIP3    H143638   1.099   3.428   6.479 -0.4930 -2.5364 -0.9338
 6481TIP3    H243639   0.992   3.332   6.527 -2.3751  0.3838  0.9972
 6482TIP3   OH243640   1.419   7.625   4.839 -0.4434  0.1021  0.0978
 6482TIP3    H143641   1.324   7.617   4.834 -0.4353  0.1741 -0.2506
 6482TIP3    H243642   1.441   7.602   4.929 -0.9423  1.6550  0.6462
 6483TIP3   OH243643   4.833   7.600   5.759 -0.2492 -0.4140  0.1696
 6483TIP3    H143644   4.762   7.536   5.766 -1.2904  0.8379  2.5672
 6483TIP3    H243645   4.895   7.575   5.828  1.6454 -1.3847 -1.7831
 6484TIP3   OH243646   4.261   0.606   5.279  0.4399  0.0859 -0.0046
 6484TIP3    H143647   4.320   0.586   5.207  0.2415 -0.4402 -0.0260
 6484TIP3    H243648   4.295   0.687   5.317  0.2797  0.6196 -0.9784
 6485TIP3   OH243649   4.744   3.678   5.836 -0.5394  0.2461  0.2499
 6485TIP3    H143650   4.820   3.734   5.817 -0.3465 -0.1707 -0.2174
 6485TIP3    H243651   4.754   3.604   5.776 -0.4024 -0.6608  1.3791
 6486TIP3   OH243652   6.322   4.816   5.061 -0.3029  0.2416  0.2285
 6486TIP3    H143653   6.345   4.842   5.151 -0.1909 -1.2874  0.6759
 6486TIP3    H243654   6.406   4.811   5.016 -0.0395 -1.7646  0.8544
 6487TIP3   OH243655   7.909   0.083   5.575  0.2458  0.3680 -0.1618
 6487TIP3    H143656   7.859   0.158   5.606 -0.2245 -0.2270  0.5561
 6487TIP3    H243657   7.999   0.103   5.599  0.0897  0.5868  0.2494
 6488TIP3   OH243658   1.926   1.523   6.721  0.4364 -0.0332  0.0613
 6488TIP3    H143659   1.980   1.447   6.697  1.2098  0.0793  1.3353
 6488TIP3    H243660   1.856   1.486   6.775  0.6761  0.1146  0.4803
 6489TIP3   OH243661   4.742   6.504   5.586  0.4626  0.1261  0.3388
 6489TIP3    H143662   4.672   6.560   5.620  0.0653  0.2430 -0.6514
 6489TIP3    H243663   4.778   6.553   5.512 -0.6212 -1.3819 -1.2364
 6490TIP3   OH243664   0.479   9.197   5.278 -0.2120  0.4890  0.1094
 6490TIP3    H143665   0.422   9.263   5.319 -0.1488 -0.1187  1.2271
 6490TIP3    H243666   0.568   9.223   5.302 -0.0734  0.8539 -0.7609
 6491TIP3   OH243667   3.729   0.515   5.490 -0.2442 -0.2106 -0.0592
 6491TIP3    H143668   3.665   0.468   5.436  0.3645  0.4765 -1.4237
 6491TIP3    H243669   3.759   0.587   5.434  1.7319 -0.5320  0.5277
 6492TIP3   OH243670   7.693   6.910   6.999  0.1559  0.3336 -0.2283
 6492TIP3    H143671   7.703   6.948   7.087  0.1206 -0.4609  0.1283
 6492TIP3    H243672   7.607   6.868   7.001  0.8125 -1.0408 -0.1042
 6493TIP3   OH243673   4.185   6.384   6.835  0.8867 -0.4211  0.1203
 6493TIP3    H143674   4.219   6.338   6.759 -2.2577 -3.6497  0.3897
 6493TIP3    H243675   4.123   6.448   6.799  0.8178 -0.6033 -0.0826
 6494TIP3   OH243676   8.283   2.186   5.664  0.0145  0.3154  0.1990
 6494TIP3    H143677   8.334   2.262   5.690  0.3367  0.1738 -0.0053
 6494TIP3    H243678   8.263   2.141   5.745  1.6280 -0.5191  0.1746
 6495TIP3   OH243679   7.476   2.835   5.488  0.0648  0.0350 -0.5078
 6495TIP3    H143680   7.546   2.775   5.461  0.0846 -0.2789  0.2313
 6495TIP3    H243681   7.506   2.871   5.572 -1.0549 -0.7644  0.2491
 6496TIP3   OH243682   8.595   2.807   5.024  0.4545 -0.1140  0.2060
 6496TIP3    H143683   8.518   2.786   4.971 -0.0925 -0.4101  1.0969
 6496TIP3    H243684   8.638   2.723   5.037  1.1196  0.0974 -0.5618
 6497TIP3   OH243685   5.782   5.611   5.374  0.2406 -0.4938 -0.0760
 6497TIP3    H143686   5.785   5.518   5.352 -0.5965 -0.6130  0.2524
 6497TIP3    H243687   5.853   5.623   5.437  2.4505 -0.2204 -2.4615
 6498TIP3   OH243688   7.520   6.105   5.708 -0.1452  0.0514  0.1724
 6498TIP3    H143689   7.494   6.163   5.636  0.5080 -1.2698 -1.1578
 6498TIP3    H243690   7.457   6.033   5.705 -1.1588  0.7826  2.0249
 6499TIP3   OH243691   4.543   4.020   5.295  0.4669  0.2448  0.0858
 6499TIP3    H143692   4.512   3.960   5.363 -1.8228  0.2267 -0.8620
 6499TIP3    H243693   4.556   4.103   5.341  1.1662 -0.3111  0.9360
 6500TIP3   OH243694   8.190   2.272   5.351 -0.2695 -0.2104  0.6231
 6500TIP3    H143695   8.279   2.236   5.359 -0.1423 -0.1427 -0.3647
 6500TIP3    H243696   8.178   2.322   5.431  0.7592  0.1446  0.5780
 6501TIP3   OH243697   5.254   3.712   5.720  0.4818  0.7508 -0.0701
 6501TIP3    H143698   5.314   3.695   5.793  0.8834 -2.6877 -1.0225
 6501TIP3    H243699   5.311   3.743   5.649  0.9331 -0.7475 -0.4038
 6502TIP3   OH243700   4.382   3.501   6.030 -0.0238 -0.0848 -0.0192
 6502TIP3    H143701   4.380   3.561   6.105  2.1251 -2.3131  2.0170
 6502TIP3    H243702   4.294   3.464   6.027 -0.4339  0.7759  0.7918
 6503TIP3   OH243703   7.614   0.768   6.856  0.2671 -0.1726  0.6260
 6503TIP3    H143704   7.525   0.786   6.826  0.7930  0.5176 -0.5784
 6503TIP3    H243705   7.634   0.839   6.916  0.5057  0.4644 -0.1964
 6504TIP3   OH243706   3.557   7.684   6.278  0.1439 -0.2573  0.7441
 6504TIP3    H143707   3.597   7.603   6.311  1.4048  0.3715  0.8029
 6504TIP3    H243708   3.490   7.654   6.218 -0.5893 -1.3898  2.0549
 6505TIP3   OH243709   1.107   4.099   5.821 -0.4098  0.3835 -0.1000
 6505TIP3    H143710   1.113   4.058   5.735 -2.0729 -0.2403  0.0340
 6505TIP3    H243711   1.130   4.190   5.806  0.5940  0.0026 -0.9505
 6506TIP3   OH243712   8.608   3.084   5.061 -0.5747  0.5024  0.0931
 6506TIP3    H143713   8.599   2.989   5.049 -0.3201  0.1871  2.1101
 6506TIP3    H243714   8.691   3.105   5.017 -0.1670 -0.3842  0.4072
 6507TIP3   OH243715   3.124   1.491   4.776 -0.2695  0.1571 -0.8629
 6507TIP3    H143716   3.090   1.483   4.687 -0.6807  0.3366 -0.7200
 6507TIP3    H243717   3.195   1.426   4.780  0.6823  1.0962 -1.7596
 6508TIP3   OH243718   6.406   0.090   5.535  0.1199  0.0605  1.0679
 6508TIP3    H143719   6.353   0.025   5.582 -0.7641  1.3783  1.9656
 6508TIP3    H243720   6.496   0.073   5.562  0.0808 -1.5871  0.2862
 6509TIP3   OH243721   5.997   2.039   6.345  0.2285  0.6379 -0.1981
 6509TIP3    H143722   6.032   2.127   6.357  2.2989  0.0581 -1.3368
 6509TIP3    H243723   6.020   2.016   6.254 -0.0764 -1.1398  0.1250
 6510TIP3   OH243724   7.982   0.192   6.471 -0.4466  0.3460 -0.0779
 6510TIP3    H143725   7.919   0.146   6.527 -0.6596 -0.0812 -0.6549
 6510TIP3    H243726   8.041   0.236   6.532 -0.9254  0.2298  0.4753
 6511TIP3   OH243727   3.875   3.991   5.411  0.2325 -0.2802 -0.2925
 6511TIP3    H143728   3.898   3.898   5.422  2.6227  0.1983 -0.6480
 6511TIP3    H243729   3.937   4.037   5.467 -0.1832  1.1724 -0.9792
 6512TIP3   OH243730   1.204   5.001   5.125 -0.0049 -1.1742  1.2598
 6512TIP3    H143731   1.270   4.953   5.175  2.6686  0.8115 -0.0689
 6512TIP3    H243732   1.189   4.948   5.047  2.8287 -0.1304 -0.1367
 6513TIP3   OH243733   3.601   7.212   5.505 -0.1894 -0.3429 -0.6844
 6513TIP3    H143734   3.690   7.246   5.511 -0.7305  0.8825  1.5580
 6513TIP3    H243735   3.554   7.276   5.452 -0.1164 -0.0806 -0.4344
 6514TIP3   OH243736   5.673   1.448   6.321 -0.0075  0.0351 -0.8791
 6514TIP3    H143737   5.766   1.449   6.343 -0.2785 -0.9861  0.4093
 6514TIP3    H243738   5.655   1.357   6.299 -1.2806 -0.3884  1.6260
 6515TIP3   OH243739   5.123   3.446   5.217  0.2432 -0.0716  0.5008
 6515TIP3    H143740   5.132   3.464   5.310  0.0283 -1.4120  0.8080
 6515TIP3    H243741   5.143   3.353   5.209 -0.8169 -0.2334 -0.6214
 6516TIP3   OH243742   0.624   0.463   5.473  0.6885 -0.0302 -0.3374
 6516TIP3    H143743   0.559   0.472   5.402  0.1270  1.9329  0.3637
 6516TIP3    H243744   0.702   0.429   5.429  0.2480  0.8133 -1.8535
 6517TIP3   OH243745   3.495   3.498   6.883 -0.2509  0.5411  0.0195
 6517TIP3    H143746   3.477   3.476   6.974 -0.1925 -0.3866 -0.1838
 6517TIP3    H243747   3.581   3.459   6.865 -1.0493 -0.8932 -0.9394
 6518TIP3   OH243748   4.307   2.162   6.759  0.4387  0.4115  0.0822
 6518TIP3    H143749   4.353   2.181   6.841 -0.4818  0.7154  0.5422
 6518TIP3    H243750   4.312   2.244   6.710  0.9083  0.2577 -0.1376
 6519TIP3   OH243751   2.148   4.408   5.151 -0.1920 -0.1521  0.1013
 6519TIP3    H143752   2.135   4.498   5.179 -3.0127  0.1808 -1.8244
 6519TIP3    H243753   2.085   4.357   5.202 -0.4779 -0.6066 -0.6831
 6520TIP3   OH243754   5.872   1.499   6.598  0.5076 -0.0664  0.3539
 6520TIP3    H143755   5.856   1.587   6.632  1.3550  0.1749  0.1670
 6520TIP3    H243756   5.953   1.508   6.548 -0.1813 -0.6304 -0.8962
 6521TIP3   OH243757   2.799   2.022   5.860 -0.0693 -0.2406  0.6188
 6521TIP3    H143758   2.752   1.972   5.928 -1.1859 -0.2291 -0.1184
 6521TIP3    H243759   2.732   2.077   5.820  0.8047  0.5776  0.2387
 6522TIP3   OH243760   7.554   0.834   6.338  0.3895  0.1438 -0.2803
 6522TIP3    H143761   7.571   0.850   6.431  0.1474 -0.2770 -0.1605
 6522TIP3    H243762   7.462   0.857   6.326 -0.3651 -2.2980  0.1896
 6523TIP3   OH243763   0.184   2.903   6.019  0.0710  0.2749  0.5953
 6523TIP3    H143764   0.101   2.951   6.026  0.3388  0.6730  1.0387
 6523TIP3    H243765   0.200   2.898   5.924  0.4168  1.7143  0.5588
 6524TIP3   OH243766   4.152   2.340   6.275  0.0585 -0.3533 -0.5803
 6524TIP3    H143767   4.221   2.288   6.316  0.8903  0.1621 -1.3027
 6524TIP3    H243768   4.198   2.409   6.228 -0.9452 -0.0883 -1.2045
 6525TIP3   OH243769   2.343   1.011   5.476 -0.7896 -0.6918  0.1442
 6525TIP3    H143770   2.352   1.082   5.539  3.8311 -0.0902 -0.8528
 6525TIP3    H243771   2.347   0.931   5.529  0.7656 -0.1737  0.8644
 6526TIP3   OH243772   6.416   1.896   6.749 -0.7207  0.1368 -0.4063
 6526TIP3    H143773   6.488   1.856   6.700 -1.0012 -0.4491 -0.3388
 6526TIP3    H243774   6.436   1.990   6.747  0.3515 -0.0707  0.1200
 6527TIP3   OH243775   5.781   1.903   5.240 -0.4009  0.0205 -0.6176
 6527TIP3    H143776   5.747   1.833   5.297  0.6411  0.8456  1.1088
 6527TIP3    H243777   5.703   1.946   5.206 -1.0815 -0.4307  0.3104
 6528TIP3   OH243778   2.224   7.286   6.143 -0.0269  0.1691  0.0390
 6528TIP3    H143779   2.196   7.351   6.207  1.3375  0.4392  0.3944
 6528TIP3    H243780   2.318   7.301   6.133  0.2916 -1.6119 -0.0151
 6529TIP3   OH243781   7.567   4.666   5.346  0.0950  0.7037  0.2424
 6529TIP3    H143782   7.566   4.586   5.294 -1.2979  1.2536 -0.6496
 6529TIP3    H243783   7.583   4.637   5.436 -1.7371 -0.7532  0.1583
 6530TIP3   OH243784   8.724   8.084   5.643  0.5477  0.1711 -0.2613
 6530TIP3    H143785   8.673   8.164   5.655  1.3183  0.4421  1.4112
 6530TIP3    H243786   8.807   8.101   5.688  0.7265 -1.5713  0.1412
 6531TIP3   OH243787   0.435   7.877   6.297  0.6062  0.2711  0.4829
 6531TIP3    H143788   0.499   7.849   6.231  0.7031  1.5333  0.0166
 6531TIP3    H243789   0.388   7.797   6.319 -1.6983  0.2014 -3.5613
 6532TIP3   OH243790   0.492   5.794   6.159  0.7081  0.3130 -0.3535
 6532TIP3    H143791   0.493   5.812   6.253 -0.3606  0.6443 -0.4002
 6532TIP3    H243792   0.576   5.826   6.128  2.2063 -2.0741  0.8838
 6533TIP3   OH243793   7.957   6.974   5.155  0.2831  0.2158 -0.1461
 6533TIP3    H143794   7.891   6.906   5.142  0.4435  0.0580 -0.1411
 6533TIP3    H243795   7.993   6.990   5.067  1.3351 -0.8185  0.0752
 6534TIP3   OH243796   6.060   3.560   5.341  0.5471  0.5712  0.2051
 6534TIP3    H143797   6.071   3.650   5.370  1.0297  0.3929  0.5812
 6534TIP3    H243798   6.134   3.544   5.282  0.8307  0.2146  0.6565
 6535TIP3   OH243799   3.130   3.606   5.859 -0.0212  0.7253  0.0050
 6535TIP3    H143800   3.050   3.632   5.905  0.9490  0.9456  1.6303
 6535TIP3    H243801   3.103   3.529   5.808 -1.0090  0.0465  1.4666
 6536TIP3   OH243802   1.288   8.824   6.588 -0.0013  0.4539  1.1293
 6536TIP3    H143803   1.270   8.897   6.647 -0.9340  0.8903  0.3309
 6536TIP3    H243804   1.267   8.858   6.501  1.3931 -0.1583  0.5200
 6537TIP3   OH243805   4.742   6.045   6.427 -0.4260 -0.1715 -0.1019
 6537TIP3    H143806   4.789   6.114   6.381 -0.3890 -0.7131 -0.8853
 6537TIP3    H243807   4.807   6.007   6.486 -0.2988  0.0849 -0.0743
 6538TIP3   OH243808   3.550   3.179   6.713 -0.2686 -0.1245 -0.5596
 6538TIP3    H143809   3.541   3.144   6.625  1.2589  1.8101 -1.5517
 6538TIP3    H243810   3.481   3.245   6.721 -0.2084 -0.0772 -0.4143
 6539TIP3   OH243811   4.364   8.648   6.246 -0.0516 -0.2210 -0.2095
 6539TIP3    H143812   4.380   8.636   6.339 -0.2330 -0.0660 -0.1574
 6539TIP3    H243813   4.304   8.577   6.222 -1.4291  0.7589  0.1799
 6540TIP3   OH243814   8.903   1.383   6.240  0.2152  0.0888 -0.2513
 6540TIP3    H143815   8.875   1.350   6.325 -1.7695  0.2947 -0.7823
 6540TIP3    H243816   8.836   1.352   6.179  0.9632  0.9475 -1.5408
 6541TIP3   OH243817   1.931   5.641   5.839  0.2878  0.1826 -0.1394
 6541TIP3    H143818   2.012   5.593   5.855  0.3436 -0.0136 -0.9708
 6541TIP3    H243819   1.868   5.604   5.901  0.8537  0.4118  0.5872
 6542TIP3   OH243820   7.192   5.696   5.446 -0.1163 -0.0599 -0.5737
 6542TIP3    H143821   7.162   5.709   5.536 -0.0293 -0.1411 -0.5324
 6542TIP3    H243822   7.288   5.695   5.454 -0.1009  0.2446 -0.7096
 6543TIP3   OH243823   2.768   8.880   6.419 -1.1066  0.0481  0.2798
 6543TIP3    H143824   2.718   8.910   6.495 -0.2594  0.9310  0.5103
 6543TIP3    H243825   2.854   8.859   6.454 -0.8948 -0.1364 -0.3365
 6544TIP3   OH243826   0.157   2.610   5.617  0.2670 -0.1149 -0.4382
 6544TIP3    H143827   0.157   2.548   5.544  2.4208  1.4342 -1.8567
 6544TIP3    H243828   0.241   2.596   5.660  0.0767  0.7089  0.2141
 6545TIP3   OH243829   7.804   0.303   4.877  0.0012 -0.1864 -0.5993
 6545TIP3    H143830   7.896   0.308   4.905 -0.4730 -0.6481  1.0810
 6545TIP3    H243831   7.802   0.357   4.797  1.5814  0.3934 -0.2976
 6546TIP3   OH243832   7.101   7.199   5.664  1.1097  0.0690 -0.5308
 6546TIP3    H143833   7.167   7.259   5.628  0.5607  0.8327 -0.2824
 6546TIP3    H243834   7.031   7.256   5.696  0.8030 -0.6798  0.1738
 6547TIP3   OH243835   5.930   8.457   5.295 -0.2490 -0.0769 -0.4589
 6547TIP3    H143836   5.852   8.452   5.351 -0.4813 -0.5292 -0.8149
 6547TIP3    H243837   5.996   8.407   5.343  0.0095  0.8053  0.1293
 6548TIP3   OH243838   4.200   7.851   5.267 -0.5133  0.0899 -0.4473
 6548TIP3    H143839   4.203   7.855   5.171 -3.4934 -2.0259 -0.7573
 6548TIP3    H243840   4.150   7.928   5.293  0.3482  0.6981 -0.5256
 6549TIP3   OH243841   3.578   0.956   5.647  0.4031 -0.3226 -0.0976
 6549TIP3    H143842   3.602   0.867   5.674 -1.0682 -0.8874 -0.5460
 6549TIP3    H243843   3.507   0.980   5.706  1.5961  1.0743  0.8352
 6550TIP3   OH243844   3.382   6.937   6.388  0.2982 -0.1276 -0.1060
 6550TIP3    H143845   3.402   6.977   6.472 -2.9433  2.6268 -0.4144
 6550TIP3    H243846   3.415   7.000   6.323 -0.9277 -0.1260 -0.7566
 6551TIP3   OH243847   8.124   0.296   6.670  0.4733  0.6957 -0.1449
 6551TIP3    H143848   8.195   0.329   6.725  1.2489 -1.3010  0.1249
 6551TIP3    H243849   8.049   0.291   6.730  0.9507 -0.1508  0.4020
 6552TIP3   OH243850   7.088   8.164   5.724 -0.4322 -0.4455  0.5620
 6552TIP3    H143851   7.112   8.125   5.639 -0.0828 -1.3396  1.0595
 6552TIP3    H243852   6.994   8.180   5.717 -0.1478  1.0224 -0.5924
 6553TIP3   OH243853   8.421   0.454   6.310  0.0098  0.1873  0.3227
 6553TIP3    H143854   8.513   0.438   6.333  0.5092  2.5000  0.1931
 6553TIP3    H243855   8.385   0.499   6.387 -1.0585 -0.7870  0.4051
 6554TIP3   OH243856   4.319   6.863   5.070 -0.5447 -0.5173 -0.3029
 6554TIP3    H143857   4.410   6.883   5.092 -0.9520  1.0937  0.0130
 6554TIP3    H243858   4.325   6.785   5.015  1.0304 -0.3809 -0.3834
 6555TIP3   OH243859   6.412   0.244   6.863  0.3733  0.4447 -0.0691
 6555TIP3    H143860   6.381   0.329   6.895 -0.5675 -0.0017  0.2537
 6555TIP3    H243861   6.333   0.190   6.861  1.3919 -1.2926  2.4817
 6556TIP3   OH243862   4.001   1.640   5.236  0.2009 -0.7522 -0.3011
 6556TIP3    H143863   4.042   1.718   5.273 -1.0823 -0.9478  1.7142
 6556TIP3    H243864   4.072   1.576   5.228  0.5827 -0.6961  1.9503
 6557TIP3   OH243865   7.012   6.702   5.080  0.0456 -0.3458  0.1608
 6557TIP3    H143866   7.071   6.778   5.073 -0.4651  0.0527  0.1391
 6557TIP3    H243867   6.986   6.683   4.990 -3.2609  2.2054  0.3707
 6558TIP3   OH243868   6.779   6.143   5.335 -0.1626 -0.1432 -0.2170
 6558TIP3    H143869   6.864   6.137   5.292 -0.4029  1.2331 -0.9326
 6558TIP3    H243870   6.721   6.086   5.284  0.4918 -1.7195  0.7522
 6559TIP3   OH243871   3.368   7.394   5.041  0.2170  0.4303  0.1580
 6559TIP3    H143872   3.444   7.368   4.990 -0.2552  0.2386 -0.4626
 6559TIP3    H243873   3.307   7.321   5.032 -0.2357  0.7934  0.2380
 6560TIP3   OH243874   7.080   0.512   5.761  0.0985 -0.2310  0.3429
 6560TIP3    H143875   7.010   0.512   5.696 -0.2673  1.1371  0.7128
 6560TIP3    H243876   7.157   0.542   5.713  1.2306 -4.2586 -0.7765
 6561TIP3   OH243877   4.704   2.484   5.339 -0.4940  0.1566  0.0652
 6561TIP3    H143878   4.738   2.567   5.305  0.0652 -0.3475 -0.6406
 6561TIP3    H243879   4.782   2.437   5.368 -0.8726  0.1407  1.0778
 6562TIP3   OH243880   0.019   1.121   5.912 -0.2850  0.3101  0.1502
 6562TIP3    H143881   0.062   1.181   5.974  1.7981 -1.3811  0.4859
 6562TIP3    H243882   0.039   1.157   5.826 -0.9513  1.2635  0.3808
 6563TIP3   OH243883   2.255   2.917   5.018  0.3863 -0.0543  0.2545
 6563TIP3    H143884   2.175   2.887   5.061  0.6457 -2.5203 -0.8730
 6563TIP3    H243885   2.275   3.000   5.061 -3.1891  1.0842  0.0333
 6564TIP3   OH243886   8.374   1.718   5.390  0.5085  0.0830  0.0665
 6564TIP3    H143887   8.334   1.735   5.475 -1.5487 -1.7964 -0.4235
 6564TIP3    H243888   8.422   1.798   5.369  0.3527  0.9182  2.5635
 6565TIP3   OH243889   0.677   8.864   4.866 -0.3386  0.1135 -0.2710
 6565TIP3    H143890   0.594   8.817   4.879 -0.7781 -0.5821 -4.1468
 6565TIP3    H243891   0.655   8.956   4.879 -0.5158 -0.2892  3.1572
 6566TIP3   OH243892   2.173   2.242   5.231  0.0493  0.1125  0.2465
 6566TIP3    H143893   2.209   2.226   5.144  0.0312 -0.1828  0.2904
 6566TIP3    H243894   2.157   2.336   5.234 -4.4891 -0.3024 -1.8900
 6567TIP3   OH243895   9.077   2.620   6.183 -0.5267  0.0204 -0.1691
 6567TIP3    H143896   9.146   2.628   6.117 -0.6678  1.0870 -0.1952
 6567TIP3    H243897   8.995   2.625   6.133 -0.6733 -2.3832 -0.2829
 6568TIP3   OH243898   6.334   7.207   6.052  0.4074 -0.2890  0.5473
 6568TIP3    H143899   6.252   7.236   6.091 -0.2245 -2.2987  0.8330
 6568TIP3    H243900   6.345   7.263   5.975 -2.1224 -0.9940 -0.4414
 6569TIP3   OH243901   8.316   0.761   4.914  0.2269  0.3286 -0.2354
 6569TIP3    H143902   8.231   0.771   4.871 -0.2057  1.9895  0.9121
 6569TIP3    H243903   8.301   0.694   4.981 -0.1009  0.3629 -0.2726
 6570TIP3   OH243904   3.944   5.039   6.290  0.1105 -0.1772 -0.4233
 6570TIP3    H143905   3.908   5.005   6.372  1.8995  1.0827  0.9727
 6570TIP3    H243906   3.923   5.133   6.291  2.4262  0.4060 -0.0233
 6571TIP3   OH243907   3.465   8.806   5.151  0.1480 -0.0173  0.0673
 6571TIP3    H143908   3.396   8.867   5.177 -0.0164 -0.6589  1.1947
 6571TIP3    H243909   3.541   8.862   5.134 -0.6660  0.7188 -1.3875
 6572TIP3   OH243910   1.948   1.403   5.644  0.0855  0.6516 -0.1344
 6572TIP3    H143911   1.883   1.333   5.650  1.9014 -1.1769 -0.5485
 6572TIP3    H243912   1.961   1.432   5.734  1.7633 -2.0331  0.6047
 6573TIP3   OH243913   0.778   6.374   5.692 -0.1706 -0.0442  0.1380
 6573TIP3    H143914   0.769   6.315   5.767 -0.9893 -0.2608 -0.1208
 6573TIP3    H243915   0.823   6.451   5.727 -3.4251  1.3540  1.7418
 6574TIP3   OH243916   3.731   3.951   5.818 -0.1941 -1.0220 -0.2071
 6574TIP3    H143917   3.812   3.908   5.845 -1.3898 -2.9179  0.5890
 6574TIP3    H243918   3.693   3.893   5.752 -0.1157  0.7009 -1.8652
 6575TIP3   OH243919   7.427   8.840   4.922 -0.5000  0.4862 -0.4318
 6575TIP3    H143920   7.438   8.758   4.971  0.0333  1.0558  0.4206
 6575TIP3    H243921   7.342   8.830   4.878 -1.2533  0.1573  1.0230
 6576TIP3   OH243922   7.033   2.363   6.244 -0.4292  0.6089  0.1692
 6576TIP3    H143923   7.120   2.400   6.231 -0.5967  0.8232 -0.3703
 6576TIP3    H243924   7.047   2.287   6.301  0.3035 -0.1756 -1.0236
 6577TIP3   OH243925   2.772   9.191   4.996 -0.6049  0.5088 -0.0965
 6577TIP3    H143926   2.791   9.136   4.920 -0.1992 -0.0486  0.4004
 6577TIP3    H243927   2.844   9.173   5.056 -1.2991  0.4013  0.7113
 6578TIP3   OH243928   0.348   9.001   5.983 -0.4820 -0.1883 -0.2477
 6578TIP3    H143929   0.269   9.053   5.998 -0.3195  0.3595 -1.1669
 6578TIP3    H243930   0.338   8.924   6.039 -0.8352  0.7239  0.9622
 6579TIP3   OH243931   8.207   8.876   6.390 -0.1463  1.0177 -0.1774
 6579TIP3    H143932   8.271   8.944   6.370 -0.6522  0.8181 -2.8057
 6579TIP3    H243933   8.122   8.918   6.377 -0.4656 -0.2105 -2.5791
 6580TIP3   OH243934   5.148   1.938   5.764 -0.4437  0.1742 -0.4891
 6580TIP3    H143935   5.064   1.981   5.748 -0.3595  0.8689  0.7889
 6580TIP3    H243936   5.151   1.925   5.859  0.1541 -1.4070 -0.6960
 6581TIP3   OH243937   8.442   8.163   6.155 -0.6570 -0.2505 -0.2600
 6581TIP3    H143938   8.454   8.134   6.065  1.2091  0.5934 -0.3267
 6581TIP3    H243939   8.448   8.258   6.151  1.5890 -0.2548  0.9512
 6582TIP3   OH243940   8.162   3.028   6.447 -0.3960  0.1150 -0.6046
 6582TIP3    H143941   8.132   3.045   6.357 -1.5837  1.9538  0.0782
 6582TIP3    H243942   8.122   3.098   6.499  0.0619 -1.0461  1.4128
 6583TIP3   OH243943   0.071   1.226   5.666 -0.3934 -0.0936  0.2146
 6583TIP3    H143944   0.165   1.209   5.657 -1.0170 -3.0805 -2.3135
 6583TIP3    H243945   0.029   1.149   5.628 -3.8743  2.2512 -1.1616
 6584TIP3   OH243946   0.818   5.196   4.751  0.6007 -0.2955 -0.3034
 6584TIP3    H143947   0.741   5.141   4.742 -0.4791  1.1387 -0.2049
 6584TIP3    H243948   0.788   5.272   4.801  2.1814  0.1181  0.0952
 6585TIP3   OH243949   7.859   7.147   5.716 -0.2897  0.1099  0.0773
 6585TIP3    H143950   7.875   7.163   5.623  1.8321  0.4121  0.4340
 6585TIP3    H243951   7.917   7.073   5.738  1.0550  1.5337  1.6150
 6586TIP3   OH243952   8.860   5.946   4.984  0.2444  0.0267 -0.0399
 6586TIP3    H143953   8.818   5.861   4.972 -2.5950  1.0065  1.8462
 6586TIP3    H243954   8.876   5.953   5.078  3.4452  0.3688 -0.5040
 6587TIP3   OH243955   0.343   1.126   5.660 -0.2775  0.1696  0.3945
 6587TIP3    H143956   0.397   1.183   5.604 -1.5191  0.7997 -0.1998
 6587TIP3    H243957   0.404   1.058   5.690  0.6291  0.2795 -1.0672
 6588TIP3   OH243958   6.404   7.023   6.935  0.2810  0.8383 -0.0622
 6588TIP3    H143959   6.499   7.031   6.947  0.2415  0.6413  0.3956
 6588TIP3    H243960   6.382   7.091   6.871  0.8378  0.3944 -0.7274
 6589TIP3   OH243961   0.540   4.327   6.218  0.2853  0.0355  0.1483
 6589TIP3    H143962   0.554   4.411   6.261 -0.2411 -1.1545  2.8823
 6589TIP3    H243963   0.608   4.270   6.255  0.5765 -0.7880 -1.5662
 6590TIP3   OH243964   7.304   7.657   6.023  0.3461  0.2553  0.6065
 6590TIP3    H143965   7.304   7.674   5.928  1.4890  1.6074  0.8156
 6590TIP3    H243966   7.274   7.739   6.062 -0.7294 -0.4914  1.4251
 6591TIP3   OH243967   0.478   1.851   5.251 -0.0347  0.5050 -0.2871
 6591TIP3    H143968   0.410   1.916   5.231  0.7531  1.2082 -0.7307
 6591TIP3    H243969   0.468   1.785   5.182 -0.6097  0.3260 -0.0405
 6592TIP3   OH243970   8.903   8.114   5.281  0.6477 -0.1747  0.5568
 6592TIP3    H143971   8.824   8.156   5.315  0.8609 -0.5902  1.5912
 6592TIP3    H243972   8.970   8.182   5.285  0.4765  0.0199  0.1805
 6593TIP3   OH243973   6.722   2.738   5.446 -0.1590 -0.0373  0.0831
 6593TIP3    H143974   6.714   2.682   5.523  0.8091 -0.0141  0.2067
 6593TIP3    H243975   6.721   2.678   5.371  1.3390 -0.2803  0.2349
 6594TIP3   OH243976   7.947   2.973   6.218  0.3844 -0.0528  0.8970
 6594TIP3    H143977   7.871   3.027   6.238 -0.3284 -1.4094  2.0875
 6594TIP3    H243978   7.923   2.886   6.251  2.0939 -0.7186  0.4626
 6595TIP3   OH243979   5.360   0.969   5.623  0.5541 -0.1926  0.2536
 6595TIP3    H143980   5.382   1.044   5.568  1.2240 -0.3161  0.3459
 6595TIP3    H243981   5.318   1.008   5.700 -1.3041 -0.0806 -0.7427
 6596TIP3   OH243982   5.081   8.182   5.195 -0.3348  0.0753 -0.4155
 6596TIP3    H143983   5.140   8.258   5.194  1.5104 -1.2777  0.0594
 6596TIP3    H243984   5.079   8.155   5.287 -0.0990 -1.0572 -0.7248
 6597TIP3   OH243985   0.049   4.096   5.241 -1.1561 -0.0143 -0.4899
 6597TIP3    H143986   0.073   4.064   5.328  1.0971 -0.7558 -1.3042
 6597TIP3    H243987  -0.046   4.083   5.236 -0.8896 -3.2103  0.6082
 6598TIP3   OH243988   4.182   5.538   5.661  0.2610  0.0516  0.1798
 6598TIP3    H143989   4.162   5.445   5.671 -0.2251 -0.0168 -1.2759
 6598TIP3    H243990   4.153   5.577   5.743  0.0284 -0.9953  0.6205
 6599TIP3   OH243991   3.643   2.890   7.085 -0.1598  0.3959  0.2476
 6599TIP3    H143992   3.592   2.825   7.133  1.0556 -0.6224  0.1921
 6599TIP3    H243993   3.726   2.846   7.065  0.6435  1.9253  0.0991
 6600TIP3   OH243994   0.033   7.610   6.181 -0.3813 -0.8620 -0.4098
 6600TIP3    H143995   0.027   7.671   6.254 -1.9874  1.4930 -2.3595
 6600TIP3    H243996   0.127   7.601   6.165 -0.0863  0.5213  0.3992
 6601TIP3   OH243997   5.765   5.851   6.070 -0.5891  0.1074  0.4297
 6601TIP3    H143998   5.823   5.810   6.006 -2.9226 -0.6599 -1.3590
 6601TIP3    H243999   5.809   5.932   6.095  0.7077  0.1271 -1.6940
 6602TIP3   OH244000   7.361   8.637   5.904 -0.2731  0.5625 -0.2324
 6602TIP3    H144001   7.300   8.632   5.830 -1.0999 -1.4087  0.5134
 6602TIP3    H244002   7.447   8.647   5.863 -0.5971 -1.4842 -1.5702
 6603TIP3   OH244003   5.528   0.497   6.265  0.0244  0.0946  0.1947
 6603TIP3    H144004   5.573   0.559   6.322 -0.5998 -1.4481  2.4729
 6603TIP3    H244005   5.537   0.413   6.309 -0.2334 -1.2660 -2.1735
 6604TIP3   OH244006   3.117   6.934   6.432 -0.2463  0.1877  0.3059
 6604TIP3    H144007   3.208   6.922   6.406 -0.7091 -0.5046 -1.1650
 6604TIP3    H244008   3.111   6.895   6.519  0.7258 -0.3298  0.1518
 6605TIP3   OH244009   4.603   8.714   5.705 -0.5513 -0.5795  0.1604
 6605TIP3    H144010   4.522   8.766   5.703  0.1212  0.4588 -1.0353
 6605TIP3    H244011   4.572   8.623   5.709 -1.8384 -0.3059 -1.8600
 6606TIP3   OH244012   1.694   4.364   6.420  0.3449 -0.2292  0.1142
 6606TIP3    H144013   1.745   4.283   6.409  2.0872  1.0574 -2.1699
 6606TIP3    H244014   1.700   4.383   6.514 -0.4275 -2.8794  0.7829
 6607TIP3   OH244015   9.167   5.789   6.250  0.2746  0.3472 -0.2570
 6607TIP3    H144016   9.102   5.772   6.318  0.9995 -0.7418  0.1965
 6607TIP3    H244017   9.126   5.853   6.192 -1.4965 -0.8766 -0.4170
 6608TIP3   OH244018   7.021   7.358   5.279  0.0193 -0.1933  0.0011
 6608TIP3    H144019   7.053   7.366   5.369  0.1046 -1.5314  0.1039
 6608TIP3    H244020   7.075   7.419   5.229  2.0810 -1.6625  0.3488
 6609TIP3   OH244021   0.792   2.146   6.437 -0.2917 -0.6233  0.1349
 6609TIP3    H144022   0.854   2.123   6.507  0.4207 -2.3059 -0.9937
 6609TIP3    H244023   0.713   2.097   6.457 -0.2610 -0.7214  0.0138
 6610TIP3   OH244024   3.604   2.195   9.693 -0.2859 -0.3152 -0.4740
 6610TIP3    H144025   3.597   2.170   9.601 -2.7412  4.2329 -1.8263
 6610TIP3    H244026   3.531   2.150   9.736  0.5719 -2.0672 -0.7803
 6611TIP3   OH244027   4.978   6.262   5.861 -0.2574 -0.2669  0.3882
 6611TIP3    H144028   4.893   6.305   5.871 -0.0563  0.0023  0.9866
 6611TIP3    H244029   5.003   6.237   5.950  0.2547 -0.4160  0.2050
 6612TIP3   OH244030   0.264   4.346   5.538  0.4129  0.3707 -0.2931
 6612TIP3    H144031   0.237   4.342   5.629 -1.2357 -0.1690 -0.7750
 6612TIP3    H244032   0.231   4.430   5.506  1.7149  0.9367 -0.1879
 6613TIP3   OH244033   8.513   6.902   6.736  0.0103  0.1589  0.1815
 6613TIP3    H144034   8.565   6.885   6.815  0.5062  0.5582 -0.0508
 6613TIP3    H244035   8.431   6.938   6.769  0.1642  0.2057  0.5210
 6614TIP3   OH244036   3.051   0.621   5.648 -0.0677  0.4717 -0.2817
 6614TIP3    H144037   3.067   0.677   5.723  0.1590  1.6687 -1.1872
 6614TIP3    H244038   3.137   0.606   5.609  0.0506 -1.5845  0.6458
 6615TIP3   OH244039   0.365   8.142   5.202 -0.1371 -0.3992 -0.4626
 6615TIP3    H144040   0.415   8.116   5.124  1.7753 -0.5042  0.7468
 6615TIP3    H244041   0.377   8.069   5.263 -0.2492  0.4018  0.5350
 6616TIP3   OH244042   5.444   1.182   6.013 -0.4776 -0.1413 -0.1291
 6616TIP3    H144043   5.476   1.092   6.017 -0.3130 -0.0721  0.1267
 6616TIP3    H244044   5.519   1.233   5.984 -0.5541 -0.0779 -0.2157
 6617TIP3   OH244045   2.879   5.467   5.919  0.4429  0.1570 -0.1098
 6617TIP3    H144046   2.866   5.522   5.842 -1.8002  0.6511  0.5495
 6617TIP3    H244047   2.803   5.484   5.975  1.5007 -0.9089  1.7935
 6618TIP3   OH244048   3.755   2.449   5.149 -0.4153  0.0474 -0.1562
 6618TIP3    H144049   3.757   2.383   5.219 -1.3189  1.3843  1.1690
 6618TIP3    H244050   3.832   2.503   5.165 -1.7381  1.6420  1.1474
 6619TIP3   OH244051   8.641   7.366   5.752 -0.2410  0.4320  0.4461
 6619TIP3    H144052   8.658   7.383   5.844 -3.0108  1.0091  0.9580
 6619TIP3    H244053   8.602   7.447   5.719 -0.7960 -0.2881 -0.7703
 6620TIP3   OH244054   7.487   2.482   5.128  0.4985  0.4162 -0.9725
 6620TIP3    H144055   7.406   2.434   5.149  0.2807  0.8532 -0.8100
 6620TIP3    H244056   7.521   2.438   5.050 -0.2681  0.6759 -1.4548
 6621TIP3   OH244057   6.469   3.190   5.531 -0.4785 -0.1679 -0.0650
 6621TIP3    H144058   6.390   3.237   5.505  1.1174  2.8667  0.1504
 6621TIP3    H244059   6.508   3.161   5.449 -0.7590  0.1354 -0.3047
 6622TIP3   OH244060   9.175   3.809   6.051 -0.2187  0.4082  0.8402
 6622TIP3    H144061   9.119   3.732   6.039 -1.2930  1.1227  1.1267
 6622TIP3    H244062   9.226   3.790   6.129  2.4503 -1.6906 -1.2128
 6623TIP3   OH244063   0.548   6.689   5.428 -0.2363 -0.3860  0.0127
 6623TIP3    H144064   0.466   6.658   5.391 -0.4056 -0.8081  0.7190
 6623TIP3    H244065   0.604   6.611   5.434 -0.0753 -0.2547  0.2800
 6624TIP3   OH244066   3.133   2.927   6.093  0.6639 -0.2047 -0.3960
 6624TIP3    H144067   3.222   2.904   6.121  0.5903  0.4238  0.3988
 6624TIP3    H244068   3.097   2.976   6.166 -0.0623  0.2468 -1.0417
 6625TIP3   OH244069   0.457   6.843   6.131  0.0764 -0.2842 -0.3518
 6625TIP3    H144070   0.390   6.836   6.199 -1.3116 -0.3745 -1.6735
 6625TIP3    H244071   0.496   6.756   6.126  0.1731 -0.2814  0.2871
 6626TIP3   OH244072   1.826   0.416   6.457  0.3896 -0.0379 -0.1463
 6626TIP3    H144073   1.904   0.438   6.510  0.6727 -1.0346 -0.1243
 6626TIP3    H244074   1.764   0.486   6.476  1.3103  0.8126 -0.2125
 6627TIP3   OH244075   1.777   1.829   6.198  0.0312 -0.4348  0.0686
 6627TIP3    H144076   1.867   1.810   6.171 -0.3601 -1.5915 -0.4760
 6627TIP3    H244077   1.757   1.764   6.266  0.1172  0.8090  1.3359
 6628TIP3   OH244078   7.274   8.063   5.026 -0.2008 -0.2687  0.2733
 6628TIP3    H144079   7.281   8.076   5.121 -1.5789 -3.1189  0.8678
 6628TIP3    H244080   7.329   7.986   5.009 -0.7338 -0.3691 -1.0720
 6629TIP3   OH244081   1.029   5.292   4.900 -0.5338 -0.3170  0.6031
 6629TIP3    H144082   1.063   5.355   4.838  0.8211 -2.7137 -1.2545
 6629TIP3    H244083   0.979   5.230   4.847 -0.5583 -1.6464  2.0920
 6630TIP3   OH244084   8.936   8.373   6.708  0.6422 -0.0448  0.1927
 6630TIP3    H144085   8.866   8.345   6.767  0.1786  0.8952  0.1133
 6630TIP3    H244086   8.892   8.431   6.645  1.2756 -0.3926 -0.5886
 6631TIP3   OH244087   1.049   4.302   6.671 -0.1361 -0.1943 -0.5953
 6631TIP3    H144088   1.033   4.391   6.702 -0.8941 -0.4266 -0.3041
 6631TIP3    H244089   1.076   4.312   6.580 -1.5209  0.2460 -0.9659
 6632TIP3   OH244090   0.759   5.338   5.385  0.6002 -0.3527 -0.1347
 6632TIP3    H144091   0.814   5.387   5.324 -0.5886 -0.3011 -1.1909
 6632TIP3    H244092   0.820   5.308   5.452  1.4572  2.2312  0.3635
 6633TIP3   OH244093   8.043   6.914   4.898 -0.7334  0.5874  0.3288
 6633TIP3    H144094   8.092   6.839   4.932 -0.4936  1.6853  2.6405
 6633TIP3    H244095   8.110   6.974   4.864 -0.8543  0.1794 -0.6543
 6634TIP3   OH244096   7.208   8.673   7.077  0.1403  0.4594  0.3894
 6634TIP3    H144097   7.166   8.695   6.994 -0.1059 -0.3511  0.2881
 6634TIP3    H244098   7.154   8.602   7.113  0.9408 -0.0271  0.6549
 6635TIP3   OH244099   4.040   2.535   6.469  0.6665 -0.0130  0.1665
 6635TIP3    H144100   4.133   2.532   6.448  1.0581  1.1351  1.6173
 6635TIP3    H244101   4.002   2.462   6.419  2.6608 -1.8347  1.1344
 6636TIP3   OH244102   2.241   3.135   5.404 -0.1864 -0.4691  0.0829
 6636TIP3    H144103   2.298   3.172   5.337 -0.4907  1.6929  0.9380
 6636TIP3    H244104   2.249   3.195   5.478  0.0859 -2.7211  1.9997
 6637TIP3   OH244105   5.265   4.768   5.698  0.3795 -0.3826  0.2088
 6637TIP3    H144106   5.266   4.861   5.677 -1.1844 -0.3990 -0.0890
 6637TIP3    H244107   5.191   4.733   5.648  1.1651 -1.8601  0.0302
 6638TIP3   OH244108   0.891   6.076   5.930 -0.1578  0.0978  0.3890
 6638TIP3    H144109   0.811   6.128   5.930 -1.8799 -2.3423  1.6783
 6638TIP3    H244110   0.953   6.127   5.983 -1.3874  1.3125  0.7000
 6639TIP3   OH244111   5.987   4.119   5.213  0.5215 -0.1980  0.0649
 6639TIP3    H144112   5.921   4.141   5.279  0.6092  0.6415 -0.1184
 6639TIP3    H244113   5.942   4.059   5.154 -0.4179  1.1614 -0.6411
 6640TIP3   OH244114   4.238   5.145   5.926 -0.3672 -0.0805 -0.4026
 6640TIP3    H144115   4.164   5.191   5.966  1.3333  0.3731  2.4285
 6640TIP3    H244116   4.216   5.052   5.935 -0.9674  0.0556 -0.3927
 6641TIP3   OH244117   7.142   1.666   5.400 -0.2468 -0.2150  0.3973
 6641TIP3    H144118   7.088   1.587   5.402  0.0324 -0.4169  0.1013
 6641TIP3    H244119   7.173   1.671   5.309 -2.3867  1.6604 -0.3107
 6642TIP3   OH244120   1.094   3.050   6.868 -0.2188 -0.5405  0.0126
 6642TIP3    H144121   1.084   3.086   6.956  0.8092 -0.3547  0.0646
 6642TIP3    H244122   1.010   3.068   6.825 -0.1473  0.8586  0.4254
 6643TIP3   OH244123   5.853   7.869   5.309  0.5720  0.2207 -0.0638
 6643TIP3    H144124   5.772   7.822   5.327  0.7074 -0.1263 -0.3559
 6643TIP3    H244125   5.826   7.961   5.303  0.0237  0.0015 -1.1881
 6644TIP3   OH244126   0.426   5.958   4.610 -0.0207  0.2949  0.1774
 6644TIP3    H144127   0.430   5.897   4.684 -1.0122 -0.0100 -0.0105
 6644TIP3    H244128   0.477   5.915   4.541  3.2936  1.7908  1.4715
 6645TIP3   OH244129   1.316   2.286   5.009  0.4418 -0.4451 -0.3874
 6645TIP3    H144130   1.264   2.325   4.939 -0.4860 -0.4755  0.2762
 6645TIP3    H244131   1.399   2.263   4.966  0.2787  0.4727 -1.2321
 6646TIP3   OH244132   8.573   0.135   4.966 -0.6360  0.2046  0.1482
 6646TIP3    H144133   8.539   0.176   5.046 -1.0006  0.5018 -0.1552
 6646TIP3    H244134   8.501   0.141   4.903  0.3687  1.9994 -0.9164
 6647TIP3   OH244135   6.738   2.087   6.744 -0.3024  0.4486  0.7591
 6647TIP3    H144136   6.652   2.111   6.777 -0.8608  0.5965 -0.7232
 6647TIP3    H244137   6.727   1.997   6.713 -0.3917  0.9944 -0.8913
 6648TIP3   OH244138   3.044   6.818   6.193  0.0843  0.0750  0.2220
 6648TIP3    H144139   3.040   6.845   6.285  0.7132  2.3483 -0.3455
 6648TIP3    H244140   2.962   6.849   6.155 -0.1003 -0.7096 -0.0398
 6649TIP3   OH244141   0.694   4.874   4.787  0.5927 -0.2821 -0.1418
 6649TIP3    H144142   0.681   4.823   4.866 -0.3106 -0.3054 -0.2873
 6649TIP3    H244143   0.788   4.874   4.772  0.6154 -1.8544 -0.1063
 6650TIP3   OH244144   4.091   1.940   5.864  0.2885 -0.0762  0.0586
 6650TIP3    H144145   4.001   1.967   5.883  0.3623  0.7544 -0.7054
 6650TIP3    H244146   4.143   1.977   5.935  0.2128  0.6856 -0.2804
 6651TIP3   OH244147   3.965   3.175   6.729  0.1167 -0.0529 -0.0900
 6651TIP3    H144148   3.996   3.091   6.764  1.2999  0.8387  1.1295
 6651TIP3    H244149   4.045   3.219   6.699 -0.4615  0.7034 -0.5470
 6652TIP3   OH244150   6.173   1.580   6.677 -0.0391  0.6667  0.6449
 6652TIP3    H144151   6.119   1.600   6.753 -2.3349  2.1162 -1.2222
 6652TIP3    H244152   6.176   1.661   6.627 -0.2640 -0.6996 -1.7581
 6653TIP3   OH244153   6.596   5.969   5.230  0.3651 -0.5811  0.3491
 6653TIP3    H144154   6.517   5.979   5.284  0.5727 -1.7802  0.9130
 6653TIP3    H244155   6.564   5.929   5.149  0.3890 -1.0554  0.5724
 6654TIP3   OH244156   1.011   2.247   6.754 -0.5108  0.5491 -0.1727
 6654TIP3    H144157   0.975   2.164   6.722  1.8440 -0.3151 -0.7675
 6654TIP3    H244158   1.082   2.222   6.812 -0.6457  2.1784  0.7627
 6655TIP3   OH244159   0.883   2.535   5.927 -0.1560  0.3818  0.0431
 6655TIP3    H144160   0.803   2.509   5.973  0.5849 -1.2301  0.5130
 6655TIP3    H244161   0.880   2.488   5.844 -0.4112  1.5154 -0.5998
 6656TIP3   OH244162   1.871   2.988   5.975  0.5866 -0.2247 -0.3068
 6656TIP3    H144163   1.946   2.944   5.934  0.4822 -0.2043 -0.5213
 6656TIP3    H244164   1.815   2.917   6.006  0.7221 -0.2398 -0.0953
 6657TIP3   OH244165   2.298   4.383   5.530  0.2375 -0.0572  0.4255
 6657TIP3    H144166   2.277   4.429   5.612 -2.3597 -0.1359 -0.1134
 6657TIP3    H244167   2.345   4.447   5.478  1.1132  0.2998  1.6190
 6658TIP3   OH244168   8.979   0.685   7.239  0.3504  0.3710  0.0850
 6658TIP3    H144169   8.886   0.671   7.259  0.3680  0.7865  0.4793
 6658TIP3    H244170   9.016   0.597   7.231 -0.0880  0.2032 -0.1409
 6659TIP3   OH244171   2.390   4.849   6.168  0.0051 -0.0411  0.3137
 6659TIP3    H144172   2.324   4.902   6.124 -0.7306 -0.2236  1.1728
 6659TIP3    H244173   2.470   4.864   6.118 -0.9074 -0.6775 -1.4142
 6660TIP3   OH244174   7.522   0.919   5.656  0.0695  0.1056 -0.0482
 6660TIP3    H144175   7.569   0.865   5.593  0.6968  0.5982 -0.0133
 6660TIP3    H244176   7.527   0.870   5.738  2.1585  0.9732  0.4183
 6661TIP3   OH244177   5.317   3.225   5.224  0.1099 -0.2302 -0.1088
 6661TIP3    H144178   5.266   3.146   5.208  0.5808 -0.5780  0.0958
 6661TIP3    H244179   5.366   3.207   5.304  0.4074  0.1746 -0.1919
 6662TIP3   OH244180   2.195   0.211   6.687 -0.7485  0.5260 -0.7630
 6662TIP3    H144181   2.167   0.212   6.595 -0.7563 -0.3139 -0.7756
 6662TIP3    H244182   2.128   0.160   6.732  0.2698 -0.7633 -0.6434
 6663TIP3   OH244183   3.566   7.987   6.002  0.2456 -0.2338  0.1210
 6663TIP3    H144184   3.577   7.892   5.995  0.7526 -0.1514 -0.2797
 6663TIP3    H244185   3.497   8.007   5.938  1.2276 -0.1449 -0.9385
 6664TIP3   OH244186   1.648   4.864   5.346 -0.2028 -0.2262 -0.2096
 6664TIP3    H144187   1.623   4.870   5.254  0.0052  1.6703 -0.1631
 6664TIP3    H244188   1.565   4.869   5.393 -0.1091  2.9780 -0.1831
 6665TIP3   OH244189   5.905   2.122   5.371 -0.6439  0.5314 -0.6745
 6665TIP3    H144190   5.843   2.130   5.444 -0.2777 -2.1545  0.0282
 6665TIP3    H244191   5.873   2.046   5.321  1.2035  0.0212 -1.1483
 6666TIP3   OH244192   3.288   4.754   5.898  0.7114 -0.1346  0.1303
 6666TIP3    H144193   3.379   4.774   5.918  0.4038  1.3528  0.1260
 6666TIP3    H244194   3.240   4.834   5.917 -0.4268 -0.4920 -1.0201
 6667TIP3   OH244195   0.669   7.903   5.493  0.2159  0.4105  0.0958
 6667TIP3    H144196   0.607   7.889   5.565 -0.8771 -0.5351 -0.9985
 6667TIP3    H244197   0.745   7.849   5.517  0.0558  0.4612  0.7576
 6668TIP3   OH244198   7.807   0.536   5.473 -0.1283 -0.8816 -0.2071
 6668TIP3    H144199   7.897   0.506   5.464  0.4775  0.8004 -0.1574
 6668TIP3    H244200   7.802   0.614   5.417 -0.7999  0.5336  1.7181
 6669TIP3   OH244201   2.617   3.862   6.008 -0.4002  0.1960  0.4904
 6669TIP3    H144202   2.630   3.806   6.085  0.3447 -0.2853  0.0368
 6669TIP3    H244203   2.654   3.946   6.033  1.0170 -0.3197  0.2504
 6670TIP3   OH244204   5.288   5.155   5.365 -0.1867 -0.5828  0.4546
 6670TIP3    H144205   5.320   5.243   5.384  0.0854  0.0500 -2.4906
 6670TIP3    H244206   5.193   5.164   5.358 -0.2188 -0.6679  0.7606
 6671TIP3   OH244207   7.083   2.390   5.262  0.0721  0.0680  0.0899
 6671TIP3    H144208   7.021   2.332   5.305 -0.7550  0.5875 -0.3764
 6671TIP3    H244209   7.030   2.462   5.229  0.9965  0.7840  0.1267
 6672TIP3   OH244210   3.155   6.441   5.769  0.1556  0.1452 -0.6642
 6672TIP3    H144211   3.232   6.429   5.713  0.1891 -0.8262 -0.4292
 6672TIP3    H244212   3.160   6.369   5.832  0.3216  1.4116  0.8438
 6673TIP3   OH244213   0.121   8.623   5.092 -0.3790 -0.5902  0.4599
 6673TIP3    H144214   0.130   8.713   5.123 -1.4597 -1.2662  3.0742
 6673TIP3    H244215   0.210   8.591   5.083  0.0219  0.1428  1.5816
 6674TIP3   OH244216   1.807   1.471   5.032  0.3478  0.9304 -0.8579
 6674TIP3    H144217   1.780   1.471   5.124  0.9461  1.1966 -0.6793
 6674TIP3    H244218   1.737   1.520   4.987 -0.0035  0.7024 -0.5676
 6675TIP3   OH244219   8.786   6.860   6.302  0.1428  0.0134 -0.1628
 6675TIP3    H144220   8.741   6.898   6.377  0.3951  2.4859 -1.1600
 6675TIP3    H244221   8.842   6.931   6.270  1.1023 -1.4316 -1.8337
 6676TIP3   OH244222   9.145   7.411   4.591 -0.1405  0.0920 -0.1713
 6676TIP3    H144223   9.075   7.352   4.621 -0.1769  1.0493  1.8256
 6676TIP3    H244224   9.100   7.492   4.570  0.0379 -0.2191 -1.9139
 6677TIP3   OH244225   4.963   8.123   6.079 -0.1180 -0.0748 -0.2899
 6677TIP3    H144226   4.936   8.130   5.988 -0.8720 -1.1721 -0.1630
 6677TIP3    H244227   4.993   8.032   6.089 -0.3931 -0.0805  0.6384
 6678TIP3   OH244228   4.023   4.143   5.903 -0.4022 -0.3396  0.2012
 6678TIP3    H144229   3.936   4.176   5.880  1.2721  2.3452 -3.0934
 6678TIP3    H244230   4.034   4.065   5.849 -0.4333 -0.1168 -0.1323
 6679TIP3   OH244231   2.208   5.993   5.771  0.5202 -0.1925  0.2916
 6679TIP3    H144232   2.114   5.978   5.771  0.7876 -2.1498 -0.1431
 6679TIP3    H244233   2.219   6.076   5.816 -1.3725 -0.1479  0.7625
 6680TIP3   OH244234   9.187   0.092   5.960 -0.0432  0.5697 -0.3170
 6680TIP3    H144235   9.119   0.110   6.024 -0.0441  0.5354 -0.3080
 6680TIP3    H244236   9.149   0.116   5.876  0.3451  1.6580 -0.1988
 6681TIP3   OH244237   1.580   5.598   6.063 -0.5849  0.2920  0.1246
 6681TIP3    H144238   1.587   5.656   5.988  1.3886  1.6993  1.2993
 6681TIP3    H244239   1.537   5.651   6.130  1.1179  0.3983  1.1754
 6682TIP3   OH244240   0.064   2.526   4.791  0.0256  0.1605  0.7903
 6682TIP3    H144241  -0.027   2.502   4.773 -0.5250  0.7615  2.6144
 6682TIP3    H244242   0.063   2.621   4.798  1.1308  0.3266 -0.7034
 6683TIP3   OH244243   6.960   1.886   5.362  0.2009  0.2926 -0.0736
 6683TIP3    H144244   6.866   1.866   5.361 -0.0087  0.8879  1.9705
 6683TIP3    H244245   7.002   1.802   5.377 -0.2513  0.3990  2.0867
 6684TIP3   OH244246   8.975   4.194   5.941  0.4256 -0.6029  0.7525
 6684TIP3    H144247   9.039   4.212   5.873  1.0031  1.8883  1.8417
 6684TIP3    H244248   8.926   4.276   5.950 -1.2563 -1.6437  1.6969
 6685TIP3   OH244249   3.640   6.270   5.296  0.4912 -0.1415 -0.4589
 6685TIP3    H144250   3.735   6.264   5.305  0.3345 -1.5472  0.8622
 6685TIP3    H244251   3.617   6.353   5.338  1.2261  0.8635 -1.9823
 6686TIP3   OH244252   0.617   6.625   5.062  0.2293  0.2151  0.0713
 6686TIP3    H144253   0.536   6.586   5.030 -0.2412  1.3129 -0.1245
 6686TIP3    H244254   0.660   6.658   4.983 -0.4652  2.0654  0.4293
 6687TIP3   OH244255   6.974   1.129   7.017 -0.2192 -0.0223 -0.1625
 6687TIP3    H144256   7.007   1.046   6.983  1.0191  0.1657  0.5190
 6687TIP3    H244257   7.027   1.196   6.973  0.0422  0.3083  0.6264
 6688TIP3   OH244258   2.664   5.537   6.062  0.2748 -0.4024 -0.3007
 6688TIP3    H144259   2.575   5.525   6.029  0.0958  0.2571 -0.0729
 6688TIP3    H244260   2.652   5.553   6.156  0.3765  2.5432 -0.6972
 6689TIP3   OH244261   7.240   1.074   6.163 -0.0828  0.3103 -0.2562
 6689TIP3    H144262   7.162   1.028   6.133 -0.8627  1.2078  0.3202
 6689TIP3    H244263   7.214   1.167   6.163  0.3623  0.4858  1.6914
 6690TIP3   OH244264   9.036   6.183   5.923 -0.0460 -0.1805  0.4158
 6690TIP3    H144265   9.000   6.188   5.834  0.3505  0.3704  0.2807
 6690TIP3    H244266   9.044   6.089   5.940  1.0634 -0.2982 -0.6270
 6691TIP3   OH244267   5.012   7.239   5.585 -0.0170 -0.3063 -0.8050
 6691TIP3    H144268   4.940   7.282   5.632 -0.1169 -1.6495  0.3332
 6691TIP3    H244269   5.090   7.289   5.611 -0.2930 -0.0000 -0.5547
 6692TIP3   OH244270   7.303   4.861   5.606 -0.3310 -0.1032 -0.4186
 6692TIP3    H144271   7.390   4.829   5.584 -0.4257 -0.1779 -0.6833
 6692TIP3    H244272   7.317   4.924   5.677 -0.1901 -1.1309  0.5022
 6693TIP3   OH244273   8.121   3.168   6.168  0.1059  0.4091  0.1241
 6693TIP3    H144274   8.048   3.108   6.181  0.0777  0.7993  2.0748
 6693TIP3    H244275   8.124   3.220   6.249  2.6277  0.3098  0.1696
 6694TIP3   OH244276   0.540   7.535   6.349  0.1316  0.0792 -0.4851
 6694TIP3    H144277   0.461   7.544   6.294  0.0619  1.2541 -0.2239
 6694TIP3    H244278   0.523   7.593   6.424  0.4707 -1.0700  0.5006
 6695TIP3   OH244279   0.349   2.250   5.990 -0.1808  0.3024  0.1139
 6695TIP3    H144280   0.375   2.291   6.072 -2.5797  0.5742  0.8273
 6695TIP3    H244281   0.273   2.300   5.961  0.1984 -0.2133 -1.9349
 6696TIP3   OH244282   0.950   2.603   6.219  0.2958  0.1119  0.2102
 6696TIP3    H144283   0.908   2.531   6.266 -3.1791  1.7962  0.0767
 6696TIP3    H244284   0.949   2.576   6.127  0.0610 -0.1492  0.2878
 6697TIP3   OH244285   3.086   5.840   5.576 -0.1432  0.4744  0.2368
 6697TIP3    H144286   3.137   5.777   5.626  0.2396  0.4646 -0.1597
 6697TIP3    H244287   3.026   5.879   5.640  0.7139  0.8604  0.8130
 6698TIP3   OH244288   0.582   2.310   5.794  0.3686 -0.1370 -0.5903
 6698TIP3    H144289   0.557   2.402   5.784  3.0461  0.5356 -2.0368
 6698TIP3    H244290   0.588   2.297   5.889 -0.9247  0.8998 -0.3513
 6699TIP3   OH244291   8.032   8.228   6.432 -0.1345  0.2223 -0.4208
 6699TIP3    H144292   8.126   8.234   6.443 -0.0181  1.2427 -1.6827
 6699TIP3    H244293   7.996   8.285   6.500  0.0319 -1.5324  1.2230
 6700TIP3   OH244294   7.594   2.980   5.990  0.1800 -0.0472  0.0244
 6700TIP3    H144295   7.662   3.046   5.998 -0.3537  0.6062 -0.7078
 6700TIP3    H244296   7.613   2.917   6.059  0.2490  1.2573  1.2314
 6701TIP3   OH244297   3.417   4.950   5.428 -0.3169  0.0664 -0.1871
 6701TIP3    H144298   3.433   4.993   5.512  1.4604 -0.8388 -0.0073
 6701TIP3    H244299   3.329   4.913   5.437 -0.6194  0.9603  0.8292
 6702TIP3   OH244300   5.119   7.725   5.420  0.2584  0.2943  0.0451
 6702TIP3    H144301   5.121   7.773   5.337 -3.4773  0.5287 -0.0869
 6702TIP3    H244302   5.207   7.690   5.430  1.1646  1.2203 -3.4291
 6703TIP3   OH244303   6.706   2.309   5.124  0.5068  0.2901 -0.6772
 6703TIP3    H144304   6.783   2.252   5.127  0.3427  0.1320  1.1530
 6703TIP3    H244305   6.632   2.252   5.142  0.2740  0.9279  0.5110
 6704TIP3   OH244306   0.268   1.076   5.227  0.3619 -0.3252  0.0945
 6704TIP3    H144307   0.213   1.064   5.149 -2.2174  2.5121  1.2900
 6704TIP3    H244308   0.232   1.015   5.291  0.8161 -0.8472 -0.1437
 6705TIP3   OH244309   9.160   8.668   6.477  0.2317 -0.1603  1.0521
 6705TIP3    H144310   9.220   8.595   6.459  1.1813  0.7248  0.5074
 6705TIP3    H244311   9.211   8.746   6.456 -1.3108  0.6072  0.0356
 6706TIP3   OH244312   3.021   2.630   5.691 -0.1304  0.6642  0.9327
 6706TIP3    H144313   3.026   2.587   5.777 -0.1626 -0.5563  0.3536
 6706TIP3    H244314   3.058   2.717   5.705  1.5761 -0.1459  1.7993
 6707TIP3   OH244315   0.205   4.189   6.022  0.3102 -0.5187  0.1500
 6707TIP3    H144316   0.141   4.136   6.068 -0.3721  0.4501  0.3526
 6707TIP3    H244317   0.214   4.268   6.075  0.7753 -0.1246 -0.4918
 6708TIP3   OH244318   8.022   1.015   6.902 -0.3783 -0.2994  0.0578
 6708TIP3    H144319   7.993   1.040   6.990  1.7782 -0.2442  0.8162
 6708TIP3    H244320   8.098   0.959   6.918  1.8096  1.9509 -1.7742
 6709TIP3   OH244321   0.302   0.856   6.561 -0.1741  0.1009 -1.1011
 6709TIP3    H144322   0.279   0.777   6.609 -0.0328  0.4540 -0.4367
 6709TIP3    H244323   0.391   0.841   6.530 -0.0646  0.0892 -0.7812
 6710TIP3   OH244324   1.936   5.072   6.304 -0.1544  0.0658 -0.0473
 6710TIP3    H144325   1.975   5.148   6.261  2.2334 -0.9380  0.1697
 6710TIP3    H244326   1.967   5.077   6.394  0.6932 -1.4998 -0.2031
 6711TIP3   OH244327   5.674   4.695   5.102 -0.0886  0.1885 -0.3659
 6711TIP3    H144328   5.624   4.743   5.168  1.9832  2.7604 -0.4930
 6711TIP3    H244329   5.624   4.705   5.021 -0.9864 -0.1104  0.1431
 6712TIP3   OH244330   5.410   7.668   6.629 -0.1623 -0.0496 -0.4530
 6712TIP3    H144331   5.431   7.694   6.719 -0.3677 -1.5656  0.0596
 6712TIP3    H244332   5.319   7.693   6.617  0.4663  2.1593 -1.0261
 6713TIP3   OH244333   5.353   3.549   5.941 -0.1703 -0.1404 -0.8710
 6713TIP3    H144334   5.296   3.546   6.019 -1.4788 -0.3066 -1.8042
 6713TIP3    H244335   5.425   3.490   5.962 -0.8716 -0.7260 -0.0537
 6714TIP3   OH244336   6.506   0.797   6.419  0.6305 -0.2430 -0.2419
 6714TIP3    H144337   6.508   0.828   6.509 -0.1661 -1.4707  0.2131
 6714TIP3    H244338   6.435   0.847   6.377 -0.7439 -1.4912  0.5235
 6715TIP3   OH244339   7.651   0.003   5.468  0.1636 -0.2349  0.3089
 6715TIP3    H144340   7.621   0.035   5.382 -1.1799 -0.7088  0.5768
 6715TIP3    H244341   7.719   0.065   5.493 -0.0070  0.4118 -0.7234
 6716TIP3   OH244342   7.828   4.906   5.608  0.3856  0.0646  0.8032
 6716TIP3    H144343   7.843   4.953   5.526  1.5335 -0.4670  0.6836
 6716TIP3    H244344   7.777   4.966   5.662 -2.2852 -0.3559 -1.0409
 6717TIP3   OH244345   5.586   4.186   6.213  0.0946 -0.4850 -0.1091
 6717TIP3    H144346   5.504   4.190   6.262 -0.2384  0.1285 -0.7017
 6717TIP3    H244347   5.612   4.277   6.201  0.9342 -0.6804  0.1879
 6718TIP3   OH244348   5.904   8.644   5.101  0.3544 -0.4321 -0.2285
 6718TIP3    H144349   5.932   8.593   5.177  1.0944  1.0715  0.5591
 6718TIP3    H244350   5.814   8.669   5.121  0.7162  0.4101  0.4564
 6719TIP3   OH244351   9.177   8.368   4.757  0.1084 -0.0470 -0.0228
 6719TIP3    H144352   9.120   8.292   4.769 -1.3611  0.3917 -3.0432
 6719TIP3    H244353   9.121   8.443   4.779  0.4929  0.2756 -0.1363
 6720TIP3   OH244354   8.603   2.499   5.868  0.6480  0.2659  0.5591
 6720TIP3    H144355   8.678   2.518   5.925  1.4974  0.1584 -0.4973
 6720TIP3    H244356   8.586   2.581   5.822  1.3330 -0.2106 -0.5826
 6721TIP3   OH244357   4.007   0.240   5.738 -0.1180 -0.1613 -0.0136
 6721TIP3    H144358   4.009   0.332   5.712  0.3113 -0.0151  0.5387
 6721TIP3    H244359   4.099   0.212   5.732 -0.1179 -0.3114  0.6809
 6722TIP3   OH244360   4.587   5.174   6.379  0.1611  0.2569 -0.4404
 6722TIP3    H144361   4.612   5.084   6.399  0.4298  0.5246  0.5164
 6722TIP3    H244362   4.532   5.167   6.301  1.2386 -0.5874 -1.1505
 6723TIP3   OH244363   6.036   5.957   5.459  0.3342  0.2585 -0.4447
 6723TIP3    H144364   6.037   5.877   5.407  1.2178  0.7963 -1.2751
 6723TIP3    H244365   5.972   6.014   5.416  0.7550  0.5403 -0.7042
 6724TIP3   OH244366   8.930   8.373   6.046 -0.2190  0.8428 -0.0119
 6724TIP3    H144367   8.884   8.356   6.129 -1.2616  0.7681 -0.5906
 6724TIP3    H244368   9.016   8.405   6.073 -0.0182 -0.5266  1.0958
 6725TIP3   OH244369   0.312   7.585   6.199  0.1079  0.1144 -0.1906
 6725TIP3    H144370   0.324   7.628   6.115  0.2746 -0.2416 -0.3529
 6725TIP3    H244371   0.325   7.492   6.180 -0.2650 -0.0096  0.1479
 6726TIP3   OH244372   5.642   5.919   5.173 -0.4124 -0.2334  0.2134
 6726TIP3    H144373   5.587   5.997   5.165  1.6742  1.1947 -0.9848
 6726TIP3    H244374   5.625   5.888   5.262 -1.7207  1.2675  0.5396
 6727TIP3   OH244375   7.178   7.421   6.130  0.2470  0.0060 -0.2196
 6727TIP3    H144376   7.227   7.352   6.086  1.0551  1.0027 -0.9108
 6727TIP3    H244377   7.211   7.503   6.093 -1.2828  0.7503 -0.0445
 6728TIP3   OH244378   4.644   0.676   5.829  0.4595 -0.4018 -0.4280
 6728TIP3    H144379   4.606   0.588   5.822  2.8103 -1.5100 -0.2127
 6728TIP3    H244380   4.708   0.669   5.899  1.7308  1.0939 -1.3892
 6729TIP3   OH244381   8.167   8.271   5.419  0.7790 -0.2015  0.6452
 6729TIP3    H144382   8.138   8.228   5.499  0.5865  1.5835  1.5838
 6729TIP3    H244383   8.089   8.319   5.388  1.5022  1.0978  0.7673
 6730TIP3   OH244384   9.198   0.957   5.636  0.0692  0.2978 -0.4328
 6730TIP3    H144385   9.216   0.910   5.717  3.5371 -0.9890 -1.7287
 6730TIP3    H244386   9.144   0.898   5.584  0.4514 -0.2372 -0.2261
 6731TIP3   OH244387   8.644   6.483   5.847 -0.0545 -0.1966 -0.5218
 6731TIP3    H144388   8.731   6.510   5.876 -1.2342  1.1832  2.0798
 6731TIP3    H244389   8.652   6.474   5.752  2.7675  0.3861 -0.4213
 6732TIP3   OH244390   5.397   1.616   5.533 -0.3181 -0.0714 -0.0855
 6732TIP3    H144391   5.383   1.543   5.594  1.7891  0.4246  1.0853
 6732TIP3    H244392   5.415   1.574   5.449 -0.1003 -0.8671  0.3540
 6733TIP3   OH244393   2.150   6.429   6.320 -0.0811 -0.4085  0.6328
 6733TIP3    H144394   2.126   6.507   6.369 -2.5733 -0.7431  0.1201
 6733TIP3    H244395   2.226   6.393   6.366 -0.7709  0.6425  2.7174
 6734TIP3   OH244396   5.472   4.847   5.489 -0.4889 -0.4706 -0.2437
 6734TIP3    H144397   5.383   4.859   5.525 -0.1997 -1.1883  0.7831
 6734TIP3    H244398   5.489   4.753   5.502 -0.3017 -0.7358 -2.1902
 6735TIP3   OH244399   1.484   6.405   4.662 -0.2167 -0.4081  0.0492
 6735TIP3    H144400   1.486   6.472   4.594 -0.5221  0.5511  0.9584
 6735TIP3    H244401   1.576   6.387   4.681 -0.1329 -0.4060 -0.3474
 6736TIP3   OH244402   2.116   4.698   5.548 -0.0861  0.1874 -0.0799
 6736TIP3    H144403   2.080   4.757   5.614  0.5859 -1.1462  1.5288
 6736TIP3    H244404   2.211   4.714   5.550 -0.1537  1.1573 -1.8033
 6737TIP3   OH244405   6.984   8.830   5.051 -0.4678 -0.3402  0.3511
 6737TIP3    H144406   6.893   8.861   5.049 -0.1396  0.6548  0.3652
 6737TIP3    H244407   7.032   8.900   5.095  0.5679 -0.1691 -1.0063
 6738TIP3   OH244408   0.652   6.199   5.916 -0.4539  0.4876 -0.3231
 6738TIP3    H144409   0.602   6.175   5.994  0.1980 -0.4490 -0.1687
 6738TIP3    H244410   0.587   6.220   5.850 -1.0286  0.2867  0.1758
 6739TIP3   OH244411   7.091   8.479   6.078 -0.1189 -0.2776  0.1599
 6739TIP3    H144412   7.050   8.469   5.992  1.3709 -1.1829 -0.4768
 6739TIP3    H244413   7.152   8.406   6.084  2.1938  1.5883  0.6139
 6740TIP3   OH244414   7.872   8.818   6.799  0.1447 -0.0047 -0.1064
 6740TIP3    H144415   7.947   8.824   6.858  0.4906 -1.1356 -0.3941
 6740TIP3    H244416   7.816   8.751   6.837  0.0420 -0.2658 -0.7028
 6741TIP3   OH244417   7.638   5.779   6.419  0.2177  0.2133 -0.0108
 6741TIP3    H144418   7.682   5.860   6.392 -0.7285  0.5210 -0.6501
 6741TIP3    H244419   7.545   5.801   6.420 -0.1766 -1.2122 -1.4725
 6742TIP3   OH244420   4.218   4.272   5.342 -0.1315 -0.0764 -0.1512
 6742TIP3    H144421   4.207   4.207   5.273 -2.4441  0.3207 -0.2301
 6742TIP3    H244422   4.151   4.338   5.324 -0.5837  0.2287  2.2693
 6743TIP3   OH244423   0.786   1.864   5.680  0.0605  0.4836  0.1755
 6743TIP3    H144424   0.750   1.952   5.681 -4.0029 -0.9689 -0.9046
 6743TIP3    H244425   0.780   1.836   5.589 -0.9497 -1.6626  0.8344
 6744TIP3   OH244426   6.680   5.658   5.385  0.2587 -0.1811  0.1047
 6744TIP3    H144427   6.759   5.690   5.341 -0.4939  0.1966 -0.9995
 6744TIP3    H244428   6.689   5.563   5.383  0.3344 -0.1665 -0.7008
 6745TIP3   OH244429   0.042   5.888   5.597  0.0408  0.1505  0.5991
 6745TIP3    H144430  -0.028   5.857   5.654 -1.1721  1.2970 -0.2082
 6745TIP3    H244431   0.044   5.825   5.525 -0.0468  0.0350  0.6962
 6746TIP3   OH244432   3.584   8.762   5.755 -0.0894 -0.0973  0.0740
 6746TIP3    H144433   3.567   8.853   5.779 -0.1098  0.5778 -2.2129
 6746TIP3    H244434   3.673   8.764   5.717 -0.1229 -1.0080 -0.0789
 6747TIP3   OH244435   1.245   0.327   6.224  0.6650 -0.5398  0.6291
 6747TIP3    H144436   1.266   0.281   6.305 -0.7591 -1.6412  0.3998
 6747TIP3    H244437   1.284   0.274   6.155 -0.7639 -1.3178  0.3832
 6748TIP3   OH244438   2.557   6.826   5.830  0.1624 -0.5017 -0.1631
 6748TIP3    H144439   2.582   6.881   5.904  0.4773  0.2174 -0.7853
 6748TIP3    H244440   2.618   6.752   5.833 -0.1691 -0.7599  0.5901
 6749TIP3   OH244441   4.752   1.950   5.640 -0.2536  0.2327 -0.2940
 6749TIP3    H144442   4.825   1.947   5.578  1.0131  1.1422  1.0879
 6749TIP3    H244443   4.768   2.029   5.692  0.8483 -2.3185  3.6373
 6750TIP3   OH244444   5.211   8.750   6.206 -0.0842 -0.0981 -0.1893
 6750TIP3    H144445   5.131   8.741   6.258  0.6465  1.8295  1.3547
 6750TIP3    H244446   5.271   8.685   6.243  0.2893  0.9821  1.1473
 6751TIP3   OH244447   5.738   0.045   5.478  0.3251 -0.2223 -0.1939
 6751TIP3    H144448   5.779  -0.008   5.546 -0.7428 -0.6356  0.1423
 6751TIP3    H244449   5.705  -0.018   5.414 -0.1254  0.0724 -0.2620
 6752TIP3   OH244450   1.115   2.960   6.526  0.4046  0.3708  0.0703
 6752TIP3    H144451   1.036   3.015   6.520 -0.8447 -1.4474 -1.1755
 6752TIP3    H244452   1.110   2.919   6.612  0.1993  0.5633  0.1496
 6753TIP3   OH244453   0.766   1.851   6.610 -0.0469 -0.3631 -0.1117
 6753TIP3    H144454   0.726   1.820   6.692  0.8137 -1.2256 -0.0021
 6753TIP3    H244455   0.701   1.911   6.573 -0.6965 -0.4037  0.9149
 6754TIP3   OH244456   8.234   7.941   5.410  0.2047 -0.3098 -0.3088
 6754TIP3    H144457   8.302   7.879   5.383  0.2029 -0.9880  1.1567
 6754TIP3    H244458   8.186   7.960   5.329  0.2544 -2.1566 -0.8302
 6755TIP3   OH244459   3.337   3.941   5.154 -0.1812 -0.2745 -0.0394
 6755TIP3    H144460   3.368   4.032   5.152  0.0767 -0.3611 -1.8920
 6755TIP3    H244461   3.268   3.938   5.088  0.5455 -1.6528 -0.7743
 6756TIP3   OH244462   4.265   7.150   5.035  0.5877  0.6438  0.3089
 6756TIP3    H144463   4.265   7.054   5.030  1.7308  0.6671 -0.3611
 6756TIP3    H244464   4.242   7.169   5.126 -0.0764 -0.2533  0.3455
 6757TIP3   OH244465   0.507   3.349   5.663 -0.7782 -0.0997  0.0765
 6757TIP3    H144466   0.453   3.282   5.705 -1.4347  0.4508  0.1349
 6757TIP3    H244467   0.585   3.355   5.718 -1.5677  0.5129  1.1739
 6758TIP3   OH244468   1.244   7.643   5.577  0.2240 -0.1210 -0.1932
 6758TIP3    H144469   1.248   7.683   5.490 -2.8065 -1.2151 -0.9438
 6758TIP3    H244470   1.228   7.551   5.560 -0.5897 -0.3215  1.5116
 6759TIP3   OH244471   3.172   0.631   6.858 -0.5793 -0.1528  0.0372
 6759TIP3    H144472   3.196   0.632   6.765  0.0948  0.2907  0.2054
 6759TIP3    H244473   3.091   0.580   6.861 -1.2460  0.7686 -0.9528
 6760TIP3   OH244474   8.114   7.959   6.763 -0.5566  0.1018  0.5294
 6760TIP3    H144475   8.199   7.983   6.800  0.1790 -0.1907 -0.8965
 6760TIP3    H244476   8.097   7.871   6.796 -1.0531  0.7189  2.0240
 6761TIP3   OH244477   1.659   5.909   5.357 -0.2610  0.4563 -0.1468
 6761TIP3    H144478   1.596   5.931   5.288  0.2465 -1.1328 -1.1723
 6761TIP3    H244479   1.652   5.814   5.367 -0.4097  0.6466  2.1272
 6762TIP3   OH244480   1.996   4.600   5.326 -0.2381  0.4110 -0.5435
 6762TIP3    H144481   2.031   4.622   5.412  0.5186 -0.8522 -0.4901
 6762TIP3    H244482   1.901   4.604   5.337 -0.2067 -1.2824  0.8344
 6763TIP3   OH244483   0.464   8.668   6.962 -0.7451  0.8231  0.5123
 6763TIP3    H144484   0.476   8.712   6.878 -0.9923  0.6010  0.3588
 6763TIP3    H244485   0.543   8.616   6.973 -0.9557  0.4212  0.1501
 6764TIP3   OH244486   9.200   2.132   5.122  0.1399 -0.5846  0.2219
 6764TIP3    H144487   9.284   2.173   5.101 -0.3516  0.5475  0.3704
 6764TIP3    H244488   9.219   2.073   5.194  0.5411  0.8483  1.3308
 6765TIP3   OH244489   4.842   6.855   6.955 -0.0420  0.2464 -0.0282
 6765TIP3    H144490   4.926   6.854   6.909 -0.1877 -1.0253 -0.3199
 6765TIP3    H244491   4.780   6.820   6.891 -0.2540 -1.5679  1.0902
 6766TIP3   OH244492   3.417   0.967   6.132  0.2035  0.1871  0.2666
 6766TIP3    H144493   3.389   0.883   6.168  0.8954  0.3179  1.1427
 6766TIP3    H244494   3.468   1.008   6.202  0.0951  1.2306 -0.2392
 6767TIP3   OH244495   4.749   5.014   5.233  0.0481 -0.3146 -0.1434
 6767TIP3    H144496   4.689   4.940   5.226 -1.5629  0.8107  1.1491
 6767TIP3    H244497   4.701   5.079   5.283  1.0496  2.0013 -2.0316
 6768TIP3   OH244498   3.689   6.605   5.204  0.0100 -0.4688 -0.1316
 6768TIP3    H144499   3.621   6.542   5.179 -1.1149 -0.0332  1.6856
 6768TIP3    H244500   3.769   6.571   5.163 -1.0971 -1.4842 -1.5715
 6769TIP3   OH244501   8.610   2.230   6.536 -0.1145 -0.2834  0.0691
 6769TIP3    H144502   8.556   2.174   6.593 -0.6004 -0.0156 -0.1206
 6769TIP3    H244503   8.690   2.246   6.586  1.1602 -3.1567 -0.7910
 6770TIP3   OH244504   0.387   4.563   6.390 -0.4060  0.2787  0.4934
 6770TIP3    H144505   0.328   4.638   6.399 -1.1280 -0.0877 -0.9280
 6770TIP3    H244506   0.390   4.525   6.478  0.2913  2.1634  1.3507
 6771TIP3   OH244507   6.804   3.546   5.332  0.2945 -0.2775  0.4617
 6771TIP3    H144508   6.895   3.558   5.358  0.1592  0.6865  0.5199
 6771TIP3    H244509   6.753   3.585   5.403 -0.1089  1.1993 -0.5749
 6772TIP3   OH244510   7.582   5.548   5.394 -0.1789  0.6903  0.3183
 6772TIP3    H144511   7.563   5.527   5.485  1.2312 -1.2650  0.2336
 6772TIP3    H244512   7.537   5.480   5.343  0.9817  0.3162 -0.2608
 6773TIP3   OH244513   4.147   5.256   5.292 -0.1368  0.5863  0.0350
 6773TIP3    H144514   4.234   5.296   5.288  2.0278 -3.7382 -2.9490
 6773TIP3    H244515   4.150   5.200   5.370 -1.0965  1.7387  0.9670
 6774TIP3   OH244516   7.694   2.601   5.825 -0.4219  0.3921  0.3989
 6774TIP3    H144517   7.695   2.613   5.920  0.6324 -2.0168  0.7521
 6774TIP3    H244518   7.785   2.608   5.798 -0.6393  0.4172 -0.3689
 6775TIP3   OH244519   5.448   4.065   6.550  0.2880 -0.2469 -0.0344
 6775TIP3    H144520   5.429   4.159   6.541  0.0237 -0.2235  0.6610
 6775TIP3    H244521   5.540   4.062   6.577  0.1102 -0.1488  0.5962
 6776TIP3   OH244522   3.733   9.149   6.177 -0.0850  0.1282  0.3571
 6776TIP3    H144523   3.750   9.186   6.264  0.2666  0.1346  0.2875
 6776TIP3    H244524   3.819   9.140   6.138 -0.2431  0.1061  0.0131
 6777TIP3   OH244525   8.796   7.961   6.576  0.1944  0.2703  0.0409
 6777TIP3    H144526   8.805   7.872   6.541  2.1596  0.4221  0.0735
 6777TIP3    H244527   8.707   7.986   6.552  0.0030 -1.2548 -1.0471
 6778TIP3   OH244528   5.271   6.561   6.400 -0.3782  0.2638  0.3808
 6778TIP3    H144529   5.257   6.609   6.482 -0.0061 -0.8280  1.1074
 6778TIP3    H244530   5.188   6.517   6.383 -0.2947  0.0786  0.4513
 6779TIP3   OH244531   4.055   8.555   5.184  0.1088  0.6418  0.3987
 6779TIP3    H144532   4.003   8.605   5.246 -1.2856  0.5283 -0.6307
 6779TIP3    H244533   4.094   8.621   5.126  0.3474  0.6707  0.5895
 6780TIP3   OH244534   8.053   8.370   6.822  0.3864  0.7201 -0.2437
 6780TIP3    H144535   8.128   8.311   6.827 -0.2396 -0.2339 -1.6405
 6780TIP3    H244536   8.018   8.373   6.912  0.4898 -0.9722 -0.1237
 6781TIP3   OH244537   2.797   8.961   6.828 -0.1421  0.0412  0.0782
 6781TIP3    H144538   2.737   8.923   6.764 -2.0183 -0.1566  1.8733
 6781TIP3    H244539   2.858   8.890   6.849  0.8924  0.2831 -1.8547
 6782TIP3   OH244540   2.188   1.403   5.224  0.1643 -0.9173  0.0829
 6782TIP3    H144541   2.124   1.398   5.153 -1.9751 -0.8354  1.8887
 6782TIP3    H244542   2.260   1.455   5.188 -0.6174 -1.2742 -2.1441
 6783TIP3   OH244543   6.979   3.047   6.639 -0.3925  0.0386 -0.0782
 6783TIP3    H144544   6.946   3.112   6.577 -0.7080  0.3542  0.4189
 6783TIP3    H244545   7.066   3.079   6.665 -1.3438  1.3272  1.6835
 6784TIP3   OH244546   8.052   2.053   5.538 -0.0737 -0.6039 -0.0352
 6784TIP3    H144547   8.035   2.085   5.450 -0.2441  1.4883  0.7084
 6784TIP3    H244548   8.123   2.108   5.570  1.6508 -2.8783  0.3519
 6785TIP3   OH244549   2.024   6.690   6.224  0.2504  0.1946  0.4768
 6785TIP3    H144550   2.099   6.748   6.212  0.3703 -0.1655 -0.6222
 6785TIP3    H244551   2.059   6.602   6.210 -0.0602 -0.1198  1.5307
 6786TIP3   OH244552   7.513   2.052   5.886 -0.1259  0.1710 -0.2445
 6786TIP3    H144553   7.491   2.139   5.916  0.1255 -0.2938  1.3745
 6786TIP3    H244554   7.457   2.037   5.810 -0.3449  1.6260 -0.3844
 6787TIP3   OH244555   6.841   4.350   5.284  0.4018  0.0465 -0.0844
 6787TIP3    H144556   6.854   4.437   5.322  1.9536 -1.1382  2.4148
 6787TIP3    H244557   6.927   4.308   5.292 -0.4411 -1.8830 -0.7097
 6788TIP3   OH244558   4.477   8.871   5.260 -0.4989  0.2834 -0.3435
 6788TIP3    H144559   4.419   8.943   5.237 -1.1667 -0.1036  0.1057
 6788TIP3    H244560   4.420   8.804   5.298  0.0855 -0.5503 -0.8836
 6789TIP3   OH244561   0.384   7.724   6.769 -0.2093  0.5030 -0.5415
 6789TIP3    H144562   0.382   7.815   6.798 -0.3627  0.8507 -1.6116
 6789TIP3    H244563   0.309   7.684   6.813  0.1400  0.7658  0.3087
 6790TIP3   OH244564   8.771   1.569   6.569 -0.2221  0.2886  0.2869
 6790TIP3    H144565   8.803   1.523   6.646 -1.3609 -0.6865  0.2035
 6790TIP3    H244566   8.849   1.587   6.516  0.6381  1.3717  1.8484
 6791TIP3   OH244567   0.224   8.697   6.013 -0.6243 -0.2096 -0.3412
 6791TIP3    H144568   0.305   8.650   6.031 -0.1835  1.3013  1.9753
 6791TIP3    H244569   0.188   8.653   5.936  0.4990 -3.3086  0.7465
 6792TIP3   OH244570   9.160   3.791   5.219  0.4162 -0.2676  0.4065
 6792TIP3    H144571   9.091   3.839   5.265 -1.0336 -0.3297 -1.5789
 6792TIP3    H244572   9.142   3.699   5.237  0.0166 -0.2800 -0.0466
 6793TIP3   OH244573   4.913   9.143   5.929 -0.2282 -1.1589 -0.3999
 6793TIP3    H144574   4.825   9.113   5.954 -0.4929 -1.1634 -1.3188
 6793TIP3    H244575   4.916   9.235   5.956 -0.9258 -0.8353 -1.3678
 6794TIP3   OH244576   2.443   8.989   5.319 -0.1345  0.1037 -0.1995
 6794TIP3    H144577   2.463   9.031   5.235 -0.8540  0.8674  0.0074
 6794TIP3    H244578   2.500   8.911   5.321 -0.8261 -0.4805 -1.8331
 6795TIP3   OH244579   2.892   2.030   6.200  0.3433 -0.7229  0.4835
 6795TIP3    H144580   2.951   1.999   6.269 -0.3406 -0.1390  1.3642
 6795TIP3    H244581   2.805   1.999   6.228  0.2307 -1.6606 -0.8399
 6796TIP3   OH244582   7.502   6.075   6.313 -0.3819 -0.2572 -0.3441
 6796TIP3    H144583   7.503   6.039   6.225 -0.2578  1.1354 -0.9314
 6796TIP3    H244584   7.594   6.087   6.336 -0.4176  2.2940 -1.2908
 6797TIP3   OH244585   1.693   6.452   4.915  0.4215  0.2078  0.8503
 6797TIP3    H144586   1.771   6.412   4.877  0.9654  1.1500  0.9455
 6797TIP3    H244587   1.682   6.534   4.866 -0.1338  0.3912  1.2736
 6798TIP3   OH244588   9.063   4.550   5.128 -0.4471 -0.2355  0.2785
 6798TIP3    H144589   9.112   4.582   5.053 -0.1951 -0.3512  0.3912
 6798TIP3    H244590   9.125   4.494   5.175 -0.1103  1.0059  1.3917
 6799TIP3   OH244591   5.546   6.649   5.755  0.0782  0.0111  0.2392
 6799TIP3    H144592   5.571   6.640   5.663 -1.4429 -0.4634 -0.1620
 6799TIP3    H244593   5.528   6.560   5.784 -0.7474  0.2804  0.5978
 6800TIP3   OH244594   8.347   1.199   5.904  0.2990  0.3967 -0.3619
 6800TIP3    H144595   8.252   1.195   5.916  0.1410 -0.4615 -1.7327
 6800TIP3    H244596   8.377   1.265   5.967 -1.2241  0.8370 -0.0783
 6801TIP3   OH244597   3.360   5.200   5.058 -0.0494 -0.5573  0.5093
 6801TIP3    H144598   3.362   5.272   5.121 -0.3202 -0.2064  0.1172
 6801TIP3    H244599   3.447   5.200   5.019  0.5585 -1.5673  1.7497
 6802TIP3   OH244600   5.184   3.403   5.777  0.0235 -0.1779  0.0392
 6802TIP3    H144601   5.238   3.478   5.805  0.7573 -0.9032  0.6097
 6802TIP3    H244602   5.095   3.428   5.802  0.4686 -0.1661  1.7141
 6803TIP3   OH244603   1.700   8.370   5.791 -0.1475  0.1596  0.4419
 6803TIP3    H144604   1.696   8.399   5.700 -0.3544 -1.4002 -0.0808
 6803TIP3    H244605   1.618   8.402   5.830 -2.2576 -2.7927 -1.1390
 6804TIP3   OH244606   0.769   2.803   5.395 -0.2984 -0.1527 -0.0213
 6804TIP3    H144607   0.862   2.826   5.385 -0.8253  2.0419 -0.5246
 6804TIP3    H244608   0.749   2.749   5.319 -0.0957  1.8733 -1.5913
 6805TIP3   OH244609   1.116   2.694   5.644  0.4093 -0.2291 -0.5148
 6805TIP3    H144610   1.123   2.706   5.738  1.3358  0.6454 -0.6833
 6805TIP3    H244611   1.207   2.695   5.613  0.0685  0.3660 -1.5228
 6806TIP3   OH244612   6.693   8.960   6.426 -0.0818 -0.1463 -0.0333
 6806TIP3    H144613   6.705   8.996   6.514 -1.7206 -0.7860  0.4915
 6806TIP3    H244614   6.763   8.895   6.417 -1.0460 -1.5253  1.6332
 6807TIP3   OH244615   1.927   6.509   5.166 -0.2159  0.1462  0.1213
 6807TIP3    H144616   1.966   6.427   5.135  0.0854  0.6299 -0.8302
 6807TIP3    H244617   1.899   6.553   5.086 -1.6186  0.3638  0.7081
 6808TIP3   OH244618   2.662   1.228   6.892  0.1354 -0.0304  0.1471
 6808TIP3    H144619   2.630   1.142   6.863  1.5838 -0.0474 -1.6166
 6808TIP3    H244620   2.751   1.210   6.923  0.2570  0.7498  0.2629
 6809TIP3   OH244621   8.742   7.374   6.032 -0.0246  0.0551  0.5700
 6809TIP3    H144622   8.743   7.384   6.127  2.5391 -0.3131  0.6406
 6809TIP3    H244623   8.819   7.421   6.001 -0.5729 -0.1758 -1.3028
 6810TIP3   OH244624   9.187   5.248   5.190 -0.0590  0.4407 -0.3052
 6810TIP3    H144625   9.202   5.330   5.236 -0.1325 -0.5677  1.6227
 6810TIP3    H244626   9.259   5.191   5.217  0.1837 -0.0322 -1.8695
 6811TIP3   OH244627   8.640   3.715   6.915 -0.8011 -0.3431 -0.1527
 6811TIP3    H144628   8.670   3.648   6.976 -1.8720 -0.1348  0.6193
 6811TIP3    H244629   8.571   3.762   6.962 -0.4130  0.9869 -0.8552
 6812TIP3   OH244630   0.677   8.535   5.817  0.3911  0.3067 -0.2161
 6812TIP3    H144631   0.652   8.486   5.739 -0.0768  0.1350  0.0392
 6812TIP3    H244632   0.763   8.572   5.796  0.7372 -0.6030 -0.4194
 6813TIP3   OH244633   6.999   1.718   6.828 -0.4569 -0.1991 -0.2133
 6813TIP3    H144634   7.053   1.673   6.893  0.9009  0.9963 -0.4339
 6813TIP3    H244635   6.911   1.721   6.866  0.3793  0.8376  1.8112
 6814TIP3   OH244636   3.197   4.486   5.882 -0.7948  0.0794 -0.4718
 6814TIP3    H144637   3.220   4.579   5.886 -1.6518  0.2853 -0.2826
 6814TIP3    H244638   3.253   4.451   5.812 -1.2636  0.9625 -1.3105
 6815TIP3   OH244639   8.559   0.797   6.929  0.0953 -0.0678 -0.6994
 6815TIP3    H144640   8.647   0.766   6.949  0.0962  0.9100  0.9823
 6815TIP3    H244641   8.573   0.878   6.879  0.1882  0.3806  0.0308
 6816TIP3   OH244642   7.318   1.442   6.701  0.3936  0.1209  0.3432
 6816TIP3    H144643   7.396   1.441   6.757 -0.5168 -0.7095  1.6326
 6816TIP3    H244644   7.287   1.532   6.704  0.2096  0.0260  1.3961
 6817TIP3   OH244645   0.782   2.184   5.626  0.1475  0.0082  0.0307
 6817TIP3    H144646   0.740   2.168   5.542 -0.9917 -3.6221  1.0888
 6817TIP3    H244647   0.710   2.201   5.686  0.4291 -2.1079  1.0742
 6818TIP3   OH244648   2.751   4.714   6.684 -0.4465 -0.0884  0.2429
 6818TIP3    H144649   2.712   4.646   6.628  0.2766  0.4251 -0.9309
 6818TIP3    H244650   2.687   4.785   6.684 -1.1464 -0.6922  1.3676
 6819TIP3   OH244651   0.492   5.969   5.551  0.3289 -0.4901 -0.0605
 6819TIP3    H144652   0.584   5.990   5.538  0.4250  0.0531  1.3677
 6819TIP3    H244653   0.467   6.017   5.630 -1.3809 -0.0078 -0.8397
 6820TIP3   OH244654   7.917   0.950   5.927  0.6090  0.4216  0.1613
 6820TIP3    H144655   7.918   0.954   5.831 -0.1953  1.9660  0.1782
 6820TIP3    H244656   7.838   0.901   5.948  0.7116  0.2022  0.0385
 6821TIP3   OH244657   6.082   0.272   4.960 -0.6165  0.5000  0.4630
 6821TIP3    H144658   6.177   0.275   4.967 -0.7409  0.7362  3.2599
 6821TIP3    H244659   6.062   0.183   4.932  0.4067  0.3728  0.1090
 6822TIP3   OH244660   0.799   4.298   5.221  0.0045  0.3645 -0.0633
 6822TIP3    H144661   0.883   4.254   5.229  0.7263  1.9126  1.4783
 6822TIP3    H244662   0.735   4.227   5.221  1.2293 -0.7739  0.2915
 6823TIP3   OH244663   1.930   2.038   6.479  0.2523  0.7068 -0.9148
 6823TIP3    H144664   2.001   1.980   6.453 -0.5719  0.0975 -1.8777
 6823TIP3    H244665   1.853   1.981   6.487 -0.0952  1.3088  0.3442
 6824TIP3   OH244666   0.584   4.493  10.210 -0.0124  0.1574  0.5508
 6824TIP3    H144667   0.615   4.431  10.145 -0.2843  0.3080  0.2754
 6824TIP3    H244668   0.571   4.574  10.162 -1.9383 -0.1912  0.3997
 6825TIP3   OH244669   5.648   2.703   5.148 -0.0068 -0.5443 -0.0337
 6825TIP3    H144670   5.588   2.629   5.147  0.4469 -0.9099 -0.3173
 6825TIP3    H244671   5.734   2.665   5.129  0.1077  0.1546 -0.9482
 6826TIP3   OH244672   8.032   8.931   5.524 -0.1453 -0.3427  0.6449
 6826TIP3    H144673   8.106   8.955   5.469 -1.4253  1.4440 -0.4143
 6826TIP3    H244674   7.964   8.905   5.463 -2.0735  2.9852  1.1081
 6827TIP3   OH244675   8.643   4.411   5.106  0.5504 -0.0190  0.2005
 6827TIP3    H144676   8.588   4.439   5.179  1.2384  0.1543  0.6622
 6827TIP3    H244677   8.679   4.492   5.070  0.3332 -0.1145 -0.2473
 6828TIP3   OH244678   8.323   6.573   5.493  0.1907 -0.3677 -0.3188
 6828TIP3    H144679   8.329   6.559   5.398  1.5565  0.6005 -0.4121
 6828TIP3    H244680   8.355   6.492   5.531  1.0839 -0.2177 -0.7239
 6829TIP3   OH244681   4.879   0.163   6.052  0.3152 -0.6045  0.0644
 6829TIP3    H144682   4.923   0.152   6.137 -0.4427  0.0425  0.5557
 6829TIP3    H244683   4.810   0.227   6.069 -1.6016 -2.4378 -0.3740
 6830TIP3   OH244684   2.446   1.318   5.436  0.1864 -0.3465 -0.4325
 6830TIP3    H144685   2.434   1.374   5.512  1.6631 -0.1946 -0.2662
 6830TIP3    H244686   2.539   1.292   5.440 -0.2392 -2.1144 -0.9606
 6831TIP3   OH244687   4.281   7.346   5.779  0.4226  0.4421  0.2143
 6831TIP3    H144688   4.198   7.301   5.766  1.8300 -2.5764  0.6832
 6831TIP3    H244689   4.316   7.358   5.691 -0.7350  2.3962 -0.0411
 6832TIP3   OH244690   6.083   6.725   6.632 -0.7379  0.1947 -0.0383
 6832TIP3    H144691   6.084   6.794   6.697 -0.4620 -1.7148  2.1205
 6832TIP3    H244692   6.009   6.747   6.575 -0.9608  1.9662  0.8678
 6833TIP3   OH244693   8.612   5.073   6.084  0.0116  0.2274 -0.6810
 6833TIP3    H144694   8.548   5.014   6.044  0.2867  0.4718 -1.5017
 6833TIP3    H244695   8.687   5.070   6.025 -0.4618  2.4157 -1.4662
 6834TIP3   OH244696   0.865   3.281   5.935  0.4406  0.1387 -0.1726
 6834TIP3    H144697   0.890   3.361   5.981 -2.4871 -0.3203  2.5976
 6834TIP3    H244698   0.900   3.210   5.989  1.0287 -0.4851 -1.3291
 6835TIP3   OH244699   1.549   5.899   6.949 -0.4052 -0.5718  0.4037
 6835TIP3    H144700   1.603   5.841   6.896 -1.1116 -1.1340  0.2829
 6835TIP3    H244701   1.603   5.977   6.962  0.3432 -1.0266  0.1014
 6836TIP3   OH244702   6.826   1.247   6.333  0.1822  0.0760 -0.1890
 6836TIP3    H144703   6.804   1.158   6.307 -1.3353  0.5717 -0.6698
 6836TIP3    H244704   6.789   1.302   6.264  1.2455  1.0792  0.0165
 6837TIP3   OH244705   8.834   0.413   5.064  0.3107  0.0037  0.1961
 6837TIP3    H144706   8.859   0.321   5.058 -1.5325 -0.6009  1.1559
 6837TIP3    H244707   8.895   0.451   5.127  1.9570 -0.1805 -1.1972
 6838TIP3   OH244708   8.516   4.492   6.424  0.0390  0.2618 -0.0648
 6838TIP3    H144709   8.456   4.419   6.441 -0.7404  0.8153 -0.3989
 6838TIP3    H244710   8.562   4.506   6.507 -0.7169  0.2175  0.3629
 6839TIP3   OH244711   7.109   7.866   5.246 -0.5065 -0.1262 -0.0485
 6839TIP3    H144712   7.152   7.951   5.253 -0.7607 -0.0300  0.3304
 6839TIP3    H244713   7.017   7.886   5.234 -0.6893 -0.3592  0.9201
 6840TIP3   OH244714   0.593   0.958   5.473 -0.1406 -0.3167 -0.6296
 6840TIP3    H144715   0.582   0.941   5.567  1.4070 -1.4427 -0.6207
 6840TIP3    H244716   0.544   1.039   5.458 -1.2985 -0.6751  0.9253
 6841TIP3   OH244717   2.352   3.191   6.279  0.3284  0.0929 -0.0653
 6841TIP3    H144718   2.426   3.208   6.220  0.9190 -1.0796  0.2972
 6841TIP3    H244719   2.287   3.147   6.224 -0.4834  1.8633 -0.5876
 6842TIP3   OH244720   1.827   3.099   6.545 -0.0645 -0.1038  0.2913
 6842TIP3    H144721   1.894   3.077   6.610 -0.4682  0.5854  0.9619
 6842TIP3    H244722   1.788   3.015   6.522  0.7851 -0.4722  0.1496
 6843TIP3   OH244723   5.693   3.577   5.281 -0.4444  0.0247  0.0546
 6843TIP3    H144724   5.734   3.643   5.337 -0.2169  0.9003 -1.1233
 6843TIP3    H244725   5.724   3.597   5.193 -1.3947 -0.8716 -0.5076
 6844TIP3   OH244726   1.774   8.879   6.237  0.5075  0.2049 -0.1032
 6844TIP3    H144727   1.800   8.840   6.321 -0.8796 -2.7587 -0.9083
 6844TIP3    H244728   1.845   8.856   6.178 -0.6075 -1.9038 -0.7331
 6845TIP3   OH244729   4.467   2.202   6.986  0.8147 -0.2398 -0.2248
 6845TIP3    H144730   4.398   2.262   7.015  0.7312 -0.0440 -0.8151
 6845TIP3    H244731   4.544   2.257   6.976  1.0932 -0.4714  0.5102
 6846TIP3   OH244732   3.814   3.965   6.719  0.2889 -0.3155 -0.0291
 6846TIP3    H144733   3.734   3.994   6.763  0.0981 -1.1663  0.2033
 6846TIP3    H244734   3.787   3.943   6.630  0.7525  1.8123 -0.7685
 6847TIP3   OH244735   6.909   0.214   5.620  0.3005  0.0737  0.3219
 6847TIP3    H144736   6.982   0.191   5.678 -0.2466 -1.8877  0.3064
 6847TIP3    H244737   6.922   0.159   5.543 -0.9885 -0.0579  0.1780
 6848TIP3   OH244738   6.373   1.461   5.591  0.1624 -0.6042 -0.2840
 6848TIP3    H144739   6.418   1.445   5.508  1.2531  1.8118 -0.2668
 6848TIP3    H244740   6.430   1.523   5.637 -1.3285 -0.4460  1.4566
 6849TIP3   OH244741   5.313   0.075   5.886 -0.5294  0.0216  0.7985
 6849TIP3    H144742   5.340   0.030   5.967  1.0725 -2.5329 -0.9967
 6849TIP3    H244743   5.342   0.165   5.899  2.4617 -0.9558  1.9815
 6850TIP3   OH244744   3.859   7.487   6.889 -0.2125 -0.7154  0.4500
 6850TIP3    H144745   3.852   7.430   6.965 -1.0646  0.5153  1.3518
 6850TIP3    H244746   3.924   7.553   6.914  0.3707 -0.9655 -0.3597
 6851TIP3   OH244747   2.819   4.050   6.013 -0.0684 -0.0155  0.1708
 6851TIP3    H144748   2.907   4.012   6.004  0.8002  1.1196  2.8624
 6851TIP3    H244749   2.801   4.047   6.107 -2.2987  1.1666 -0.1510
 6852TIP3   OH244750   6.630   6.871   6.193 -0.0681  0.2605 -0.1764
 6852TIP3    H144751   6.698   6.877   6.126 -1.5013 -2.9512 -2.1687
 6852TIP3    H244752   6.632   6.780   6.221 -3.2683  0.1442 -0.0346
 6853TIP3   OH244753   1.226   1.684   5.145  0.4683 -0.0181 -0.4278
 6853TIP3    H144754   1.243   1.745   5.073 -3.7069  2.4512  0.3151
 6853TIP3    H244755   1.167   1.619   5.106 -2.1952  1.5923  0.5875
 6854TIP3   OH244756   8.324   5.310   5.020 -0.2210  0.0426 -0.4768
 6854TIP3    H144757   8.314   5.312   5.115 -0.1459 -0.6836 -0.4488
 6854TIP3    H244758   8.283   5.228   4.993 -1.3421  0.8085 -1.2117
 6855TIP3   OH244759   3.617   1.716   5.182  0.2743 -0.0924 -0.1672
 6855TIP3    H144760   3.541   1.714   5.239  1.7806  0.8778  2.0335
 6855TIP3    H244761   3.648   1.807   5.186  1.3427 -0.3724 -1.2759
 6856TIP3   OH244762   8.108   1.191   6.076 -0.0537  0.1730 -0.3259
 6856TIP3    H144763   8.150   1.108   6.099 -0.4187  0.2727  0.7430
 6856TIP3    H244764   8.075   1.225   6.159  1.1920  2.0100 -0.5061
 6857TIP3   OH244765   8.356   0.608   5.161  0.7192 -0.0180  0.4412
 6857TIP3    H144766   8.292   0.656   5.213 -0.4414  1.6851 -2.2795
 6857TIP3    H244767   8.438   0.655   5.175  1.1050 -1.2204  2.6786
 6858TIP3   OH244768   6.570   7.593   6.093  0.0450  0.4859 -0.1759
 6858TIP3    H144769   6.483   7.563   6.066 -0.4085  0.2773  1.4101
 6858TIP3    H244770   6.578   7.680   6.055 -1.2171  0.8623  0.3477
 6859TIP3   OH244771   0.455   8.715   4.929 -0.3038 -0.4057 -0.2899
 6859TIP3    H144772   0.415   8.772   4.994 -0.9923 -0.5162 -0.6103
 6859TIP3    H244773   0.449   8.627   4.967  1.5699 -0.1964  0.6106
 6860TIP3   OH244774   6.201   0.643   5.668 -0.3965 -0.2263 -1.0670
 6860TIP3    H144775   6.153   0.560   5.668 -0.7427 -0.1027  1.0868
 6860TIP3    H244776   6.293   0.617   5.670 -0.5060 -0.6810  1.2607
 6861TIP3   OH244777   2.182   1.923   5.741  0.1820  0.0295  0.2199
 6861TIP3    H144778   2.121   1.883   5.803  1.6469 -2.6664  0.0707
 6861TIP3    H244779   2.258   1.947   5.796  0.6626 -0.4999 -0.2055
 6862TIP3   OH244780   2.201   6.976   6.743 -0.7793  0.3203 -0.2189
 6862TIP3    H144781   2.245   6.894   6.720 -0.3359  0.3445  0.4854
 6862TIP3    H244782   2.273   7.036   6.764 -1.1219  0.2936  1.1632
 6863TIP3   OH244783   7.548   3.469   6.142  0.6391 -0.2154  0.0638
 6863TIP3    H144784   7.583   3.416   6.071  0.7050 -0.0260 -0.0461
 6863TIP3    H244785   7.455   3.480   6.120  0.5217 -0.6672  0.3251
 6864TIP3   OH244786   7.331   5.490   6.388 -0.0825  0.2066 -0.0178
 6864TIP3    H144787   7.285   5.494   6.472 -1.2311  0.4187 -0.6388
 6864TIP3    H244788   7.285   5.423   6.339  0.9106 -0.2845 -0.3066
 6865TIP3   OH244789   7.468   5.801   5.665 -0.3229 -0.5049 -0.3947
 6865TIP3    H144790   7.521   5.827   5.741  0.0991 -0.5878 -0.6585
 6865TIP3    H244791   7.380   5.789   5.701 -0.0668 -0.8234  0.1441
 6866TIP3   OH244792   6.158   0.914   5.801 -0.6546 -0.1032 -0.2286
 6866TIP3    H144793   6.182   0.823   5.788  1.3691  0.0341  1.8287
 6866TIP3    H244794   6.241   0.962   5.791 -1.1000  1.1294  1.4890
 6867TIP3   OH244795   3.385   6.498   6.007 -0.0061  0.0448 -0.4992
 6867TIP3    H144796   3.304   6.507   6.056 -0.3845 -0.2276 -1.0551
 6867TIP3    H244797   3.373   6.417   5.957  0.8284 -0.2897 -0.1775
 6868TIP3   OH244798   6.029   0.034   5.403  0.0223  0.0439 -0.3544
 6868TIP3    H144799   5.946   0.074   5.376  0.5835  1.6345  0.1089
 6868TIP3    H244800   6.020  -0.059   5.382 -2.3959 -0.0804  0.9572
 6869TIP3   OH244801   8.558   7.880   6.282  0.2932 -0.3642 -0.0075
 6869TIP3    H144802   8.491   7.862   6.348 -0.3719 -1.0601 -0.8694
 6869TIP3    H244803   8.550   7.974   6.265  0.9131 -0.0316  1.3623
 6870TIP3   OH244804   2.461   8.134   5.902  0.3748  0.1825  0.0838
 6870TIP3    H144805   2.416   8.210   5.938 -1.8252 -1.0644  0.1538
 6870TIP3    H244806   2.418   8.059   5.944  1.6540 -1.1372 -0.8678
 6871TIP3   OH244807   0.259   1.700   5.439 -0.8705  0.4266  0.9830
 6871TIP3    H144808   0.187   1.692   5.376  0.7445 -2.0637 -0.7361
 6871TIP3    H244809   0.320   1.759   5.396  0.2755 -1.3460  0.0513
 6872TIP3   OH244810   7.536   3.049   5.231 -0.2260 -0.6122  0.2792
 6872TIP3    H144811   7.613   3.013   5.275 -0.0157  0.3008  0.6748
 6872TIP3    H244812   7.494   2.973   5.190  0.9749 -1.0989 -0.0872
 6873TIP3   OH244813   4.739   3.283   5.388  0.5653  0.3572  0.3847
 6873TIP3    H144814   4.780   3.368   5.403 -0.9154  0.9583  1.1933
 6873TIP3    H244815   4.671   3.301   5.322  2.4060 -0.8937 -2.0491
 6874TIP3   OH244816   2.136   8.281   6.181  0.2000  0.2255  0.2087
 6874TIP3    H144817   2.058   8.330   6.209 -0.0073  0.4953 -0.8084
 6874TIP3    H244818   2.207   8.321   6.231  0.0803  1.7944 -0.8015
 6875TIP3   OH244819   2.446   2.636   5.335  0.1330 -0.4764  0.1571
 6875TIP3    H144820   2.403   2.638   5.421 -0.3007 -0.7556 -0.0484
 6875TIP3    H244821   2.375   2.617   5.273 -0.1306  2.5088 -0.6332
 6876TIP3   OH244822   3.323   7.091   5.155  0.5606  0.5312  0.1013
 6876TIP3    H144823   3.384   7.079   5.227 -0.9378 -3.3042  1.0041
 6876TIP3    H244824   3.373   7.071   5.076  1.5949  2.3245  0.2616
 6877TIP3   OH244825   7.468   5.166   5.514 -0.5565  0.3999 -0.0378
 6877TIP3    H144826   7.533   5.105   5.478 -0.6494  0.4628 -0.3186
 6877TIP3    H244827   7.485   5.167   5.608  1.1834  1.9310 -0.3067
 6878TIP3   OH244828   3.931   6.761   6.291 -0.1690  0.1576 -0.5351
 6878TIP3    H144829   4.026   6.755   6.288 -0.2051 -0.4008 -0.6992
 6878TIP3    H244830   3.909   6.834   6.234  0.1326 -0.0719 -0.9480
 6879TIP3   OH244831   2.757   2.411   5.892 -0.2857  0.0573  0.3527
 6879TIP3    H144832   2.707   2.456   5.959  0.2221 -1.3477  1.7439
 6879TIP3    H244833   2.776   2.478   5.826 -1.1854  1.3661  1.3851
 6880TIP3   OH244834   3.169   4.819   5.446 -0.4517  0.5618  0.5137
 6880TIP3    H144835   3.169   4.745   5.507 -0.9023 -0.5639 -0.8169
 6880TIP3    H244836   3.089   4.867   5.467 -1.8950 -1.1846 -0.7479
 6881TIP3   OH244837   8.531   1.846   5.860 -0.6095  0.3184 -0.5725
 6881TIP3    H144838   8.576   1.763   5.843 -0.7655  0.0908  0.0860
 6881TIP3    H244839   8.493   1.835   5.947 -2.3861  0.2906 -1.3117
 6882TIP3   OH244840   5.771   3.233   6.149  0.2208 -0.3868  0.0948
 6882TIP3    H144841   5.828   3.287   6.095 -3.3103  1.2220 -2.3780
 6882TIP3    H244842   5.797   3.253   6.239  2.4777  1.3632 -0.8475
 6883TIP3   OH244843   1.375   1.070   5.899  0.1729  0.2339 -0.5040
 6883TIP3    H144844   1.427   1.042   5.975 -1.8712 -0.5985  0.6524
 6883TIP3    H244845   1.320   1.141   5.932  1.2742  1.8834 -2.0022
 6884TIP3   OH244846   7.616   5.799   5.279 -0.3540 -0.3476  0.0607
 6884TIP3    H144847   7.597   5.710   5.310 -0.0467 -0.1616  0.7856
 6884TIP3    H244848   7.553   5.855   5.324 -0.4484 -0.1754 -0.2817
 6885TIP3   OH244849   2.546   7.743   6.182 -0.3088  0.1937  0.2429
 6885TIP3    H144850   2.497   7.755   6.264 -0.5925  0.5863  0.0188
 6885TIP3    H244851   2.590   7.658   6.193  0.1128  0.4993  1.0313
 6886TIP3   OH244852   1.676   5.682   6.355  0.0106 -0.2681  0.5369
 6886TIP3    H144853   1.752   5.625   6.368 -1.1709 -2.4555 -1.4218
 6886TIP3    H244854   1.703   5.742   6.285  0.6809  0.5343  1.4522
 6887TIP3   OH244855   5.176   6.717   5.317 -0.4965 -0.0404  0.0068
 6887TIP3    H144856   5.266   6.702   5.287 -0.2066 -0.4338  1.0405
 6887TIP3    H244857   5.173   6.679   5.404 -1.0381  1.8652  0.8839
 6888TIP3   OH244858   6.030   2.826   5.649 -0.1258 -0.3027  0.0325
 6888TIP3    H144859   6.091   2.816   5.723  2.2079  0.0111 -1.7057
 6888TIP3    H244860   5.974   2.899   5.674  1.2899  0.4850  1.1154
 6889TIP3   OH244861   3.109   5.133   5.085  0.4924  0.1840 -0.3902
 6889TIP3    H144862   3.202   5.149   5.073  0.7814 -0.1899  1.1476
 6889TIP3    H244863   3.091   5.054   5.033  1.2923 -0.3975  0.1879
 6890TIP3   OH244864   8.310   8.190   6.454  0.2223 -0.1315 -0.0209
 6890TIP3    H144865   8.299   8.268   6.400 -1.6860 -1.3919 -1.5612
 6890TIP3    H244866   8.395   8.154   6.427 -0.2407 -0.1827 -1.4599
 6891TIP3   OH244867   5.382   7.206   6.175 -0.3813 -0.4479  0.3061
 6891TIP3    H144868   5.419   7.145   6.112 -0.5308 -0.5881  0.3514
 6891TIP3    H244869   5.413   7.292   6.148  0.4596 -0.6229  0.6820
 6892TIP3   OH244870   4.442   1.122   6.185 -0.2773 -0.2417 -0.0501
 6892TIP3    H144871   4.520   1.116   6.239 -2.1356 -1.8676  2.7128
 6892TIP3    H244872   4.403   1.207   6.209 -0.9698 -0.8512  1.0518
 6893TIP3   OH244873   8.811   5.687   4.901 -0.4901 -0.1251 -0.6240
 6893TIP3    H144874   8.742   5.627   4.929  1.3460 -1.8741  0.4239
 6893TIP3    H244875   8.838   5.654   4.815 -0.0631 -0.3034 -0.4269
 6894TIP3   OH244876   2.553   8.999   6.042 -0.1309  0.5081 -0.5667
 6894TIP3    H144877   2.510   8.939   5.982 -0.2028 -0.7628  0.6929
 6894TIP3    H244878   2.508   9.082   6.031 -0.8426  0.0095 -1.4864
 6895TIP3   OH244879   2.598   6.388   5.227  0.6348 -0.2762  0.2838
 6895TIP3    H144880   2.576   6.323   5.293  1.1283  0.8008  1.5439
 6895TIP3    H244881   2.643   6.457   5.275 -0.4375  1.3101 -0.9007
 6896TIP3   OH244882   1.962   5.925   5.850 -0.4896  0.3063  0.0452
 6896TIP3    H144883   1.951   5.838   5.888 -0.7322  0.1550 -0.3692
 6896TIP3    H244884   1.909   5.923   5.770 -0.0621  0.6545 -0.2490
 6897TIP3   OH244885   6.059   0.475   5.177  0.8941  0.0743  0.2011
 6897TIP3    H144886   6.066   0.425   5.095 -0.4776 -0.1017  0.1686
 6897TIP3    H244887   6.026   0.412   5.241  0.0700  0.6877  0.3982
 6898TIP3   OH244888   8.409   4.850   5.615  0.4301 -0.9212 -0.6646
 6898TIP3    H144889   8.429   4.942   5.600  0.7738 -0.3761  2.4259
 6898TIP3    H244890   8.318   4.840   5.588 -0.1408  0.8005  0.4548
 6899TIP3   OH244891   6.463   1.806   5.371 -0.8289 -0.7550  0.3593
 6899TIP3    H144892   6.417   1.841   5.448 -1.7334  2.1811 -1.3756
 6899TIP3    H244893   6.394   1.766   5.318 -0.7351 -0.0354 -0.3211
 6900TIP3   OH244894   1.581   9.179   5.676 -0.0457  0.5664  0.3698
 6900TIP3    H144895   1.655   9.223   5.635  0.0422 -0.4471 -0.6005
 6900TIP3    H244896   1.614   9.150   5.761  0.7392 -0.0255 -0.1244
 6901TIP3   OH244897   8.227   4.448   5.593  0.6951 -0.5986  0.0108
 6901TIP3    H144898   8.281   4.477   5.519 -0.4438  0.6975 -0.3720
 6901TIP3    H244899   8.282   4.464   5.670  1.2612 -0.3405 -0.4337
 6902TIP3   OH244900   3.283   0.428   5.889 -0.8462 -0.2153 -0.3473
 6902TIP3    H144901   3.211   0.425   5.953  0.8400  1.4024  1.7832
 6902TIP3    H244902   3.357   0.386   5.934 -0.0372 -0.5399 -1.9142
 6903TIP3   OH244903   0.835   5.653   5.548  0.0716 -0.3417 -0.8204
 6903TIP3    H144904   0.843   5.745   5.573  0.2742 -0.2685 -1.1463
 6903TIP3    H244905   0.854   5.652   5.454  0.7475 -0.8117 -0.6870
 6904TIP3   OH244906   4.547   6.255   5.578 -0.2851 -0.1028 -0.0366
 6904TIP3    H144907   4.589   6.338   5.600 -1.1102 -0.2292  2.2020
 6904TIP3    H244908   4.454   6.275   5.574 -0.3811 -0.6487 -0.9846
 6905TIP3   OH244909   2.875   4.477   5.778 -0.1960 -0.6489  0.0216
 6905TIP3    H144910   2.872   4.510   5.688  0.9710  1.5493  0.7098
 6905TIP3    H244911   2.931   4.400   5.774  1.5893  0.6303 -0.8651
 6906TIP3   OH244912   3.402   6.846   5.565 -0.4799 -0.2220  0.4674
 6906TIP3    H144913   3.329   6.790   5.592 -0.4880 -1.2994 -1.5879
 6906TIP3    H244914   3.443   6.798   5.493  1.3720  1.0548  0.6261
 6907TIP3   OH244915   7.114   0.018   6.248 -0.7303  0.1177 -0.1634
 6907TIP3    H144916   7.087  -0.015   6.334  0.8496 -0.1503  0.2637
 6907TIP3    H244917   7.093   0.111   6.251 -2.1899 -0.1843 -0.1278
 6908TIP3   OH244918   3.265   0.922   4.860  0.2713  0.4301 -0.6287
 6908TIP3    H144919   3.253   0.864   4.785  1.3088 -1.7761  0.7952
 6908TIP3    H244920   3.359   0.939   4.862  0.2559  0.4833  0.1096
 6909TIP3   OH244921   2.381   2.919   5.466 -0.1013 -0.3322 -0.8884
 6909TIP3    H144922   2.322   2.987   5.433  1.3856  0.5813 -1.7576
 6909TIP3    H244923   2.465   2.937   5.424  0.5995 -2.1212 -0.3616
 6910TIP3   OH244924   1.667   8.249   5.346 -0.1612 -0.3283  0.5848
 6910TIP3    H144925   1.583   8.293   5.329 -0.1671 -1.2096 -2.1311
 6910TIP3    H244926   1.643   8.161   5.375 -0.1189  0.4209  3.1359
 6911TIP3   OH244927   8.386   0.730   5.795 -0.0576 -0.0950  0.5384
 6911TIP3    H144928   8.390   0.800   5.730 -0.0699 -0.9447 -0.3980
 6911TIP3    H244929   8.321   0.761   5.859 -0.4827  0.4928 -0.1636
 6912TIP3   OH244930   4.137   2.951   6.791 -0.2564 -0.3455  0.0066
 6912TIP3    H144931   4.206   2.966   6.726  0.4973 -0.3770  0.7869
 6912TIP3    H244932   4.158   3.011   6.863  0.2730 -1.9482  1.2484
 6913TIP3   OH244933   5.381   3.183   5.477  0.0724 -0.2374  0.0312
 6913TIP3    H144934   5.363   3.202   5.569  2.1290  0.3149  0.3775
 6913TIP3    H244935   5.442   3.109   5.480  0.9584  0.4346 -0.8176
 6914TIP3   OH244936   2.907   6.880   5.720 -0.3112  0.3695  0.0204
 6914TIP3    H144937   2.956   6.937   5.660 -0.3285  0.7952  0.4018
 6914TIP3    H244938   2.876   6.940   5.789 -0.3018 -0.1087  0.4442
 6915TIP3   OH244939   0.591   7.795   6.090 -0.1959 -0.4946 -0.1575
 6915TIP3    H144940   0.644   7.721   6.063  1.1969  0.4464 -0.1142
 6915TIP3    H244941   0.503   7.774   6.059  0.3159 -1.8010 -0.8081
 6916TIP3   OH244942   4.099   7.488   6.545  0.6853 -0.1226 -1.0672
 6916TIP3    H144943   4.010   7.469   6.575  0.8888  1.8507  1.0319
 6916TIP3    H244944   4.093   7.486   6.449 -1.8612  0.8344 -1.0097
 6917TIP3   OH244945   8.813   3.641   6.025  0.1461  0.9280  0.2191
 6917TIP3    H144946   8.841   3.727   6.056  0.9389 -0.1233  2.5966
 6917TIP3    H244947   8.893   3.597   5.999  0.2770 -0.4263  2.6770
 6918TIP3   OH244948   6.514   6.294   6.594 -0.2120  0.8409  0.5428
 6918TIP3    H144949   6.599   6.326   6.562 -0.0428  0.2766  0.4096
 6918TIP3    H244950   6.488   6.357   6.661 -0.6789  2.1840 -0.8520
 6919TIP3   OH244951   8.545   7.976   4.804  0.1981  0.5457 -0.3755
 6919TIP3    H144952   8.582   8.001   4.719  0.5321  2.8120  0.3871
 6919TIP3    H244953   8.611   8.001   4.868 -0.1832 -0.8653  0.6248
 6920TIP3   OH244954   6.420   9.119   6.633  0.3026 -0.1319  0.6475
 6920TIP3    H144955   6.327   9.143   6.637 -0.0642 -1.4306  0.3747
 6920TIP3    H244956   6.462   9.194   6.592 -0.9641 -0.3653 -1.1864
 6921TIP3   OH244957   3.106   8.207   5.745  0.1374  0.2107 -0.1290
 6921TIP3    H144958   3.099   8.175   5.655  2.2660 -0.7328 -0.0157
 6921TIP3    H244959   3.073   8.135   5.799 -0.2807  0.4200 -0.0992
 6922TIP3   OH244960   4.414   4.914   5.562  0.4027 -0.0996  0.1714
 6922TIP3    H144961   4.396   4.830   5.520 -3.4681  0.2398  0.7600
 6922TIP3    H244962   4.400   4.898   5.655  0.8762  0.9221  0.4284
 6923TIP3   OH244963   6.371   2.663   6.245 -0.3903 -0.1648  0.1470
 6923TIP3    H144964   6.408   2.751   6.249 -1.1371  0.2229 -0.9806
 6923TIP3    H244965   6.425   2.618   6.180 -0.2537 -0.4288  0.4384
 6924TIP3   OH244966   7.622   6.644   5.621 -0.5946  0.4829 -0.3582
 6924TIP3    H144967   7.545   6.680   5.576 -1.4504 -0.7746  0.0699
 6924TIP3    H244968   7.624   6.690   5.705 -2.5874 -1.4168  0.8427
 6925TIP3   OH244969   7.745   4.481   5.178 -0.4370 -0.5809  0.1717
 6925TIP3    H144970   7.791   4.522   5.251 -0.1368  1.4620 -1.0615
 6925TIP3    H244971   7.809   4.421   5.140  0.6176  0.8270 -0.3821
 6926TIP3   OH244972   0.683   3.632   5.348  0.2294 -0.0333  0.3177
 6926TIP3    H144973   0.692   3.585   5.266  0.5953  0.4105  0.0937
 6926TIP3    H244974   0.590   3.649   5.357  0.1341 -0.5179  0.2418
 6927TIP3   OH244975   1.496   2.384   5.669  0.4815 -0.0694  1.1088
 6927TIP3    H144976   1.465   2.302   5.708 -0.6398  0.7893  2.1230
 6927TIP3    H244977   1.562   2.416   5.731 -0.9408  1.0437  2.1437
 6928TIP3   OH244978   1.153   1.658   6.234  0.2666 -0.0926  0.1804
 6928TIP3    H144979   1.078   1.715   6.247 -0.2221 -0.3925 -1.1474
 6928TIP3    H244980   1.227   1.717   6.219  0.0698  0.1904  0.3250
 6929TIP3   OH244981   8.414   3.831   7.024  0.0814  0.1511 -0.5749
 6929TIP3    H144982   8.387   3.897   6.960  0.1559 -0.7163 -1.5435
 6929TIP3    H244983   8.333   3.798   7.062  0.0284  0.6017 -0.3014
 6930TIP3   OH244984   0.004   2.566   6.407 -0.0958  0.3106 -0.0486
 6930TIP3    H144985   0.094   2.580   6.379 -0.2705  1.7638  0.0633
 6930TIP3    H244986  -0.048   2.581   6.329 -0.1932 -2.0309 -0.5130
 6931TIP3   OH244987   5.816   3.008   5.725 -0.2595  0.3912 -0.1894
 6931TIP3    H144988   5.773   3.071   5.782  0.3119 -0.1029  0.8258
 6931TIP3    H244989   5.857   3.062   5.656  1.0568  1.2651  1.1994
 6932TIP3   OH244990   1.064   2.784   5.385 -0.0761  0.8133  0.2652
 6932TIP3    H144991   1.060   2.752   5.476 -1.2442  0.3137  0.0579
 6932TIP3    H244992   1.148   2.752   5.352 -1.1083 -2.0312  0.1163
 6933TIP3   OH244993   1.837   7.593   6.512  0.2541 -0.4838  0.0260
 6933TIP3    H144994   1.741   7.586   6.519  0.4427 -2.6188  1.1115
 6933TIP3    H244995   1.862   7.519   6.457  1.3102  0.1540 -0.3862
 6934TIP3   OH244996   3.201   7.601   5.182  0.7654  0.2603  0.2465
 6934TIP3    H144997   3.126   7.543   5.177  1.4186 -0.6554  0.7988
 6934TIP3    H244998   3.261   7.570   5.114 -0.2128  2.3404 -1.7306
 6935TIP3   OH244999   1.331   5.488   5.518 -0.4168  0.1716 -0.6875
 6935TIP3    H145000   1.281   5.482   5.436 -0.1750  0.1270 -0.8336
 6935TIP3    H245001   1.338   5.398   5.549 -0.1520  0.1397 -0.8357
 6936TIP3   OH245002   1.716   5.137   5.180  0.1747 -0.1076  0.6095
 6936TIP3    H145003   1.732   5.101   5.268  2.8934  1.7222  0.9932
 6936TIP3    H245004   1.748   5.068   5.121  1.8009  0.0691  1.2147
 6937TIP3   OH245005   3.499   9.111   5.872 -0.6612  0.3570 -0.1855
 6937TIP3    H145006   3.412   9.077   5.891 -0.2163 -0.6963  0.0160
 6937TIP3    H245007   3.514   9.177   5.940 -1.0908  0.1765  0.0889
 6938TIP3   OH245008   1.386   2.042   5.582 -0.1484 -0.3817 -0.4720
 6938TIP3    H145009   1.321   2.001   5.524  0.3404 -0.0501 -1.2632
 6938TIP3    H245010   1.466   2.045   5.531 -0.2893  2.0374 -0.6386
 6939TIP3   OH245011   6.546   6.060   6.953 -0.0601 -0.5114 -0.6750
 6939TIP3    H145012   6.451   6.065   6.962  0.0953  0.4482  0.9183
 6939TIP3    H245013   6.576   6.151   6.961  1.1050 -0.9871  1.0032
 6940TIP3   OH245014   5.771   7.718   6.756 -1.0658  0.1090 -0.0720
 6940TIP3    H145015   5.806   7.805   6.735 -2.1738  0.8671  1.0834
 6940TIP3    H245016   5.846   7.659   6.744  0.3179  1.5122  1.1585
 6941TIP3   OH245017   1.317   9.157   6.580  0.0487  0.5700  0.1063
 6941TIP3    H145018   1.409   9.170   6.604  0.1127  0.3919 -0.0438
 6941TIP3    H245019   1.319   9.134   6.487 -0.1312  0.3534  0.1562
 6942TIP3   OH245020   6.360   6.083   6.634  0.1696 -0.1291 -0.5227
 6942TIP3    H145021   6.279   6.126   6.661  0.0224 -1.4063  1.2847
 6942TIP3    H245022   6.423   6.154   6.624 -1.1625  0.9068 -2.0991
 6943TIP3   OH245023   7.399   0.350   6.435 -0.3630  0.3512 -0.1645
 6943TIP3    H145024   7.430   0.261   6.448 -0.9473 -0.2341 -2.3622
 6943TIP3    H245025   7.478   0.403   6.433  0.0812 -0.2972 -0.0171
 6944TIP3   OH245026   3.789   3.652   6.735  0.0107 -0.5118  0.6897
 6944TIP3    H145027   3.739   3.728   6.765 -0.4327 -0.9934  1.1892
 6944TIP3    H245028   3.781   3.655   6.640  1.3098  0.9507  0.5768
 6945TIP3   OH245029   1.339   7.739   5.790  0.2571 -0.1770  0.1698
 6945TIP3    H145030   1.294   7.696   5.717  1.4459 -0.6829 -0.2880
 6945TIP3    H245031   1.280   7.810   5.816 -0.8096 -0.8345 -0.3868
 6946TIP3   OH245032   2.022   9.067   4.991 -0.6026  0.0545 -0.3876
 6946TIP3    H145033   1.934   9.102   5.005 -1.1982 -0.6434 -2.1621
 6946TIP3    H245034   2.071   9.140   4.953 -0.1859  0.6352  1.1590
 6947TIP3   OH245035   1.395   6.989   6.091  0.1696 -0.4975 -0.4367
 6947TIP3    H145036   1.316   6.936   6.106  0.4959 -0.6335  0.8844
 6947TIP3    H245037   1.434   6.999   6.177  0.1109  1.9702 -0.6275
 6948TIP3   OH245038   2.914   5.579   5.656 -0.0263 -0.0180 -0.0082
 6948TIP3    H145039   2.980   5.561   5.589 -0.3462 -1.3787  0.0206
 6948TIP3    H245040   2.839   5.614   5.607  0.5585  1.1503 -0.0859
 6949TIP3   OH245041   3.966   4.701   5.446  0.4060 -0.0628  0.9115
 6949TIP3    H145042   3.880   4.658   5.447  0.9737 -1.2599  0.2763
 6949TIP3    H245043   3.971   4.744   5.361 -0.1560  1.3215  1.5418
 6950TIP3   OH245044   1.009   4.731   5.247  0.1750 -0.0520 -0.3019
 6950TIP3    H145045   1.056   4.813   5.268 -0.1026  0.0070  0.1102
 6950TIP3    H245046   1.040   4.707   5.160 -0.1475  0.7874 -0.6641
 6951TIP3   OH245047   8.345   2.926   5.488 -0.0731 -0.2149 -0.3805
 6951TIP3    H145048   8.299   3.003   5.523  0.1805  0.4207 -1.3972
 6951TIP3    H245049   8.427   2.924   5.537  0.8768  1.4684 -1.8021
 6952TIP3   OH245050   6.096   0.261   6.593 -0.6139  0.2360 -0.1329
 6952TIP3    H145051   6.006   0.268   6.560 -0.8227 -0.6895  0.2260
 6952TIP3    H245052   6.124   0.352   6.603 -1.9072  0.5596  0.8154
 6953TIP3   OH245053   1.567   6.337   6.983  0.4204 -0.2209  0.5112
 6953TIP3    H145054   1.503   6.374   7.044  0.2781 -0.3119  0.4188
 6953TIP3    H245055   1.530   6.352   6.896  0.2197 -0.8277  0.4836
 6954TIP3   OH245056   6.698   4.427   5.042 -0.2185 -0.3663 -0.1899
 6954TIP3    H145057   6.759   4.443   5.114  0.1665 -0.7064 -0.4430
 6954TIP3    H245058   6.722   4.341   5.008 -1.8049 -1.2007  0.6862
 6955TIP3   OH245059   9.148   5.188   5.777  0.1101 -0.3150  0.1819
 6955TIP3    H145060   9.059   5.221   5.768 -0.2119 -1.4217 -1.0067
 6955TIP3    H245061   9.202   5.251   5.730 -0.0241  0.3784  0.9370
 6956TIP3   OH245062   0.387   6.427   6.249 -0.3527  0.2186  0.0156
 6956TIP3    H145063   0.291   6.426   6.257 -0.3156 -0.5527  0.4679
 6956TIP3    H245064   0.413   6.513   6.283 -1.0531  1.5288 -2.4992
 6957TIP3   OH245065   4.502   2.367   6.211 -0.0098  0.9736  0.3019
 6957TIP3    H145066   4.453   2.286   6.198  1.1271 -0.2174  2.6534
 6957TIP3    H245067   4.572   2.364   6.147 -0.7010  0.7471 -0.4589
 6958TIP3   OH245068   5.721   4.159   5.582  0.2952 -0.0243 -0.4942
 6958TIP3    H145069   5.757   4.098   5.647  0.4370  0.2759 -0.2883
 6958TIP3    H245070   5.725   4.111   5.499  0.2308 -0.3651 -0.3050
 6959TIP3   OH245071   9.160   4.105   4.744 -0.0429 -0.3162  0.2636
 6959TIP3    H145072   9.148   4.011   4.729 -0.8116 -0.5631  2.0808
 6959TIP3    H245073   9.211   4.110   4.825  0.0371  0.8264  0.1582
 6960TIP3   OH245074   5.914   1.813   6.542  0.1821  0.0523 -0.3620
 6960TIP3    H145075   5.948   1.893   6.503  1.0255 -0.4092 -0.6096
 6960TIP3    H245076   5.820   1.826   6.548  0.5081  2.0561  1.8690
 6961TIP3   OH245077   8.028   3.729   6.667 -0.4658 -0.0201 -0.1542
 6961TIP3    H145078   8.061   3.697   6.751  1.4754 -0.7003 -1.1310
 6961TIP3    H245079   7.972   3.658   6.635 -0.4435 -0.1551  0.1035
 6962TIP3   OH245080   1.330   1.810   5.385 -0.1448 -0.0297 -0.1102
 6962TIP3    H145081   1.257   1.828   5.444 -0.0898  0.8180 -0.2915
 6962TIP3    H245082   1.289   1.790   5.301 -0.1790  0.2754 -0.1676
 6963TIP3   OH245083   7.969   8.222   6.154 -0.4280 -0.1334 -0.1646
 6963TIP3    H145084   8.016   8.160   6.099 -2.3696 -1.1896 -0.6982
 6963TIP3    H245085   8.010   8.213   6.241  0.1357 -1.2263 -0.5333
 6964TIP3   OH245086   8.323   7.041   5.563  0.2776  0.3835  0.0783
 6964TIP3    H145087   8.322   7.104   5.635  0.4048  0.7310 -0.2198
 6964TIP3    H245088   8.416   7.026   5.545  0.2470  0.3338 -0.0451
 6965TIP3   OH245089   8.782   8.639   5.733  0.3346  0.5428  0.8088
 6965TIP3    H145090   8.745   8.568   5.785  0.0643 -1.4410 -1.8451
 6965TIP3    H245091   8.706   8.687   5.701 -0.0053 -1.4783 -1.8658
 6966TIP3   OH245092   6.682   8.101   6.791  0.0745 -0.0147 -0.1258
 6966TIP3    H145093   6.724   8.187   6.792  0.3015 -0.0726 -2.0653
 6966TIP3    H245094   6.745   8.042   6.833  0.0903  0.6493  0.8273
 6967TIP3   OH245095   7.503   0.000   5.985 -0.0201 -0.2418 -0.0235
 6967TIP3    H145096   7.499  -0.046   5.901 -0.3603  0.4657 -0.3995
 6967TIP3    H245097   7.413   0.000   6.016  0.2395 -1.2822  0.7826
 6968TIP3   OH245098   3.239   3.237   6.070  0.0363 -0.5276 -0.3648
 6968TIP3    H145099   3.216   3.325   6.100 -1.3962 -0.5680 -1.3055
 6968TIP3    H245100   3.221   3.180   6.145 -0.6202 -0.2344 -0.3006
 6969TIP3   OH245101   2.320   3.331   4.923 -0.5713 -1.0717 -0.0125
 6969TIP3    H145102   2.226   3.337   4.905 -0.2709 -1.2897 -1.8561
 6969TIP3    H245103   2.347   3.249   4.882  0.8000  0.0355 -1.4549
 6970TIP3   OH245104   8.940   0.499   6.886  0.4823  0.1496 -0.1310
 6970TIP3    H145105   8.975   0.423   6.839  0.9982  2.3485 -3.6995
 6970TIP3    H245106   8.847   0.480   6.895  0.8201 -1.4474  0.2312
 6971TIP3   OH245107   4.158   5.270   5.699 -0.1602  0.0687 -0.2756
 6971TIP3    H145108   4.152   5.207   5.626  0.8327 -0.6658  0.2531
 6971TIP3    H245109   4.178   5.216   5.775  2.1547  1.1198 -0.0466
 6972TIP3   OH245110   8.516   1.432   6.607 -0.0655  0.2469 -0.3912
 6972TIP3    H145111   8.519   1.349   6.558 -1.2907  0.9267 -1.7177
 6972TIP3    H245112   8.603   1.470   6.595  0.4132 -0.7018 -0.0173
 6973TIP3   OH245113   4.821   3.028   5.377 -0.0679 -0.1052 -0.1167
 6973TIP3    H145114   4.914   3.052   5.377 -0.3858  1.2223  0.7526
 6973TIP3    H245115   4.775   3.111   5.379 -1.2630 -0.7628  1.1497
 6974TIP3   OH245116   0.660   0.232   6.693 -0.2752  0.1154 -0.2272
 6974TIP3    H145117   0.615   0.160   6.737  0.1802 -0.4699 -0.6894
 6974TIP3    H245118   0.655   0.305   6.754  0.3323 -0.6689  0.7955
 6975TIP3   OH245119   4.806   0.677   6.036  0.4137 -0.4993 -0.4563
 6975TIP3    H145120   4.836   0.587   6.045 -0.6558 -0.8501 -0.2748
 6975TIP3    H245121   4.881   0.730   6.061  0.9064 -1.3413 -0.1093
 6976TIP3   OH245122   6.114   5.198   5.039  0.1262  0.1776  0.5631
 6976TIP3    H145123   6.064   5.224   4.962  0.0358  1.8077  1.1471
 6976TIP3    H245124   6.059   5.132   5.081  0.0513 -0.5392 -0.5932
 6977TIP3   OH245125   3.863   3.259   6.435 -0.0692  0.4269 -0.5190
 6977TIP3    H145126   3.864   3.234   6.528 -1.4809 -0.2189 -0.6526
 6977TIP3    H245127   3.821   3.345   6.434  0.4412  0.6742 -0.5033
 6978TIP3   OH245128   5.726   7.826   6.450 -0.0192 -0.4640  0.0273
 6978TIP3    H145129   5.760   7.762   6.513 -0.2232 -0.5450  0.0582
 6978TIP3    H245130   5.695   7.898   6.505  1.3991  0.2531 -0.0701
 6979TIP3   OH245131   6.310   1.691   5.873 -0.0306  0.0931  0.1210
 6979TIP3    H145132   6.215   1.678   5.874 -0.0237  0.0529  0.2115
 6979TIP3    H245133   6.329   1.736   5.955  0.2137 -1.2161  0.8125
 6980TIP3   OH245134   0.355   4.285   5.283 -0.1760  0.1066 -0.2745
 6980TIP3    H145135   0.373   4.193   5.303 -1.1567 -0.1316 -0.4751
 6980TIP3    H245136   0.316   4.320   5.363  0.1514  0.3474 -0.2141
 6981TIP3   OH245137   4.884   8.015   5.828 -1.0505  0.7202 -0.0459
 6981TIP3    H145138   4.846   8.021   5.740 -2.6125  1.4605  0.6364
 6981TIP3    H245139   4.843   7.937   5.866  1.1886 -0.8406 -0.6387
 6982TIP3   OH245140   4.210   6.081   6.056  0.2825 -0.4995  0.0133
 6982TIP3    H145141   4.293   6.034   6.056 -1.1534 -3.2552 -1.1584
 6982TIP3    H245142   4.146   6.019   6.090 -1.3436  1.5809  1.0275
 6983TIP3   OH245143   8.258   0.055   5.114 -0.1213  0.0128 -1.0431
 6983TIP3    H145144   8.306   0.127   5.072  0.3872 -0.4679 -1.2956
 6983TIP3    H245145   8.208   0.098   5.183  2.9323  0.2281  1.2448
 6984TIP3   OH245146   3.127   2.103   5.455 -0.1429  0.9408  0.1280
 6984TIP3    H145147   3.192   2.138   5.517 -0.4117 -0.1398  1.0693
 6984TIP3    H245148   3.071   2.048   5.509 -0.6494  0.3023 -1.0248
 6985TIP3   OH245149   0.478   8.140   6.229  0.2844  0.5208  0.1593
 6985TIP3    H145150   0.429   8.139   6.147 -0.3607  1.5002  0.5108
 6985TIP3    H245151   0.460   8.056   6.270 -1.5183  1.0239  0.4908
 6986TIP3   OH245152   0.729   0.619   4.863  0.1153  0.2805 -0.2477
 6986TIP3    H145153   0.739   0.646   4.771  0.9814 -2.6629 -1.1377
 6986TIP3    H245154   0.796   0.668   4.910  0.0775  1.3768 -1.2884
 6987TIP3   OH245155   6.951   8.517   6.305  0.6373  0.2163 -0.4428
 6987TIP3    H145156   7.000   8.524   6.223 -0.1599 -1.6698 -1.1349
 6987TIP3    H245157   6.870   8.472   6.281 -1.3365  2.8796  0.7239
 6988TIP3   OH245158   1.234   7.716   6.536 -0.0540  0.1676  0.0891
 6988TIP3    H145159   1.306   7.667   6.496  1.5465  0.5802  2.2599
 6988TIP3    H245160   1.277   7.783   6.589 -2.1262  1.8840 -0.2391
 6989TIP3   OH245161   3.551   3.768   5.698  0.7592 -0.1825 -0.2764
 6989TIP3    H145162   3.568   3.688   5.649 -2.9195 -0.3060 -1.6671
 6989TIP3    H245163   3.490   3.741   5.767  0.8027  1.1114  0.2988
 6990TIP3   OH245164   7.713   5.420   6.110  0.0284 -0.6077  0.1330
 6990TIP3    H145165   7.705   5.469   6.192 -0.4364  1.1836 -0.9282
 6990TIP3    H245166   7.710   5.328   6.137  0.5461 -0.0887  2.1746
 6991TIP3   OH245167   6.115   5.998   5.871 -0.1326 -0.6022  0.1916
 6991TIP3    H145168   6.169   5.976   5.947 -0.1550 -0.8762  0.1292
 6991TIP3    H245169   6.137   5.932   5.805 -1.2464 -1.3213  0.4965
 6992TIP3   OH245170   2.193   0.189   6.112  0.3277  0.1795  0.6068
 6992TIP3    H145171   2.254   0.259   6.136 -0.4781  0.3249  2.4448
 6992TIP3    H245172   2.135   0.228   6.046  2.7132 -0.2640 -1.9266
 6993TIP3   OH245173   3.007   2.442   5.253 -0.6264  0.2573  0.8884
 6993TIP3    H145174   2.978   2.515   5.308 -1.4151  0.7477 -0.1434
 6993TIP3    H245175   3.101   2.455   5.242 -0.3583 -0.1342  2.5126
 6994TIP3   OH245176   4.930   4.217   5.985  0.2345  0.0138 -0.1205
 6994TIP3    H145177   5.000   4.244   5.926  0.2484  0.9520  0.3163
 6994TIP3    H245178   4.874   4.294   5.994 -0.7780 -0.6778 -0.3349
 6995TIP3   OH245179   6.312   6.787   5.791 -0.1290  0.6162 -0.1015
 6995TIP3    H145180   6.399   6.761   5.819 -0.5372 -1.2576 -0.4013
 6995TIP3    H245181   6.326   6.862   5.733  0.9750  2.5606  2.4809
 6996TIP3   OH245182   6.849   2.480   6.699  0.0230 -0.1314 -0.1949
 6996TIP3    H145183   6.755   2.464   6.689 -0.2419  1.6050 -0.7704
 6996TIP3    H245184   6.858   2.521   6.785  0.2019  0.0811 -0.3141
 6997TIP3   OH245185   7.025   0.273   6.314 -0.4832  0.5181 -0.4874
 6997TIP3    H145186   6.938   0.281   6.354  0.2386  1.8799  0.9523
 6997TIP3    H245187   7.034   0.351   6.260  0.0950  0.7258 -0.0980
 6998TIP3   OH245188   5.268   8.932   6.022  0.1006  0.0910  0.6341
 6998TIP3    H145189   5.208   8.916   5.950  0.2697  0.0412  0.5032
 6998TIP3    H245190   5.257   8.857   6.080  0.2612 -0.0708  0.4555
 6999TIP3   OH245191   0.113   4.890   4.765 -0.5769 -0.4306  0.0791
 6999TIP3    H145192   0.189   4.949   4.761 -0.6887 -0.3123 -0.3446
 6999TIP3    H245193   0.042   4.946   4.796 -0.6280 -0.3967 -0.0972
 7000TIP3   OH245194   6.175   4.567   5.100  0.0149 -0.3121 -0.6035
 7000TIP3    H145195   6.261   4.525   5.099 -0.1957 -1.0385 -4.2692
 7000TIP3    H245196   6.194   4.658   5.078  0.0665  0.5417  2.5788
 7001TIP3   OH245197   7.781   2.363   6.037 -0.3295  0.4753  0.1517
 7001TIP3    H145198   7.737   2.317   6.108 -0.0843 -0.9038 -0.5600
 7001TIP3    H245199   7.753   2.454   6.046  0.5540  0.5931  2.6976
 7002TIP3   OH245200   2.147   1.900   4.968  0.7111  0.0085 -0.0685
 7002TIP3    H145201   2.189   1.831   4.917  0.7462  0.1858 -0.2805
 7002TIP3    H245202   2.219   1.951   5.004  0.6973  1.2297 -1.6717
 7003TIP3   OH245203   5.875   7.754   5.697  0.4506 -0.4793  0.2438
 7003TIP3    H145204   5.791   7.779   5.734  0.3521 -1.5291  0.7574
 7003TIP3    H245205   5.914   7.696   5.762  1.6492  0.1044  0.0857
 7004TIP3   OH245206   7.825   7.484   5.255  0.3624  0.7006 -0.0051
 7004TIP3    H145207   7.779   7.504   5.174  0.4118 -0.2402 -0.2780
 7004TIP3    H245208   7.835   7.388   5.254  0.5380  0.6979  1.0104
 7005TIP3   OH245209   0.059   3.814   4.726 -0.3937  0.2938  0.0910
 7005TIP3    H145210   0.132   3.801   4.787 -0.2437  1.2439  0.1414
 7005TIP3    H245211   0.088   3.774   4.644 -0.2961 -0.3534  0.4327
 7006TIP3   OH245212   1.402   2.545   6.792 -0.4234 -0.3052 -0.2718
 7006TIP3    H145213   1.463   2.596   6.739 -0.5399 -0.0592 -0.1686
 7006TIP3    H245214   1.315   2.572   6.762 -0.4920 -0.0660  0.1388
 7007TIP3   OH245215   8.398   8.451   5.614 -0.1126 -0.3761  0.0881
 7007TIP3    H145216   8.431   8.540   5.624 -0.2465 -0.2161 -0.8245
 7007TIP3    H245217   8.303   8.460   5.622 -0.1785 -0.3279 -0.6373
 7008TIP3   OH245218   7.677   0.171   5.224 -0.5668  0.2878 -0.8259
 7008TIP3    H145219   7.725   0.253   5.221 -1.5556  0.8774 -0.8841
 7008TIP3    H245220   7.600   0.186   5.167 -0.9174 -0.5617 -0.5933
 7009TIP3   OH245221   5.236   6.459   5.099 -0.3400 -0.0667 -0.6990
 7009TIP3    H145222   5.164   6.424   5.151  0.6683  1.3254  1.8735
 7009TIP3    H245223   5.208   6.547   5.075 -0.3457 -0.3033 -1.5962
 7010TIP3   OH245224   3.864   0.227   6.452  0.4838  0.2120  0.1123
 7010TIP3    H145225   3.901   0.138   6.449  1.1083  0.4533  0.4204
 7010TIP3    H245226   3.834   0.243   6.363 -0.2179 -0.5447  0.1991
 7011TIP3   OH245227   0.448   4.406   6.639  0.4379 -0.0970 -0.5058
 7011TIP3    H145228   0.509   4.382   6.708 -1.5283  0.1839  1.4325
 7011TIP3    H245229   0.394   4.328   6.626 -0.5861  0.5434 -0.1740
 7012TIP3   OH245230   3.008   3.874   6.502  0.1938 -0.4787 -0.2482
 7012TIP3    H145231   2.940   3.815   6.470 -0.9941 -0.1807  1.5565
 7012TIP3    H245232   2.973   3.962   6.487  1.0131 -0.2508 -0.9553
 7013TIP3   OH245233   4.495   5.665   6.453  0.0736 -0.0752  0.5665
 7013TIP3    H145234   4.426   5.616   6.496  0.5730 -1.1333  0.1843
 7013TIP3    H245235   4.570   5.606   6.451  0.9566  1.0000  0.8376
 7014TIP3   OH245236   0.500   1.669   5.057 -0.3003  0.4274 -0.0881
 7014TIP3    H145237   0.533   1.611   4.989 -3.7821 -0.3062 -1.3677
 7014TIP3    H245238   0.410   1.640   5.071 -0.9817  3.1500  1.9602
 7015TIP3   OH245239   2.880   3.227   4.897 -1.0280 -1.1148  0.0519
 7015TIP3    H145240   2.956   3.258   4.848 -0.9587 -1.6123 -0.1609
 7015TIP3    H245241   2.918   3.172   4.966 -1.2150 -1.6135 -0.2438
 7016TIP3   OH245242   1.048   3.682   6.616 -0.5216  0.3420 -0.3862
 7016TIP3    H145243   1.020   3.594   6.590  0.1198 -0.2354  0.7759
 7016TIP3    H245244   1.143   3.677   6.619 -0.5017  0.9229  0.1987
 7017TIP3   OH245245   8.148   3.585   6.916  0.0713 -0.8943  0.1560
 7017TIP3    H145246   8.157   3.663   6.972 -2.3544  0.0457 -0.6355
 7017TIP3    H245247   8.234   3.574   6.877  0.4866  1.4460  0.2446
 7018TIP3   OH245248   8.371   0.118   5.468 -0.3929 -0.5784 -0.2668
 7018TIP3    H145249   8.304   0.154   5.411  0.5885  0.4747 -0.8043
 7018TIP3    H245250   8.454   0.138   5.423  0.2789 -2.0425  0.2557
 7019TIP3   OH245251   0.179   0.971   5.456 -0.4197  0.2776 -0.1496
 7019TIP3    H145252   0.104   0.973   5.516  0.2806  1.6909  0.7177
 7019TIP3    H245253   0.238   1.039   5.489  0.2020  0.7797 -2.1727
 7020TIP3   OH245254   9.026   2.396   5.919  0.1263 -0.1116  0.3844
 7020TIP3    H145255   9.092   2.345   5.966 -0.0945 -1.5666 -0.8240
 7020TIP3    H245256   8.945   2.345   5.928 -0.2000  0.2324 -0.4819
 7021TIP3   OH245257   5.528   2.063   5.447  0.2242  0.6586 -0.7791
 7021TIP3    H145258   5.462   2.102   5.503 -0.5239 -0.4708 -0.8358
 7021TIP3    H245259   5.557   1.985   5.495  1.6556  1.2332 -0.6714
 7022TIP3   OH245260   3.517   2.816   6.816 -0.0739 -0.0635 -0.3737
 7022TIP3    H145261   3.564   2.748   6.767  0.7553  0.9780 -1.0858
 7022TIP3    H245262   3.547   2.807   6.906  1.3808  0.4422 -0.7818
 7023TIP3   OH245263   4.143   3.087   6.236 -0.1805 -0.8518  0.3347
 7023TIP3    H145264   4.176   3.036   6.310  1.6446 -0.3667 -0.0971
 7023TIP3    H245265   4.214   3.148   6.215 -1.3002  0.1326 -0.7939
 7024TIP3   OH245266   0.194   3.359   6.302 -0.2356  0.0025 -0.6900
 7024TIP3    H145267   0.193   3.453   6.320  0.1377 -0.0956 -0.1466
 7024TIP3    H245268   0.203   3.318   6.388  0.6285 -0.5013 -1.0082
 7025TIP3   OH245269   1.986   0.414   5.404 -0.2149  0.1656 -0.1696
 7025TIP3    H145270   2.032   0.335   5.431  1.7459  0.7906 -1.5447
 7025TIP3    H245271   2.037   0.486   5.441 -2.7720  0.9095  2.3577
 7026TIP3   OH245272   4.250   3.919   5.324  0.0196  0.3840 -0.3712
 7026TIP3    H145273   4.329   3.866   5.323 -0.9928 -1.2080 -1.1461
 7026TIP3    H245274   4.250   3.963   5.239  1.0953  2.0442  0.4571
 7027TIP3   OH245275   7.894   2.306   6.464  0.3403  0.2313  0.1405
 7027TIP3    H145276   7.950   2.238   6.501 -1.4032 -0.2954  1.9961
 7027TIP3    H245277   7.909   2.382   6.520 -0.8190  0.0463  0.7486
 7028TIP3   OH245278   1.146   2.630   5.956 -0.1078  0.6779  0.3747
 7028TIP3    H145279   1.056   2.603   5.936  0.0497 -0.7052  1.3634
 7028TIP3    H245280   1.138   2.685   6.034  0.0501 -1.3323  1.8927
 7029TIP3   OH245281   6.228   0.484   6.657  0.3554 -0.1962 -0.0965
 7029TIP3    H145282   6.187   0.565   6.628 -0.8014 -0.2506  1.2118
 7029TIP3    H245283   6.241   0.496   6.751  0.2882 -1.4626  0.1002
 7030TIP3   OH245284   3.510   8.507   6.332 -0.2123 -1.0084 -0.2821
 7030TIP3    H145285   3.576   8.481   6.396 -0.2364 -1.7518 -0.5492
 7030TIP3    H245286   3.442   8.552   6.383  1.1119  0.9954 -0.1635
 7031TIP3   OH245287   4.235   3.066   5.888  0.5613 -0.0339  0.1271
 7031TIP3    H145288   4.325   3.074   5.919  1.2794 -2.0528 -1.2191
 7031TIP3    H245289   4.211   3.155   5.860  2.2674  0.4681  0.1470
 7032TIP3   OH245290   3.375   4.447   6.460  0.1206  0.3622  0.8294
 7032TIP3    H145291   3.381   4.446   6.556  0.3277 -1.5203  0.8303
 7032TIP3    H245292   3.281   4.446   6.442  0.0644 -0.9383  1.0598
 7033TIP3   OH245293   8.391   1.967   6.549 -0.5226  0.8847 -0.2574
 7033TIP3    H145294   8.446   1.900   6.509 -0.9206  0.3262  0.1118
 7033TIP3    H245295   8.302   1.933   6.541 -0.7561  1.4811 -0.2769
 7034TIP3   OH245296   8.304   6.498   5.227  0.4354 -0.0620 -0.0383
 7034TIP3    H145297   8.355   6.418   5.234 -0.0945 -0.6431 -2.1153
 7034TIP3    H245298   8.213   6.468   5.223  0.2047  0.6707 -0.4373
 7035TIP3   OH245299   5.975   7.175   6.399 -0.3327  0.0897 -0.3236
 7035TIP3    H145300   6.011   7.165   6.488 -0.6593  1.3392 -0.0343
 7035TIP3    H245301   5.884   7.146   6.406 -0.6478  1.1333 -0.0060
 7036TIP3   OH245302   3.842   1.281   5.983  0.0185 -0.2219  0.3864
 7036TIP3    H145303   3.851   1.332   5.903  3.0417  0.4756  1.0319
 7036TIP3    H245304   3.796   1.202   5.956  1.4352 -0.2779 -2.1931
 7037TIP3   OH245305   4.416   0.136   5.209  0.0882  0.2035 -0.7616
 7037TIP3    H145306   4.358   0.200   5.167  1.7478  1.9050 -0.5625
 7037TIP3    H245307   4.502   0.177   5.209  1.1520 -1.8779 -0.2354
 7038TIP3   OH245308   0.355   7.920  10.076 -0.2626  0.3225 -0.0064
 7038TIP3    H145309   0.422   7.887  10.017 -1.1171 -0.3302 -0.6306
 7038TIP3    H245310   0.343   7.850  10.140  0.3742  0.8633  0.7321
 7039TIP3   OH245311   5.042   7.989   5.517  0.1602  0.0999  0.6402
 7039TIP3    H145312   4.950   7.965   5.525  0.3450 -0.5293  0.9308
 7039TIP3    H245313   5.087   7.906   5.504  0.7008  0.3964  0.5969
 7040TIP3   OH245314   6.977   4.909   6.479  0.4108 -0.4368 -0.7870
 7040TIP3    H145315   6.971   4.877   6.569 -0.4536 -0.3809 -0.8169
 7040TIP3    H245316   7.068   4.891   6.453  0.6198 -0.6101  0.0298
 7041TIP3   OH245317   4.309   5.222   6.730  0.5406 -0.2077  0.1291
 7041TIP3    H145318   4.340   5.136   6.702 -1.0828 -0.0936 -2.3974
 7041TIP3    H245319   4.365   5.284   6.683  0.3973  0.0889  0.3464
 7042TIP3   OH245320   0.294   1.113   6.583 -0.1766  0.0671  0.0468
 7042TIP3    H145321   0.343   1.120   6.665 -0.4807 -1.5470  0.4136
 7042TIP3    H245322   0.287   1.018   6.568 -2.2299  0.2660 -0.5695
 7043TIP3   OH245323   6.385   2.149   5.674  0.8387 -0.3073 -0.0634
 7043TIP3    H145324   6.302   2.192   5.653  0.9618 -0.3602 -0.6866
 7043TIP3    H245325   6.447   2.186   5.611  1.9479  1.7763  2.0777
 7044TIP3   OH245326   1.342   8.948   5.305 -0.4784 -0.0882 -0.5631
 7044TIP3    H145327   1.306   9.026   5.345 -0.3380 -0.6728  0.7769
 7044TIP3    H245328   1.433   8.945   5.336 -0.4303 -0.6770 -0.7456
 7045TIP3   OH245329   7.072   0.926   6.018 -0.1505 -0.2332  0.4865
 7045TIP3    H145330   6.978   0.943   6.012 -0.2559 -1.0988 -0.5348
 7045TIP3    H245331   7.080   0.831   6.008  0.9678  0.0196 -1.4640
 7046TIP3   OH245332   2.285   8.687   5.042  0.4864  0.6415  0.1021
 7046TIP3    H145333   2.335   8.609   5.019  0.5590  0.4504  0.8901
 7046TIP3    H245334   2.232   8.660   5.117  3.0753  2.2911  2.6870
 7047TIP3   OH245335   8.928   7.428   6.373 -0.4264  0.7604  0.3342
 7047TIP3    H145336   8.968   7.392   6.294  0.2560  1.7863  0.1901
 7047TIP3    H245337   8.999   7.476   6.416 -1.1880  1.5709  0.7193
 7048TIP3   OH245338   1.039   7.300   6.644  0.2224  0.2937  0.3441
 7048TIP3    H145339   1.001   7.388   6.646  0.3211  0.3265  0.7829
 7048TIP3    H245340   1.111   7.306   6.581 -0.2771  0.3166 -0.2414
 7049TIP3   OH245341   4.831   1.346   5.497  0.4569  0.3824 -0.1577
 7049TIP3    H145342   4.754   1.346   5.441  0.0194  0.7242  0.4360
 7049TIP3    H245343   4.815   1.276   5.561  0.0220  1.3000  0.7745
 7050TIP3   OH245344   6.366   1.595   6.267 -0.0595  0.4127 -0.5089
 7050TIP3    H145345   6.441   1.654   6.271  0.4328 -0.1064 -1.7253
 7050TIP3    H245346   6.377   1.536   6.342  0.6618  0.4449 -0.5846
 7051TIP3   OH245347   4.677   3.669   5.183 -0.2330  0.3054 -0.2623
 7051TIP3    H145348   4.741   3.619   5.132  0.4643  0.1965  0.6900
 7051TIP3    H245349   4.600   3.675   5.126 -0.4106 -1.9990 -0.3621
 7052TIP3   OH245350   3.356   2.546   5.688 -0.2201 -0.1940 -0.0713
 7052TIP3    H145351   3.297   2.621   5.697 -0.1983 -0.0562 -0.9652
 7052TIP3    H245352   3.314   2.490   5.623 -1.2696 -1.9910  2.0290
 7053TIP3   OH245353   3.946   7.635   6.111  0.3986  0.6418  0.5391
 7053TIP3    H145354   3.920   7.561   6.056 -0.1266  1.2062  0.0182
 7053TIP3    H245355   3.942   7.711   6.053  2.5105  0.8777  0.6113
 7054TIP3   OH245356   8.096   3.161   6.719  0.7880  0.0286  0.2002
 7054TIP3    H145357   8.070   3.252   6.733  2.0450  0.1546  2.0570
 7054TIP3    H245358   8.017   3.111   6.737  0.8124  0.6057  2.2428
 7055TIP3   OH245359   1.985   3.284   6.126  0.3680 -0.7332  0.1791
 7055TIP3    H145360   1.957   3.243   6.044  0.9254 -0.2058 -0.2892
 7055TIP3    H245361   1.922   3.253   6.191  0.6041 -2.1133 -0.2003
 7056TIP3   OH245362   1.757   7.272   6.880 -0.2744  0.1228  0.3733
 7056TIP3    H145363   1.722   7.185   6.897 -1.6095  0.2207 -1.6254
 7056TIP3    H245364   1.848   7.257   6.855 -0.8925 -0.8768 -1.3890
 7057TIP3   OH245365   4.248   1.491   6.045  0.4707 -0.3209  0.3371
 7057TIP3    H145366   4.189   1.527   5.979  1.0352 -0.3530 -0.2020
 7057TIP3    H245367   4.226   1.537   6.126  2.2714  2.5738 -0.6473
 7058TIP3   OH245368   6.816   2.042   5.579 -0.6578  0.2516  0.4336
 7058TIP3    H145369   6.745   1.979   5.591 -1.1178  0.3170 -1.5152
 7058TIP3    H245370   6.882   1.993   5.530 -1.8495  1.6730 -2.9111
 7059TIP3   OH245371   4.729   6.686   5.156  0.8079  0.3167  0.6999
 7059TIP3    H145372   4.668   6.697   5.228  0.2986  2.4740  0.0302
 7059TIP3    H245373   4.678   6.643   5.087  0.9656 -0.6850  1.1900
 7060TIP3   OH245374   8.628   3.986   5.975  0.3779 -0.0925  0.7082
 7060TIP3    H145375   8.628   4.072   5.933 -1.3571 -0.5420 -0.3059
 7060TIP3    H245376   8.717   3.954   5.963  1.3643  1.9448  2.0286
 7061TIP3   OH245377   5.874   5.421   6.475 -0.1287  0.3627  0.0002
 7061TIP3    H145378   5.932   5.457   6.542 -1.1137  0.1295  1.0147
 7061TIP3    H245379   5.851   5.334   6.508  1.5748 -0.9502 -2.0307
 7062TIP3   OH245380   2.859   3.308   5.242 -0.3580 -0.4546  0.4592
 7062TIP3    H145381   2.773   3.278   5.213 -0.0656 -1.6560  0.7746
 7062TIP3    H245382   2.921   3.247   5.202  0.3180  0.0981  0.6344
 7063TIP3   OH245383   4.598   4.744   5.218 -0.5296 -0.2252 -0.3237
 7063TIP3    H145384   4.561   4.730   5.305  1.0596 -1.2562  0.2405
 7063TIP3    H245385   4.597   4.657   5.177 -3.8180  0.6496 -2.5184
 7064TIP3   OH245386   0.647   2.598   5.678 -0.6458 -0.4061  0.5704
 7064TIP3    H145387   0.725   2.546   5.695  0.9202  1.5827 -0.1089
 7064TIP3    H245388   0.642   2.601   5.582 -0.0465  1.5025  0.5542
 7065TIP3   OH245389   0.049   5.299   4.766  0.0314 -0.2187  0.7001
 7065TIP3    H145390   0.136   5.288   4.728  0.4138  0.1893  1.4274
 7065TIP3    H245391   0.064   5.350   4.846 -0.9327  0.2753  0.5830
 7066TIP3   OH245392   7.099   7.538   5.507 -0.1103  0.1935  0.1700
 7066TIP3    H145393   7.170   7.482   5.539  1.0163  0.9115 -1.0374
 7066TIP3    H245394   7.094   7.609   5.570  1.1083  0.8113 -0.4065
 7067TIP3   OH245395   5.027   2.277   6.666  0.5126  0.4260 -0.0022
 7067TIP3    H145396   4.978   2.224   6.728 -0.0010  0.9731  0.0685
 7067TIP3    H245397   4.978   2.268   6.583 -0.3984  1.8799  0.3339
 7068TIP3   OH245398   1.054   1.513   5.025  0.5611 -0.5723 -0.0037
 7068TIP3    H145399   1.138   1.473   5.002 -0.8074 -2.5726 -1.9788
 7068TIP3    H245400   0.990   1.443   5.011 -1.7377  1.6408 -1.3328
 7069TIP3   OH245401   7.578   7.151   5.345  0.0393  0.0364  1.1358
 7069TIP3    H145402   7.528   7.233   5.341  0.9916  0.5638 -1.4805
 7069TIP3    H245403   7.670   7.178   5.342  0.3655 -1.1234 -1.3881
 7070TIP3   OH245404   0.084   2.802   5.788  0.1917 -0.3058 -0.6901
 7070TIP3    H145405   0.121   2.735   5.730  1.1693 -0.8070  0.4428
 7070TIP3    H245406  -0.007   2.811   5.760  0.2112 -1.6667 -1.2780
 7071TIP3   OH245407   2.242   4.103   5.103 -0.2979  0.1310  0.0888
 7071TIP3    H145408   2.282   4.187   5.126 -0.7490  0.0784  1.1400
 7071TIP3    H245409   2.217   4.112   5.011 -0.7437  1.3156  0.3132
 7072TIP3   OH245410   7.204   8.729   6.132 -0.0081 -0.4428 -0.6251
 7072TIP3    H145411   7.228   8.743   6.040 -4.2628  0.3205 -1.8295
 7072TIP3    H245412   7.159   8.644   6.131 -1.8623  0.4782  0.2634
 7073TIP3   OH245413   4.150   7.368   6.023 -0.0844  0.4523 -0.2413
 7073TIP3    H145414   4.073   7.391   5.972  0.0440  1.4198 -0.0141
 7073TIP3    H245415   4.224   7.393   5.967  0.0718  2.6853  0.8538
 7074TIP3   OH245416   3.609   7.583   5.522  0.0841 -0.3353 -0.0241
 7074TIP3    H145417   3.521   7.545   5.521 -0.2341  0.3775  0.0575
 7074TIP3    H245418   3.626   7.605   5.431  0.1671 -0.4392 -0.0340
 7075TIP3   OH245419   6.920   4.169   6.496 -0.3657  0.3337 -0.6946
 7075TIP3    H145420   6.849   4.121   6.538  0.0420  0.8832  0.6813
 7075TIP3    H245421   6.948   4.113   6.424 -0.1361 -1.3507  0.6334
 7076TIP3   OH245422   4.540   7.398   4.802 -0.4428 -0.3623  0.2085
 7076TIP3    H145423   4.573   7.487   4.813 -2.8791  0.7991 -1.1482
 7076TIP3    H245424   4.445   7.407   4.798 -0.7551 -2.9957 -0.3538
 7077TIP3   OH245425   3.541   6.734   5.375 -0.2751 -0.4385  0.4685
 7077TIP3    H145426   3.603   6.693   5.315  1.3646  0.2713  1.6191
 7077TIP3    H245427   3.528   6.822   5.342 -0.3194 -0.4377  0.4869
 7078TIP3   OH245428   6.536   8.102   5.445  0.0809  0.3999  0.7781
 7078TIP3    H145429   6.605   8.038   5.461 -1.0262 -0.8810  0.6202
 7078TIP3    H245430   6.555   8.174   5.505  0.6763 -0.6186  1.8405
 7079TIP3   OH245431   8.032   1.941   5.820  0.5183  0.3839 -0.2969
 7079TIP3    H145432   8.031   1.980   5.733  2.0834 -0.5188 -0.7620
 7079TIP3    H245433   8.110   1.977   5.862  0.9254 -0.7363 -0.0456
 7080TIP3   OH245434   6.573   3.348   5.706  0.2793  0.0990 -0.6360
 7080TIP3    H145435   6.538   3.309   5.626  2.1904  1.2974 -2.1569
 7080TIP3    H245436   6.586   3.274   5.765 -0.0109 -1.0034 -1.9086
 7081TIP3   OH245437   8.357   5.582   6.703 -0.4745 -0.4381 -0.2183
 7081TIP3    H145438   8.374   5.671   6.733  1.6756 -0.5747 -0.9034
 7081TIP3    H245439   8.265   5.567   6.726 -0.3731  1.2558  1.6321
 7082TIP3   OH245440   0.142   3.569   5.748  0.0202  0.2287  0.0621
 7082TIP3    H145441   0.215   3.625   5.771 -0.9689  1.7415 -0.3364
 7082TIP3    H245442   0.182   3.485   5.724  1.7225  1.3869 -1.3344
 7083TIP3   OH245443   4.110   1.201   6.334 -0.0446  0.1824  0.1013
 7083TIP3    H145444   4.116   1.296   6.337 -2.7337  0.4178  1.1815
 7083TIP3    H245445   4.133   1.178   6.244  2.8727  1.5573  0.3888
 7084TIP3   OH245446   8.477   7.868   4.426  0.3869  0.2755 -0.0580
 7084TIP3    H145447   8.411   7.931   4.397 -0.2232 -1.1511 -1.9725
 7084TIP3    H245448   8.435   7.820   4.497 -1.0818 -1.1599 -1.7705
 7085TIP3   OH245449   0.092   4.823   5.710 -0.1663  0.2066  0.0363
 7085TIP3    H145450   0.015   4.879   5.695  0.5200  0.9698 -0.7146
 7085TIP3    H245451   0.129   4.855   5.793 -0.5238 -0.0241  0.2907
 7086TIP3   OH245452   7.290   2.827   6.110 -0.1702  0.0357  0.3738
 7086TIP3    H145453   7.212   2.778   6.087 -0.6378 -0.0307  1.9969
 7086TIP3    H245454   7.362   2.778   6.068 -0.9653  0.1023 -1.1238
 7087TIP3   OH245455   2.263   8.077   5.319  0.4461  0.4302 -0.6349
 7087TIP3    H145456   2.239   8.166   5.293 -0.3513  0.4249  0.0440
 7087TIP3    H245457   2.211   8.060   5.397  2.0230  0.0886  0.4026
 7088TIP3   OH245458   7.984   6.454   5.863 -0.0925  0.3800 -0.3046
 7088TIP3    H145459   8.068   6.436   5.822 -0.6600  1.1996 -1.9214
 7088TIP3    H245460   7.936   6.506   5.798 -2.0399 -0.4762  0.3626
 7089TIP3   OH245461   3.786   6.670   5.682  0.4218  0.4067 -0.8022
 7089TIP3    H145462   3.709   6.685   5.736  1.6391  2.0386  0.5901
 7089TIP3    H245463   3.796   6.750   5.631  1.5915  0.5351 -0.4132
 7090TIP3   OH245464   2.212   2.744   5.587 -0.3083  0.5418  0.0885
 7090TIP3    H145465   2.268   2.802   5.536  0.4053 -0.0609  0.1665
 7090TIP3    H245466   2.272   2.702   5.649 -1.0456  0.7810  0.9947
 7091TIP3   OH245467   4.599   8.862   6.389  0.0021  0.4001 -0.0492
 7091TIP3    H145468   4.646   8.780   6.374 -1.2102  0.0123 -2.1930
 7091TIP3    H245469   4.575   8.859   6.481  1.3241 -0.8959  0.3047
 7092TIP3   OH245470   3.136   6.182   5.908  0.1078  0.5935  0.2648
 7092TIP3    H145471   3.041   6.195   5.905  0.0471 -0.0670 -1.2208
 7092TIP3    H245472   3.156   6.178   6.002 -1.3594  0.4866  0.6002
 7093TIP3   OH245473   8.390   0.490   5.925  0.4622  0.0354  0.5775
 7093TIP3    H145474   8.361   0.562   5.869  1.1517 -0.3606 -0.3304
 7093TIP3    H245475   8.480   0.512   5.949  0.4577 -0.2096  0.8258
 7094TIP3   OH245476   3.047   7.132   5.117 -0.3035 -0.6923 -0.2339
 7094TIP3    H145477   3.063   7.131   5.022 -1.7754 -2.3385 -0.5217
 7094TIP3    H245478   3.130   7.106   5.155  0.6627  1.1415 -0.9617
 7095TIP3   OH245479   2.786   1.295   5.689  0.3709  0.0143 -0.2350
 7095TIP3    H145480   2.746   1.253   5.613  0.0830 -1.1896  0.5514
 7095TIP3    H245481   2.824   1.223   5.740 -0.3935  0.6526  1.3140
 7096TIP3   OH245482   2.345   1.799   5.207  0.4326 -0.2371 -0.0298
 7096TIP3    H145483   2.406   1.838   5.268 -1.1838 -2.7148  3.5262
 7096TIP3    H245484   2.362   1.705   5.213 -1.9892 -0.8124 -0.8245
 7097TIP3   OH245485   6.084   0.900   6.310 -0.1397 -0.3522 -0.1952
 7097TIP3    H145486   6.066   0.901   6.404 -1.2420 -2.0986 -0.3430
 7097TIP3    H245487   6.119   0.813   6.293  0.6794  0.1633 -1.3315
 7098TIP3   OH245488   4.533   8.025   5.785 -0.5375 -0.5918 -0.1201
 7098TIP3    H145489   4.473   8.066   5.849 -1.3759  0.3870 -1.4768
 7098TIP3    H245490   4.556   8.096   5.725 -0.6197 -1.7106 -1.5230
 7099TIP3   OH245491   4.906   5.306   5.774  0.1188 -0.1913 -0.2188
 7099TIP3    H145492   4.865   5.387   5.804 -0.3829 -1.3786  2.6728
 7099TIP3    H245493   4.853   5.280   5.698 -1.0136  1.1156  0.0689
 7100TIP3   OH245494   6.891   8.045   5.262 -1.1706 -0.4458  0.1297
 7100TIP3    H145495   6.838   8.125   5.266 -1.9502 -0.8740 -1.0724
 7100TIP3    H245496   6.891   8.012   5.352 -0.7730  0.9322  0.6676
 7101TIP3   OH245497   2.766   0.657   5.775 -0.2537  0.0667 -0.1950
 7101TIP3    H145498   2.858   0.636   5.761  0.1592  1.6963 -0.0497
 7101TIP3    H245499   2.744   0.718   5.704 -1.4652 -0.9135 -0.7135
 7102TIP3   OH245500   5.386   7.758   6.874  0.0848  0.1540 -0.3524
 7102TIP3    H145501   5.305   7.809   6.884  0.3722  0.9343 -1.7295
 7102TIP3    H245502   5.403   7.723   6.961 -1.0212  1.0650  0.2607
 7103TIP3   OH245503   8.512   0.823   5.533  1.0038 -0.0096 -0.1001
 7103TIP3    H145504   8.477   0.901   5.576  1.0478  1.0966 -1.9747
 7103TIP3    H245505   8.492   0.836   5.440  0.5824 -2.4826 -0.4077
 7104TIP3   OH245506   3.062   2.472   5.930 -0.2655 -0.5117 -0.7115
 7104TIP3    H145507   3.042   2.535   5.999 -2.0032 -0.6331 -1.0472
 7104TIP3    H245508   3.002   2.399   5.946 -0.1718 -0.8676 -1.8889
 7105TIP3   OH245509   3.318   0.812   5.478  0.3638  0.7556  0.3940
 7105TIP3    H145510   3.325   0.737   5.537 -0.9756  0.4706  0.2383
 7105TIP3    H245511   3.319   0.774   5.390  0.0181  0.9427  0.3059
 7106TIP3   OH245512   2.974   4.835   6.574 -0.3398 -0.1198  0.3134
 7106TIP3    H145513   2.929   4.764   6.620 -0.2940 -0.0400  0.4815
 7106TIP3    H245514   2.940   4.830   6.485 -0.5682 -0.1581  0.4004
 7107TIP3   OH245515   8.265   5.591   4.922  0.0939 -0.1356 -0.1858
 7107TIP3    H145516   8.171   5.599   4.904  0.3603  0.8765 -1.2920
 7107TIP3    H245517   8.283   5.497   4.914 -0.8049 -0.3332 -0.0361
 7108TIP3   OH245518   2.788   7.838   5.653 -0.5873 -0.4514  0.2658
 7108TIP3    H145519   2.767   7.858   5.744 -0.0924 -0.2667  0.3416
 7108TIP3    H245520   2.703   7.830   5.610 -0.8319  1.0647  0.4041
 7109TIP3   OH245521   8.059   7.711   6.945 -0.2890 -0.5601  0.4452
 7109TIP3    H145522   8.120   7.651   6.902  0.8093 -0.4161  1.7515
 7109TIP3    H245523   7.994   7.654   6.987  0.0952 -0.7953  0.7247
 7110TIP3   OH245524   8.096   9.152   6.817 -0.2586  0.3030 -0.3511
 7110TIP3    H145525   8.019   9.205   6.842 -0.7025 -1.4615  2.4063
 7110TIP3    H245526   8.082   9.068   6.861  1.4815 -1.3973 -2.8365
 7111TIP3   OH245527   6.833   8.681   5.875  0.4344 -0.2214  0.0796
 7111TIP3    H145528   6.888   8.607   5.899 -0.3626 -1.1078 -0.7439
 7111TIP3    H245529   6.808   8.664   5.784  0.6892  1.3467 -0.3158
 7112TIP3   OH245530   7.593   7.704   5.963  0.1708 -0.7602 -0.3223
 7112TIP3    H145531   7.667   7.663   5.920  2.0926  1.2036  0.8942
 7112TIP3    H245532   7.549   7.633   6.010  0.4425 -2.1887 -2.1257
 7113TIP3   OH245533   5.074   8.985   6.743 -0.3432  0.0004 -0.7519
 7113TIP3    H145534   5.151   9.027   6.781 -0.3679 -0.4757 -0.1491
 7113TIP3    H245535   5.094   8.891   6.745 -0.9715 -0.1391 -0.4890
 7114TIP3   OH245536   5.794   1.682   6.004 -0.2098  0.1666 -0.3626
 7114TIP3    H145537   5.722   1.647   5.951 -0.2077 -1.0863  0.4235
 7114TIP3    H245538   5.834   1.604   6.044  2.6463  0.6096 -2.0745
 7115TIP3   OH245539   8.276   7.900   5.748 -0.0151  0.2461 -0.1027
 7115TIP3    H145540   8.277   7.900   5.652  1.1124 -3.0591 -0.2434
 7115TIP3    H245541   8.368   7.913   5.772 -0.2540  0.7872  0.5435
 7116TIP3   OH245542   6.361   5.154   5.232 -0.2765 -0.0868 -0.4395
 7116TIP3    H145543   6.304   5.162   5.156 -0.4667  2.3775 -0.1244
 7116TIP3    H245544   6.305   5.178   5.306 -0.2780 -3.0737  0.6456
 7117TIP3   OH245545   5.106   0.683   6.017  0.0211  0.5733  0.1545
 7117TIP3    H145546   5.127   0.703   6.109  1.1403  0.0996  0.0157
 7117TIP3    H245547   5.095   0.588   6.015  0.0170  0.5799 -0.1996
 7118TIP3   OH245548   8.823   7.725   5.774  0.1843 -0.4314  0.5915
 7118TIP3    H145549   8.833   7.661   5.845  0.6201  0.4810  1.3776
 7118TIP3    H245550   8.806   7.808   5.819  0.8467  0.2356 -0.3617
 7119TIP3   OH245551   4.860   7.022   5.306 -0.7222 -0.2155 -0.5672
 7119TIP3    H145552   4.844   6.984   5.392  0.6523 -1.3638 -0.8021
 7119TIP3    H245553   4.871   7.116   5.323  0.9178 -0.5980  0.7197
 7120TIP3   OH245554   7.785   5.866   5.977  0.7275  0.1510  0.0667
 7120TIP3    H145555   7.783   5.817   5.895  2.1329  2.9067 -1.7763
 7120TIP3    H245556   7.694   5.869   6.007  0.0546 -0.2368 -1.8510
 7121TIP3   OH245557   6.075   8.663   6.600 -0.7619 -0.7353  0.7715
 7121TIP3    H145558   6.166   8.695   6.606 -1.0052  0.3437 -0.5876
 7121TIP3    H245559   6.022   8.741   6.615 -1.3908 -0.6335 -1.6181
 7122TIP3   OH245560   3.808   0.593   5.222 -0.3584  0.4788  0.4418
 7122TIP3    H145561   3.768   0.513   5.187 -0.3151 -0.0751  1.6039
 7122TIP3    H245562   3.785   0.661   5.160 -1.9802 -0.0868  0.3919
 7123TIP3   OH245563   5.671   9.195   6.094  0.1192  0.5628 -0.0689
 7123TIP3    H145564   5.663   9.247   6.014  2.0413  1.0517 -0.0101
 7123TIP3    H245565   5.742   9.238   6.142  0.6634 -1.1601  0.7493
 7124TIP3   OH245566   8.718   5.006   6.587 -0.5183 -0.2910  0.1472
 7124TIP3    H145567   8.671   5.049   6.515  0.2805  1.8375  0.8062
 7124TIP3    H245568   8.792   4.964   6.545 -1.2768 -0.9996 -0.5216
 7125TIP3   OH245569   5.332   0.003   6.659 -0.5004 -0.4465  0.0055
 7125TIP3    H145570   5.349   0.090   6.625  0.4756 -0.6459 -0.0578
 7125TIP3    H245571   5.262   0.015   6.723  0.0802  0.5026  0.4858
 7126TIP3   OH245572   4.512   3.356   5.265  0.8194  0.6357  0.2423
 7126TIP3    H145573   4.431   3.307   5.275  0.8760  0.3662 -0.6093
 7126TIP3    H245574   4.498   3.412   5.189  1.0297  1.4127  0.7519
 7127TIP3   OH245575   1.033   7.224   4.998  0.4674 -0.2762 -0.2668
 7127TIP3    H145576   1.055   7.133   5.019 -2.0019 -0.7719  0.4179
 7127TIP3    H245577   0.944   7.220   4.964  0.6615  1.8053 -1.1704
 7128TIP3   OH245578   0.538   3.003   5.966  0.0815  0.4873  0.4565
 7128TIP3    H145579   0.554   3.085   6.014  1.0148  0.1829  0.6944
 7128TIP3    H245580   0.541   2.935   6.033  0.8165  0.1157  0.0604
 7129TIP3   OH245581   8.321   6.124   5.871  0.0051  0.0767 -0.6848
 7129TIP3    H145582   8.254   6.072   5.915  0.2671  0.9022  0.7585
 7129TIP3    H245583   8.377   6.060   5.828  0.2821 -0.8478  0.9997
 7130TIP3   OH245584   7.483   8.814   6.535 -0.3820  0.5695  0.2973
 7130TIP3    H145585   7.532   8.752   6.482 -1.7468 -1.0744  0.8625
 7130TIP3    H245586   7.541   8.889   6.545  0.7240  0.0391 -1.6934
 7131TIP3   OH245587   1.789   5.376   5.944 -0.6002  0.1338  0.2852
 7131TIP3    H145588   1.739   5.297   5.925 -0.2911  0.2276 -1.0081
 7131TIP3    H245589   1.789   5.382   6.040 -0.4729 -1.5259  0.4180
 7132TIP3   OH245590   4.803   2.465   5.697 -0.3378  0.5537  0.0656
 7132TIP3    H145591   4.827   2.505   5.613  1.8721 -0.3967  0.1669
 7132TIP3    H245592   4.856   2.512   5.762  0.1425 -0.5772  0.5307
 7133TIP3   OH245593   1.252   6.026   6.077  0.0288 -0.3793  0.2397
 7133TIP3    H145594   1.226   6.093   6.014  0.6975 -0.5770 -0.2577
 7133TIP3    H245595   1.240   6.068   6.162 -0.3285  0.0952 -0.0373
 7134TIP3   OH245596   0.073   8.670   5.775  0.0620  0.2259  0.5791
 7134TIP3    H145597   0.121   8.736   5.726  1.2557  1.2162  2.9151
 7134TIP3    H245598  -0.016   8.675   5.742  0.4047  2.1236 -0.1701
 7135TIP3   OH245599   8.375   7.919   5.118  0.0686 -0.2954 -0.4326
 7135TIP3    H145600   8.285   7.934   5.088  0.2944  0.5712 -0.7128
 7135TIP3    H245601   8.423   7.996   5.088  1.1152 -1.1744 -1.0950
 7136TIP3   OH245602   7.809   6.866   5.491 -0.0454  0.0994 -0.8149
 7136TIP3    H145603   7.725   6.895   5.527  0.1254  2.7924 -2.2475
 7136TIP3    H245604   7.870   6.874   5.564 -0.7996 -0.8169 -0.0515
 7137TIP3   OH245605   6.612   9.146   5.885  0.0055 -0.0996 -0.1988
 7137TIP3    H145606   6.612   9.066   5.938  0.0189  1.0586  1.6343
 7137TIP3    H245607   6.688   9.136   5.827 -0.1624 -1.5328 -0.2009
 7138TIP3   OH245608   0.239   0.570   6.533 -0.0414  0.6080 -0.2076
 7138TIP3    H145609   0.307   0.504   6.549  0.9288  1.6858  0.2416
 7138TIP3    H245610   0.178   0.527   6.473 -0.2613 -1.2372  1.2272
 7139TIP3   OH245611   0.868   1.949   5.170  0.1019  0.0598 -0.1927
 7139TIP3    H145612   0.914   1.942   5.086  2.3741 -0.4476  1.0236
 7139TIP3    H245613   0.920   2.012   5.220  0.1689 -1.4036  1.6699
 7140TIP3   OH245614   3.580   7.552   6.841 -0.7465  0.4463 -0.0588
 7140TIP3    H145615   3.586   7.642   6.809 -2.6919  0.4573 -0.4747
 7140TIP3    H245616   3.671   7.522   6.843  0.1035  2.8351  1.3580
 7141TIP3   OH245617   0.061   5.783   6.770 -0.2786 -0.3019  0.2061
 7141TIP3    H145618   0.052   5.705   6.825 -0.6589  0.1054  0.7410
 7141TIP3    H245619   0.156   5.796   6.762 -0.2177 -0.3597  0.7859
 7142TIP3   OH245620   3.259   4.776   6.591 -0.1905  0.7108 -0.5108
 7142TIP3    H145621   3.171   4.806   6.615  0.5017  2.1482  0.3458
 7142TIP3    H245622   3.265   4.688   6.627 -2.0087 -0.3102 -2.4281
 7143TIP3   OH245623   4.383   2.150   5.819  0.2363 -0.2398  0.2675
 7143TIP3    H145624   4.387   2.075   5.877 -2.7717 -0.7741 -0.0472
 7143TIP3    H245625   4.413   2.117   5.734  1.0424 -0.4479  0.6234
 7144TIP3   OH245626   0.864   7.099   6.094 -0.2062  0.4582 -0.1218
 7144TIP3    H145627   0.814   7.073   6.016  1.1460 -0.0521 -0.8439
 7144TIP3    H245628   0.849   7.029   6.156  1.7815 -1.1333 -1.3334
 7145TIP3   OH245629   1.319   1.020   4.991 -0.0373  0.7051  0.3659
 7145TIP3    H145630   1.381   1.042   4.921  2.5653 -0.1431  2.2502
 7145TIP3    H245631   1.328   0.925   5.002 -2.1566  0.4526  0.3605
 7146TIP3   OH245632   6.926   7.702   6.718 -0.1628  0.2762  0.5772
 7146TIP3    H145633   6.911   7.770   6.784 -0.0572 -1.1273  2.1104
 7146TIP3    H245634   6.970   7.747   6.646  0.7190  1.6438  1.9297
 7147TIP3   OH245635   4.708   0.978   5.375 -1.2193  0.2369 -0.2718
 7147TIP3    H145636   4.769   1.033   5.425 -0.7677  0.4871 -1.0935
 7147TIP3    H245637   4.762   0.908   5.339 -1.3100  0.7691 -1.4665
 7148TIP3   OH245638   4.360   2.726   7.074 -0.1512 -0.1100  0.0032
 7148TIP3    H145639   4.390   2.817   7.063  0.5362 -0.2143  0.9239
 7148TIP3    H245640   4.438   2.673   7.061 -0.8013 -0.6974 -1.8701
 7149TIP3   OH245641   6.964   0.793   6.326  0.1604 -0.3330  0.0742
 7149TIP3    H145642   6.897   0.725   6.336  1.4344 -2.0674 -2.3540
 7149TIP3    H245643   7.046   0.751   6.352  0.8320  0.6016 -0.4715
 7150TIP3   OH245644   3.450   5.895   6.158 -0.2959  0.2788 -0.1705
 7150TIP3    H145645   3.457   5.978   6.111  0.3918  0.7698  0.7768
 7150TIP3    H245646   3.360   5.894   6.192 -0.0090  1.1113  0.6545
 7151TIP3   OH245647   4.756   4.051   5.113 -0.4955  0.6559  0.3563
 7151TIP3    H145648   4.833   4.002   5.142 -2.3202 -2.4952  0.3762
 7151TIP3    H245649   4.685   4.020   5.169 -2.4614  0.7198 -1.9085
 7152TIP3   OH245650   8.880   3.029   5.193 -0.4305 -0.7113 -0.4484
 7152TIP3    H145651   8.834   2.950   5.222 -1.5403 -0.2414 -0.8836
 7152TIP3    H245652   8.862   3.094   5.262 -1.0042 -0.3272 -0.9476
 7153TIP3   OH245653   5.587   5.826   5.413 -0.2645  0.6673 -0.2597
 7153TIP3    H145654   5.642   5.748   5.399 -0.5344  0.3153  0.5520
 7153TIP3    H245655   5.506   5.791   5.450  0.2164  1.4414  1.6636
 7154TIP3   OH245656   8.846   6.909   5.197 -0.1435  0.0836  0.4690
 7154TIP3    H145657   8.838   6.816   5.175 -0.9010 -0.6720  3.5133
 7154TIP3    H245658   8.908   6.913   5.269 -0.1039  1.9810  0.4033
 7155TIP3   OH245659   8.943   1.662   5.119  0.1144  0.2739  0.3036
 7155TIP3    H145660   8.913   1.612   5.043  0.9909  1.4966 -0.9040
 7155TIP3    H245661   8.874   1.650   5.184 -0.9509 -0.3501 -0.8878
 7156TIP3   OH245662   0.886   0.238   5.235  0.6274 -0.6934 -0.1809
 7156TIP3    H145663   0.884   0.333   5.225 -0.3188 -0.7024 -0.1491
 7156TIP3    H245664   0.857   0.222   5.325 -0.8908 -1.0728 -0.7104
 7157TIP3   OH245665   1.898   1.862   5.833 -0.4824 -0.1557  0.1299
 7157TIP3    H145666   1.836   1.808   5.784 -1.1389  0.0546  0.7156
 7157TIP3    H245667   1.852   1.945   5.846  0.3577  0.4113 -0.4091
 7158TIP3   OH245668   8.270   3.431   6.478 -0.2592 -0.4586  0.1994
 7158TIP3    H145669   8.315   3.404   6.398  0.0556  1.2819 -0.2505
 7158TIP3    H245670   8.194   3.372   6.483 -1.2477  0.4415 -2.3283
 7159TIP3   OH245671   4.777   6.997   4.898 -0.1213 -0.2492 -0.4077
 7159TIP3    H145672   4.691   7.026   4.929  0.3207  0.1110  0.5110
 7159TIP3    H245673   4.766   6.985   4.804 -1.2778 -0.5762 -0.2397
 7160TIP3   OH245674   2.835   0.683   4.617  0.2841 -0.2168  0.1081
 7160TIP3    H145675   2.775   0.736   4.670 -2.6141 -2.1410 -0.9995
 7160TIP3    H245676   2.784   0.660   4.539  1.7246 -3.6612  0.0101
 7161TIP3   OH245677   1.541   1.741   5.170 -0.0022 -0.5175 -0.4921
 7161TIP3    H145678   1.527   1.677   5.240  0.9297 -0.1998  0.0069
 7161TIP3    H245679   1.511   1.698   5.091  1.1039 -1.7995 -0.2573
 7162TIP3   OH245680   8.283   7.356   5.334 -0.1030 -0.5075 -0.0318
 7162TIP3    H145681   8.232   7.377   5.413  0.4620 -1.2557  0.5459
 7162TIP3    H245682   8.285   7.260   5.332  0.2851 -0.4872 -0.6961
 7163TIP3   OH245683   4.944   4.700   6.456 -0.7604 -0.0002 -0.5813
 7163TIP3    H145684   4.918   4.726   6.368 -0.9159  1.3490 -0.1697
 7163TIP3    H245685   4.992   4.619   6.444 -0.7459  0.1765 -1.9124
 7164TIP3   OH245686   8.880   9.202   5.255  0.3934  0.0386 -0.5741
 7164TIP3    H145687   8.945   9.138   5.227  1.0489  1.5072 -2.7144
 7164TIP3    H245688   8.917   9.241   5.334  1.3339 -0.2755 -0.8474
 7165TIP3   OH245689   3.311   0.555   5.647 -0.5601 -0.1214 -0.0293
 7165TIP3    H145690   3.301   0.523   5.736  0.1663  2.3207  0.9897
 7165TIP3    H245691   3.391   0.514   5.615  0.3106  0.5527  1.2124
 7166TIP3   OH245692   4.488   0.490   5.655  0.0182 -0.1118  0.1539
 7166TIP3    H145693   4.541   0.430   5.604  0.0373  0.1380 -0.1185
 7166TIP3    H245694   4.441   0.542   5.590 -0.6894 -0.4440  0.3910
 7167TIP3   OH245695   1.869   4.936   6.796 -0.7158 -0.6598  0.3967
 7167TIP3    H145696   1.791   4.981   6.763 -0.4350 -0.6304 -0.2499
 7167TIP3    H245697   1.918   5.003   6.844  0.4515  0.1735 -1.8144
 7168TIP3   OH245698   8.218   5.832   5.116 -0.0751  0.6662  0.0939
 7168TIP3    H145699   8.227   5.768   5.046  1.1762  1.3462 -0.3886
 7168TIP3    H245700   8.126   5.858   5.112 -0.9320 -1.8638  1.0341
 7169TIP3   OH245701   5.398   4.560   6.205 -0.0164 -0.5350  0.0845
 7169TIP3    H145702   5.433   4.647   6.192  1.6946 -1.2738 -0.4891
 7169TIP3    H245703   5.406   4.545   6.300  1.1494 -0.6368 -0.0139
 7170TIP3   OH245704   4.475   6.644   5.652  0.0080 -0.4438 -0.3317
 7170TIP3    H145705   4.521   6.700   5.714 -0.7014 -0.9293  0.6684
 7170TIP3    H245706   4.431   6.704   5.593 -1.7109  0.1468  1.4319
 7171TIP3   OH245707   5.049   0.960   5.624 -0.3940 -0.2239  0.1230
 7171TIP3    H145708   5.144   0.954   5.633 -0.2801 -0.1370 -0.8731
 7171TIP3    H245709   5.016   0.874   5.649 -0.0047 -0.4269 -0.0681
 7172TIP3   OH245710   7.462   5.099   6.394 -1.0392 -0.8899 -0.6085
 7172TIP3    H145711   7.557   5.097   6.411 -1.1932  2.7848  1.7543
 7172TIP3    H245712   7.455   5.125   6.303  0.4244  2.1157  0.0177
 7173TIP3   OH245713   1.999   5.142   6.892  0.0307  0.2400  0.2027
 7173TIP3    H145714   2.076   5.133   6.837  1.3813  2.2842  1.6156
 7173TIP3    H245715   1.976   5.235   6.886 -0.0851  0.4320  2.5909
 7174TIP3   OH245716   2.503   7.379   6.441  0.2128 -0.2051  0.3344
 7174TIP3    H145717   2.456   7.449   6.486  0.0079 -1.0057  1.4378
 7174TIP3    H245718   2.594   7.392   6.466  0.3339  0.3214 -0.3760
 7175TIP3   OH245719   2.675   0.517   5.071  0.2043 -0.4990  0.3898
 7175TIP3    H145720   2.742   0.504   5.138 -0.3446 -1.2112  0.8065
 7175TIP3    H245721   2.681   0.439   5.016 -0.9363 -1.0442  1.0119
 7176TIP3   OH245722   2.770   6.655   5.790  0.2500  0.1118 -0.4161
 7176TIP3    H145723   2.789   6.581   5.732  1.1602  0.7666 -0.9851
 7176TIP3    H245724   2.824   6.726   5.756  0.5671  0.6138  1.0539
 7177TIP3   OH245725   6.857   2.293   5.758 -0.3931  0.4396  0.5894
 7177TIP3    H145726   6.769   2.268   5.730 -0.6959 -0.0956  1.9294
 7177TIP3    H245727   6.916   2.247   5.698 -0.9808  2.3583 -1.6096
 7178TIP3   OH245728   8.334   3.773   6.527 -0.1116  0.4036 -0.5281
 7178TIP3    H145729   8.258   3.830   6.540  1.3388  1.8605  2.7447
 7178TIP3    H245730   8.331   3.712   6.601  1.3827 -0.1148 -0.8580
 7179TIP3   OH245731   4.096   6.863   5.257  0.3951  0.0491 -0.1782
 7179TIP3    H145732   4.180   6.876   5.214  1.3961 -1.9706  1.0008
 7179TIP3    H245733   4.098   6.922   5.332  0.5723  0.3005 -0.3779
 7180TIP3   OH245734   3.651   3.505   6.152  0.7423 -0.4837 -0.1863
 7180TIP3    H145735   3.620   3.477   6.238  1.4816 -1.0752 -0.0939
 7180TIP3    H245736   3.585   3.473   6.090 -0.7535  1.5477  0.2854
 7181TIP3   OH245737   4.554   4.621   5.518 -0.1182  0.1495  0.3028
 7181TIP3    H145738   4.587   4.569   5.591  0.0974 -0.5248 -0.2651
 7181TIP3    H245739   4.460   4.626   5.532 -0.1923 -0.7449  0.1419
 7182TIP3   OH245740   6.581   7.487   5.774  0.7221 -0.7315 -0.3027
 7182TIP3    H145741   6.580   7.427   5.849 -0.1542  1.1137  1.2397
 7182TIP3    H245742   6.499   7.535   5.780  1.0784  0.1575 -1.8956
 7183TIP3   OH245743   4.669   6.994   6.179  0.3565  0.3211 -0.0696
 7183TIP3    H145744   4.636   7.052   6.248  0.2124  0.0029  0.1287
 7183TIP3    H245745   4.705   7.054   6.113 -1.5951  0.7397 -0.8208
 7184TIP3   OH245746   1.888   5.843   5.111  0.2238  0.1226 -0.1240
 7184TIP3    H145747   1.845   5.882   5.188 -0.8933 -0.2376 -0.5401
 7184TIP3    H245748   1.821   5.847   5.043  0.7837 -0.6982 -0.7351
 7185TIP3   OH245749   3.766   2.763   5.992 -0.3391 -0.0659  0.4123
 7185TIP3    H145750   3.735   2.674   6.005 -0.7446  0.0953  0.5638
 7185TIP3    H245751   3.818   2.759   5.911 -1.2035 -0.2326 -0.1461
 7186TIP3   OH245752   0.404   9.180   5.014  0.7159  0.4101  0.2433
 7186TIP3    H145753   0.469   9.136   4.959 -1.5835 -1.7409 -0.9862
 7186TIP3    H245754   0.440   9.176   5.103  1.9031 -1.4762 -0.2719
 7187TIP3   OH245755   2.494   6.165   6.648 -0.1132  0.0492  0.1429
 7187TIP3    H145756   2.517   6.155   6.740 -0.2001 -1.3202  0.0288
 7187TIP3    H245757   2.534   6.090   6.604 -0.0919  0.6675 -0.9384
 7188TIP3   OH245758   6.891   2.976   5.968  0.3438 -0.0722 -0.5665
 7188TIP3    H145759   6.908   2.912   5.899 -0.0848 -1.3154  0.4309
 7188TIP3    H245760   6.862   2.923   6.042 -0.4907  1.3401  0.1480
 7189TIP3   OH245761   3.599   9.064   5.190  0.0838  0.2458  0.0974
 7189TIP3    H145762   3.604   9.024   5.277 -1.9676 -0.6368 -0.1393
 7189TIP3    H245763   3.529   9.128   5.197  0.1427  0.4261 -0.8153
 7190TIP3   OH245764   3.379   5.967   6.938  0.0698 -0.3047  0.4192
 7190TIP3    H145765   3.410   5.885   6.977  1.3626 -0.3405 -0.6167
 7190TIP3    H245766   3.289   5.975   6.968  0.3617 -1.3897  1.6847
 7191TIP3   OH245767   4.132   3.873   5.584 -0.0437 -0.0228  0.2343
 7191TIP3    H145768   4.173   3.933   5.647  2.0280 -2.0394  0.9618
 7191TIP3    H245769   4.168   3.899   5.499 -0.7090  0.9963  0.2582
 7192TIP3   OH245770   2.995   7.736   5.549 -0.1497  0.6770  0.7019
 7192TIP3    H145771   2.989   7.648   5.586  0.8790  0.6074  0.7333
 7192TIP3    H245772   2.915   7.780   5.579  0.5176  0.5653  2.8871
 7193TIP3   OH245773   7.952   4.977   4.861  0.2320  0.1970  0.3473
 7193TIP3    H145774   7.944   4.888   4.829 -0.8136  0.7684 -1.1074
 7193TIP3    H245775   7.883   4.985   4.927  1.0211 -0.3604  1.2668
 7194TIP3   OH245776   4.725   0.923   5.840  0.1598 -0.2161  0.0598
 7194TIP3    H145777   4.714   0.829   5.824 -0.5435 -0.6473  2.5766
 7194TIP3    H245778   4.818   0.932   5.862 -0.1198 -0.7283  1.6539
 7195TIP3   OH245779   0.203   8.193   4.784 -0.7643 -0.2905 -0.5557
 7195TIP3    H145780   0.283   8.242   4.767  0.1069 -2.0354 -1.7177
 7195TIP3    H245781   0.132   8.253   4.758  0.0879  1.3310  0.6330
 7196TIP3   OH245782   7.691   7.082   6.150 -0.2889  0.1064 -0.1643
 7196TIP3    H145783   7.615   7.023   6.144 -1.7498  1.7915  0.7827
 7196TIP3    H245784   7.725   7.067   6.238  0.9333 -1.1170 -0.8121
 7197TIP3   OH245785   6.058   7.147   5.059  0.5005  0.2198  0.1642
 7197TIP3    H145786   6.075   7.220   5.118  0.0504  0.3177  0.1812
 7197TIP3    H245787   6.035   7.189   4.976 -0.9946  0.1377  0.5110
 7198TIP3   OH245788   4.517   2.286   5.421 -0.3625  0.3665  0.5420
 7198TIP3    H145789   4.570   2.352   5.377  1.6718 -2.0946 -0.9774
 7198TIP3    H245790   4.540   2.293   5.514  1.5045  0.3652  0.1022
 7199TIP3   OH245791   8.281   2.819   5.821  0.0680  0.7341 -0.4203
 7199TIP3    H145792   8.197   2.787   5.855 -1.0040  1.6854 -2.0793
 7199TIP3    H245793   8.323   2.861   5.897 -0.2660 -0.9737  0.7893
 7200TIP3   OH245794   2.239   6.450   5.147 -0.1214 -0.3779  0.1812
 7200TIP3    H145795   2.280   6.434   5.232  2.5913 -0.2883 -1.0099
 7200TIP3    H245796   2.232   6.545   5.141  2.4228 -0.1830 -0.7927
 7201TIP3   OH245797   3.019   5.754   5.951 -0.1758  0.1089  0.1216
 7201TIP3    H145798   2.986   5.821   6.011 -2.0748 -1.3151  0.7796
 7201TIP3    H245799   2.982   5.779   5.866  0.0708  0.5013  0.1252
 7202TIP3   OH245800   2.973   1.932   5.615 -0.1705 -0.3186  0.8723
 7202TIP3    H145801   2.935   1.845   5.604  1.3551 -1.0202  0.8804
 7202TIP3    H245802   2.946   1.959   5.703  0.0737 -1.1706  1.2180
 7203TIP3   OH245803   3.419   8.264   5.278  0.2921  0.2066  0.2587
 7203TIP3    H145804   3.511   8.238   5.281 -0.0490 -1.2476 -0.6796
 7203TIP3    H245805   3.420   8.351   5.239  1.2846  0.3262  0.5154
 7204TIP3   OH245806   1.947   2.512   4.737 -0.4543  0.0253 -0.5876
 7204TIP3    H145807   1.923   2.425   4.704 -1.9155  0.4162 -0.5973
 7204TIP3    H245808   2.013   2.543   4.674 -0.9474 -0.5039 -1.3890
 7205TIP3   OH245809   7.714   7.281   6.622  0.8020  0.3045  0.0646
 7205TIP3    H145810   7.695   7.226   6.698  0.4732 -1.0482 -0.9582
 7205TIP3    H245811   7.695   7.370   6.652 -1.3925 -0.3784  0.9430
 7206TIP3   OH245812   6.792   3.934   5.753  0.1718 -0.1001 -0.4014
 7206TIP3    H145813   6.827   3.983   5.827  1.1706  0.8335 -1.4562
 7206TIP3    H245814   6.853   3.861   5.742  0.1233 -0.1379 -0.4195
 7207TIP3   OH245815   7.388   4.874   5.266  0.5190  0.7848  0.4686
 7207TIP3    H145816   7.422   4.789   5.295 -2.7558 -1.2036 -1.0165
 7207TIP3    H245817   7.323   4.897   5.332 -0.7776  0.5609 -0.6965
 7208TIP3   OH245818   7.832   3.521   6.021 -0.4062  0.5330  0.5024
 7208TIP3    H145819   7.842   3.499   6.114 -0.0517  1.3110  0.6548
 7208TIP3    H245820   7.794   3.608   6.021 -2.7969 -0.4304 -0.0897
 7209TIP3   OH245821   6.261   0.387   5.767 -0.3923  0.2390 -0.0825
 7209TIP3    H145822   6.305   0.310   5.804 -0.8661 -0.1805 -0.3836
 7209TIP3    H245823   6.316   0.414   5.694 -1.1375 -0.8995 -1.1023
 7210TIP3   OH245824   0.054   0.598   5.780  0.0770 -0.3120 -0.6295
 7210TIP3    H145825   0.084   0.688   5.773 -2.0058  0.3313 -2.2505
 7210TIP3    H245826   0.133   0.548   5.802  1.1377  1.9487  1.1031
 7211TIP3   OH245827   6.312   7.559   5.982  0.5146  0.1268  1.0559
 7211TIP3    H145828   6.320   7.487   5.920  0.1786 -2.2753  3.6261
 7211TIP3    H245829   6.219   7.580   5.982  0.3104 -0.7334  1.6195
 7212TIP3   OH245830   3.354   4.544   6.181 -0.0302 -0.2345 -0.2288
 7212TIP3    H145831   3.288   4.483   6.213 -1.1838 -0.2196 -2.3371
 7212TIP3    H245832   3.318   4.631   6.201 -2.1019 -0.1179 -3.5551
 7213TIP3   OH245833   3.265   2.539   5.129  0.5107  0.4899 -0.4436
 7213TIP3    H145834   3.346   2.513   5.085  0.7322 -0.7618  0.6452
 7213TIP3    H245835   3.293   2.565   5.217 -0.3404 -0.8172  0.2420
 7214TIP3   OH245836   6.107   2.254   6.135  0.3324  0.4797 -0.1199
 7214TIP3    H145837   6.099   2.166   6.097  1.0183  1.0587 -1.7136
 7214TIP3    H245838   6.019   2.275   6.166  0.0288 -0.5332 -0.2591
 7215TIP3   OH245839   6.179   2.147   5.316 -0.2389 -0.2192  0.2272
 7215TIP3    H145840   6.084   2.159   5.326 -0.2929 -0.9939  0.7998
 7215TIP3    H245841   6.215   2.176   5.400 -0.0983 -1.0993  0.4824
 7216TIP3   OH245842   0.643   2.397   6.065  0.5680 -0.5594 -0.1837
 7216TIP3    H145843   0.583   2.407   6.139 -0.2091 -0.7768 -0.7740
 7216TIP3    H245844   0.677   2.308   6.074 -2.9596 -2.3702 -2.5334
 7217TIP3   OH245845   0.363   0.160   6.665  0.2753  0.1083  0.7086
 7217TIP3    H145846   0.433   0.097   6.677 -1.2689 -2.0194 -0.7060
 7217TIP3    H245847   0.313   0.156   6.747 -2.4450 -4.1906 -0.7887
 7218TIP3   OH245848   3.757   5.192   6.455 -0.0480 -0.5758  0.0325
 7218TIP3    H145849   3.662   5.205   6.459 -0.1262 -0.8551 -0.7607
 7218TIP3    H245850   3.774   5.122   6.518 -0.4907 -1.1362 -0.4572
 7219TIP3   OH245851   7.202   6.765   5.915  0.1814 -1.1385 -0.1794
 7219TIP3    H145852   7.218   6.842   5.860  0.4541 -0.9250  0.1971
 7219TIP3    H245853   7.198   6.800   6.004  0.5845 -1.6012  0.0237
 7220TIP3   OH245854   7.801   8.066   5.313  0.1162  0.3210  0.5808
 7220TIP3    H145855   7.720   8.053   5.264  1.0866  1.2156 -1.3327
 7220TIP3    H245856   7.860   7.999   5.281  0.5307  0.4398  1.0777
 7221TIP3   OH245857   4.413   7.845   6.415  0.3154  0.2443  0.1815
 7221TIP3    H145858   4.324   7.810   6.407  0.0365  1.1564 -1.1497
 7221TIP3    H245859   4.401   7.934   6.446  0.9316 -0.2781  2.0727
 7222TIP3   OH245860   3.663   2.957   5.672  0.1778 -0.4735  0.2085
 7222TIP3    H145861   3.708   3.025   5.722 -1.8211  0.4061  0.9362
 7222TIP3    H245862   3.692   2.970   5.581 -0.0881  1.3399  0.3435
 7223TIP3   OH245863   6.893   8.609   6.826  0.1521 -0.0696  0.2261
 7223TIP3    H145864   6.985   8.584   6.837  0.1962 -0.1071 -0.1868
 7223TIP3    H245865   6.892   8.704   6.830 -0.2793 -0.1062  3.7675
 7224TIP3   OH245866   8.310   6.748   6.601 -0.1876  0.2297  0.0220
 7224TIP3    H145867   8.369   6.814   6.638  0.4434  0.2612 -0.9880
 7224TIP3    H245868   8.224   6.769   6.637  0.5923 -0.6611  2.6837
 7225TIP3   OH245869   2.905   0.860   6.308 -0.0840  0.3134  0.3404
 7225TIP3    H145870   2.914   0.766   6.326 -0.6465  0.4055  1.1546
 7225TIP3    H245871   2.958   0.902   6.375 -0.3150  0.5930  0.3499
 7226TIP3   OH245872   8.804   7.809   6.300  1.0176  0.0206 -0.1277
 7226TIP3    H145873   8.709   7.797   6.293  0.9569 -0.8728  1.6571
 7226TIP3    H245874   8.822   7.888   6.249 -0.4001 -0.8102 -2.0311
 7227TIP3   OH245875   4.860   2.789   6.367 -0.4757  0.5337 -0.1456
 7227TIP3    H145876   4.918   2.801   6.292 -0.9095  1.5874 -0.3199
 7227TIP3    H245877   4.881   2.861   6.427 -0.5608  0.0563  0.4788
 7228TIP3   OH245878   5.368   7.561   7.094 -0.1938  0.1159 -0.2226
 7228TIP3    H145879   5.278   7.586   7.112 -0.1290 -0.9369  1.8089
 7228TIP3    H245880   5.380   7.478   7.139  1.5929 -0.1338 -1.0523
 7229TIP3   OH245881   1.478   7.106   4.979  0.0403 -0.4341  0.0514
 7229TIP3    H145882   1.466   7.123   5.072  1.0250  0.4617  0.0395
 7229TIP3    H245883   1.430   7.176   4.935  0.6763 -0.0713 -0.0794
 7230TIP3   OH245884   4.108   6.274   6.332 -0.3029 -0.4202 -0.1930
 7230TIP3    H145885   4.124   6.365   6.356 -0.4326 -0.8434  1.6973
 7230TIP3    H245886   4.036   6.278   6.270 -0.3465  0.7617 -0.0973
 7231TIP3   OH245887   6.978   1.404   5.717 -0.4296 -0.6009 -0.3658
 7231TIP3    H145888   6.883   1.412   5.717 -0.4611  0.4239 -3.6139
 7231TIP3    H245889   6.996   1.327   5.771 -3.2505 -1.9791 -1.1983
 7232TIP3   OH245890   8.906   1.559   5.777  0.6533  0.1830  0.0310
 7232TIP3    H145891   8.959   1.628   5.818  0.9049  0.0482 -0.0669
 7232TIP3    H245892   8.965   1.516   5.716  0.3426  0.2346 -0.3120
 7233TIP3   OH245893   4.247   1.731   6.225 -0.0401 -0.0268  0.6037
 7233TIP3    H145894   4.255   1.694   6.313  3.2159  1.4129  1.0635
 7233TIP3    H245895   4.182   1.801   6.235  0.0476 -0.0978  1.8213
 7234TIP3   OH245896   3.954   0.514   5.660  0.0035  0.2812  0.1451
 7234TIP3    H145897   3.992   0.542   5.577  1.4109 -3.6823 -0.7958
 7234TIP3    H245898   3.862   0.498   5.640 -0.0724  1.0381 -0.1375
 7235TIP3   OH245899   6.647   0.073   6.820 -0.1692  0.5980 -0.4547
 7235TIP3    H145900   6.560   0.106   6.842 -0.2576  0.3954 -0.4956
 7235TIP3    H245901   6.667   0.112   6.735 -0.8817 -0.5627 -1.1930
 7236TIP3   OH245902   3.830   6.037   7.065  0.1436  0.1202  0.0973
 7236TIP3    H145903   3.757   6.096   7.088  0.4559  0.4363  0.2839
 7236TIP3    H245904   3.787   5.962   7.024 -0.1454  1.3089 -1.9117
 7237TIP3   OH245905   8.590   4.937   6.812  0.4165  0.2812 -0.2409
 7237TIP3    H145906   8.626   4.973   6.731  0.3652 -2.1502 -1.4382
 7237TIP3    H245907   8.506   4.899   6.786 -0.3339  0.7863  1.3105
 7238TIP3   OH245908   5.804   2.766   6.100 -0.2816  0.2119 -0.0434
 7238TIP3    H145909   5.727   2.798   6.147 -1.1539  1.8126 -2.3965
 7238TIP3    H245910   5.866   2.838   6.102  0.2358 -0.2219 -0.1230
 7239TIP3   OH245911   8.876   9.212   6.086  0.0913 -0.1156  0.1274
 7239TIP3    H145912   8.887   9.305   6.109 -0.6107  0.0048  0.0128
 7239TIP3    H245913   8.785   9.206   6.056  0.6315 -0.5105 -1.4953
 7240TIP3   OH245914   7.466   6.929   6.156 -0.1503 -0.1206 -0.1510
 7240TIP3    H145915   7.377   6.951   6.128 -0.3255  2.7381  2.1770
 7240TIP3    H245916   7.454   6.866   6.227 -0.1219 -1.3828 -1.2215
 7241TIP3   OH245917   1.293   2.703   4.897  0.7713  0.3340 -0.1689
 7241TIP3    H145918   1.326   2.666   4.979 -1.7428 -0.3188  0.6662
 7241TIP3    H245919   1.371   2.725   4.847  2.4357  1.2912  2.6173
 7242TIP3   OH245920   4.759   8.544   5.448 -0.0551  0.2644 -0.4897
 7242TIP3    H145921   4.732   8.606   5.380 -3.1935  0.1014  0.4357
 7242TIP3    H245922   4.747   8.591   5.530 -0.4865 -0.8529  0.1173
 7243TIP3   OH245923   8.039   6.420   5.187  0.0186  0.2955  0.0095
 7243TIP3    H145924   8.012   6.425   5.278 -1.9341  0.3766 -0.5356
 7243TIP3    H245925   7.993   6.344   5.152 -2.1122  2.2475 -1.7518
 7244TIP3   OH245926   3.284   3.783   6.521 -0.5070 -0.0962 -0.1327
 7244TIP3    H145927   3.190   3.797   6.512 -0.7112 -0.8569  0.6005
 7244TIP3    H245928   3.291   3.717   6.590  0.4615 -1.4743 -1.4618
 7245TIP3   OH245929   7.200   8.773   6.459  0.9878  0.1672 -0.0951
 7245TIP3    H145930   7.288   8.777   6.497  0.3317  4.8833  1.5882
 7245TIP3    H245931   7.213   8.800   6.368  1.3255  1.1960  0.2373
 7246TIP3   OH245932   6.011   1.701   5.839 -0.0625  0.2616 -0.1515
 7246TIP3    H145933   5.958   1.729   5.914 -2.6078  0.8608 -2.0341
 7246TIP3    H245934   5.991   1.766   5.771  4.3241  1.4217 -0.6297
 7247TIP3   OH245935   7.998   8.449   6.570 -0.3435  0.0887  0.2289
 7247TIP3    H145936   8.026   8.406   6.650 -1.0177 -0.5824  0.1198
 7247TIP3    H245937   8.022   8.541   6.582  0.1006 -0.1132  0.9401
 7248TIP3   OH245938   5.224   1.321   5.108 -0.0526  0.2597 -0.3523
 7248TIP3    H145939   5.228   1.413   5.080 -0.9034 -0.2996 -2.4769
 7248TIP3    H245940   5.139   1.313   5.151 -0.7101  0.1075 -1.6490
 7249TIP3   OH245941   0.555   2.003   4.618  0.3046  0.2637 -0.0229
 7249TIP3    H145942   0.488   1.936   4.634 -0.5940  1.4400  1.2591
 7249TIP3    H245943   0.625   1.982   4.680 -0.1134  0.6763  0.5991
 7250TIP3   OH245944   6.398   7.158   6.362 -0.2636  0.4649  0.0658
 7250TIP3    H145945   6.367   7.097   6.429  0.7374 -0.1007  0.0311
 7250TIP3    H245946   6.338   7.233   6.368 -0.2987  0.3484  1.4628
 7251TIP3   OH245947   6.352   5.082   6.017 -0.4323  0.0854 -0.2601
 7251TIP3    H145948   6.286   5.015   5.997 -0.6561  0.0683  0.5042
 7251TIP3    H245949   6.431   5.053   5.971 -0.8063 -0.1761 -0.7470
 7252TIP3   OH245950   2.387   5.580   6.507 -0.4409  0.2309 -0.1289
 7252TIP3    H145951   2.315   5.643   6.516 -0.6144  0.0976 -0.5673
 7252TIP3    H245952   2.389   5.534   6.590 -1.4927 -0.4288 -0.4555
 7253TIP3   OH245953   0.766   5.794   6.646  0.2439  0.3462  0.4136
 7253TIP3    H145954   0.691   5.735   6.638  0.6065 -0.2176  1.0333
 7253TIP3    H245955   0.819   5.776   6.568 -0.1618  0.6024  0.0757
 7254TIP3   OH245956   4.347   1.687   5.518  0.1837  0.4590  0.0303
 7254TIP3    H145957   4.417   1.705   5.581 -1.4546 -1.2677  2.5239
 7254TIP3    H245958   4.287   1.761   5.527  0.4362  0.6962 -0.2317
 7255TIP3   OH245959   8.469   5.282   6.367  0.1543 -0.2671  0.2620
 7255TIP3    H145960   8.423   5.349   6.317 -0.1591 -1.0413 -0.5017
 7255TIP3    H245961   8.513   5.331   6.437  0.1589  0.7634 -0.4374
 7256TIP3   OH245962   4.323   3.165   5.282  0.0593 -0.2033 -0.2563
 7256TIP3    H145963   4.258   3.133   5.220 -0.0557  1.2349 -0.9108
 7256TIP3    H245964   4.351   3.086   5.330 -0.9697 -1.0914 -1.0604
 7257TIP3   OH245965   3.905   0.868   5.855 -0.1047 -0.7815 -0.2520
 7257TIP3    H145966   3.920   0.853   5.762  0.2160 -1.9588 -0.0162
 7257TIP3    H245967   3.979   0.826   5.899  0.3630  0.7401  0.4917
 7258TIP3   OH245968   3.337   7.109   5.575 -0.4793 -0.1876  0.1415
 7258TIP3    H145969   3.411   7.145   5.527 -0.4056  0.5726  0.8119
 7258TIP3    H245970   3.367   7.022   5.602  0.5740  0.4941  1.2723
 7259TIP3   OH245971   6.719   5.367   5.410  0.4361  0.3146  0.4508
 7259TIP3    H145972   6.715   5.316   5.329  0.9927 -0.6839  1.0338
 7259TIP3    H245973   6.691   5.307   5.478  1.3436  0.7040  1.1901
 7260TIP3   OH245974   2.720   7.737   5.274 -0.2548  0.3609 -0.1229
 7260TIP3    H145975   2.625   7.729   5.284 -0.3936  1.8073 -0.0507
 7260TIP3    H245976   2.754   7.651   5.301 -1.4285  0.3292  1.4289
 7261TIP3   OH245977   1.002   2.509   6.879  0.3440 -0.1636 -0.2453
 7261TIP3    H145978   1.065   2.487   6.947  0.8988 -1.2922 -1.0763
 7261TIP3    H245979   0.968   2.424   6.850 -2.0455  0.4163  0.5918
 7262TIP3   OH245980   6.303   8.204   5.265  0.0956  0.0271  0.2188
 7262TIP3    H145981   6.281   8.116   5.235  2.5412  0.2150 -2.5703
 7262TIP3    H245982   6.385   8.193   5.313  1.1314  0.8832 -1.2873
 7263TIP3   OH245983   1.797   9.162   5.153 -0.0580  0.2307  0.6038
 7263TIP3    H145984   1.763   9.078   5.124  0.7492  0.0497  0.1511
 7263TIP3    H245985   1.850   9.141   5.230  1.1597  0.1355 -0.2352
 7264TIP3   OH245986   7.411   1.391   5.772  0.1800 -0.0330 -0.0419
 7264TIP3    H145987   7.331   1.437   5.795  0.1316  0.0507 -0.3732
 7264TIP3    H245988   7.410   1.386   5.676 -0.7995 -2.4750  0.0257
 7265TIP3   OH245989   3.340   1.432   9.269  0.4898  0.6612 -0.1689
 7265TIP3    H145990   3.306   1.494   9.333 -1.0944  0.4706 -0.7659
 7265TIP3    H245991   3.262   1.386   9.236  1.5108 -0.9828 -0.4363
 7266TIP3   OH245992   2.193   6.719   5.099 -0.2325  0.3082  0.3642
 7266TIP3    H145993   2.229   6.778   5.165  1.2128 -0.2195  0.0804
 7266TIP3    H245994   2.102   6.747   5.089  0.1635  1.8807  0.8941
 7267TIP3   OH245995   1.050   0.043   5.362  0.3394  0.2759 -0.0529
 7267TIP3    H145996   1.074   0.124   5.405  2.3990 -0.5148  0.3898
 7267TIP3    H245997   1.010   0.070   5.280 -1.6263  1.7612  1.3107
 7268TIP3   OH245998   0.400   7.138   6.228 -0.0783 -0.1162  0.0141
 7268TIP3    H145999   0.486   7.160   6.262 -0.2497  0.9844 -0.2479
 7268TIP3    H246000   0.400   7.042   6.223  1.1346 -0.1232 -0.0314
 7269TIP3   OH246001   3.391   8.696   5.964 -0.2257 -0.3514  0.3014
 7269TIP3    H146002   3.485   8.678   5.959 -0.1342 -0.2364  1.2640
 7269TIP3    H246003   3.351   8.628   5.911  0.5457  1.6443 -3.0968
 7270TIP3   OH246004   7.470   2.827   5.067  0.2020 -0.0571 -0.1914
 7270TIP3    H146005   7.540   2.763   5.055 -0.5409 -0.7589 -0.8900
 7270TIP3    H246006   7.391   2.783   5.037 -0.4132  1.0110 -0.2135
 7271TIP3   OH246007   6.301   1.931   6.355  1.0997 -0.2383 -0.7046
 7271TIP3    H146008   6.338   2.018   6.342  0.8864  0.1438  1.0646
 7271TIP3    H246009   6.263   1.933   6.442 -0.3152 -1.6205 -1.2296
 7272TIP3   OH246010   1.912   8.720   5.388 -0.1215 -0.1389  0.4324
 7272TIP3    H146011   1.896   8.650   5.451 -0.8559  2.0995  2.9293
 7272TIP3    H246012   2.008   8.724   5.381 -0.0788 -1.9687 -0.5447
 7273TIP3   OH246013   2.236   5.029   6.050  0.0584  0.1234 -0.0444
 7273TIP3    H146014   2.247   5.090   6.123 -1.5792 -0.2622  0.5551
 7273TIP3    H246015   2.280   5.072   5.977  0.3056  1.2869  0.7537
 7274TIP3   OH246016   1.801   4.931   7.246 -0.7117  0.4143  0.3147
 7274TIP3    H146017   1.742   5.006   7.245  0.1897  1.2377  2.5263
 7274TIP3    H246018   1.888   4.969   7.237 -0.2847 -0.4330  0.7220
 7275TIP3   OH246019   7.039   6.595   5.491 -0.4996 -0.1928 -0.3686
 7275TIP3    H146020   6.992   6.629   5.414  2.3118 -0.2015 -2.2272
 7275TIP3    H246021   7.032   6.665   5.556 -0.5826  1.0528 -1.6660
 7276TIP3   OH246022   5.894   2.137   5.824 -0.4237  0.4128 -0.3503
 7276TIP3    H146023   5.962   2.071   5.839 -1.9180 -1.0195  0.4930
 7276TIP3    H246024   5.926   2.215   5.869  0.3003 -0.4811  0.7596
 7277TIP3   OH246025   1.820   4.500   6.159  0.1004  0.2830  0.0119
 7277TIP3    H146026   1.768   4.423   6.185 -0.6083  0.2194 -1.5252
 7277TIP3    H246027   1.897   4.463   6.115  1.7939  0.3552  2.6718
 7278TIP3   OH246028   3.393   8.650   5.589 -0.6985  0.1274  0.0526
 7278TIP3    H146029   3.431   8.693   5.666 -0.9008 -1.4895  1.0919
 7278TIP3    H246030   3.302   8.634   5.614 -0.4784 -1.4078 -0.0640
 7279TIP3   OH246031   8.235   3.660   5.100 -0.3735 -0.1063  0.4525
 7279TIP3    H146032   8.221   3.568   5.079 -0.7802  0.0655 -0.0277
 7279TIP3    H246033   8.173   3.708   5.046  0.4589  0.5147  0.0188
 7280TIP3   OH246034   0.514   8.091   4.942  0.0701 -0.2068 -0.0339
 7280TIP3    H146035   0.572   8.167   4.946 -0.3289  0.0752  0.4477
 7280TIP3    H246036   0.574   8.016   4.944  0.6274  0.0540 -2.6637
 7281TIP3   OH246037   6.959   6.227   5.708 -0.5669  0.3027 -0.4386
 7281TIP3    H146038   6.877   6.268   5.679  0.1427  0.2370 -2.7215
 7281TIP3    H246039   6.951   6.136   5.680 -0.6504 -0.3107  1.4461
 7282TIP3   OH246040   3.701   6.900   6.432 -0.0774  0.2167 -0.4028
 7282TIP3    H146041   3.620   6.871   6.390 -0.8848  0.4547  0.9132
 7282TIP3    H246042   3.771   6.852   6.388 -0.9174  0.1405 -1.6887
 7283TIP3   OH246043   5.057   1.977   6.540  0.2297 -0.0305 -0.3104
 7283TIP3    H146044   5.042   2.046   6.604 -0.4553  0.9751 -1.5118
 7283TIP3    H246045   4.969   1.950   6.512  0.4630  1.2720 -2.5828
 7284TIP3   OH246046   0.911   1.279   4.979 -0.2462 -0.3822  0.2310
 7284TIP3    H146047   0.960   1.197   4.977 -0.1149 -0.3026  0.1682
 7284TIP3    H246048   0.852   1.270   5.054 -0.8012 -0.8543 -0.2574
 7285TIP3   OH246049   9.017   1.972   6.545 -1.3949  0.0805  0.1345
 7285TIP3    H146050   8.937   1.979   6.596 -0.5712 -0.4459  1.5663
 7285TIP3    H246051   8.988   1.968   6.454 -2.9355  0.5926  0.5821
 7286TIP3   OH246052   3.192   3.168   5.815 -0.4032  0.6274 -0.0539
 7286TIP3    H146053   3.210   3.178   5.908 -1.7192 -3.4408  0.8142
 7286TIP3    H246054   3.111   3.218   5.801 -1.6278 -0.7877  1.6491
 7287TIP3   OH246055   4.808   4.327   5.582 -0.6185  0.4733  0.0115
 7287TIP3    H146056   4.833   4.392   5.648  0.6674  1.6235 -1.5322
 7287TIP3    H246057   4.879   4.264   5.582  0.5656  1.7082 -1.7708
 7288TIP3   OH246058   0.822   3.378   6.216  0.0258  0.2937  0.9631
 7288TIP3    H146059   0.906   3.333   6.216  0.4420  1.0539  0.9051
 7288TIP3    H246060   0.836   3.456   6.269 -0.2226  1.1666 -0.1970
 7289TIP3   OH246061   8.077   5.356   5.883  0.6043 -0.0589 -0.0865
 7289TIP3    H146062   8.011   5.425   5.891  1.6014  1.0773 -1.2343
 7289TIP3    H246063   8.160   5.401   5.899  1.2073 -1.1960  0.0503
 7290TIP3   OH246064   0.273   2.566   5.305  0.5733 -0.3281 -0.1360
 7290TIP3    H146065   0.321   2.648   5.316 -0.9818  0.5650  0.2129
 7290TIP3    H246066   0.276   2.549   5.210  1.9812 -0.5772 -0.0700
 7291TIP3   OH246067   1.624   7.410   6.702 -0.2105 -0.5147 -0.2552
 7291TIP3    H146068   1.659   7.350   6.767 -0.3586 -0.0853  0.2342
 7291TIP3    H246069   1.576   7.476   6.753  0.5994  0.4582 -0.7096
 7292TIP3   OH246070   6.475   3.386   5.017  0.4966 -0.0344  0.1443
 7292TIP3    H146071   6.567   3.369   5.037  0.3961 -2.3323 -0.9754
 7292TIP3    H246072   6.473   3.401   4.922 -0.3667 -0.9899 -0.0132
 7293TIP3   OH246073   2.168   4.379   6.426 -0.2374 -0.2760  0.3358
 7293TIP3    H146074   2.197   4.288   6.426 -0.7372 -0.4410  1.1059
 7293TIP3    H246075   2.195   4.413   6.340  0.2305 -1.0539  0.1719
 7294TIP3   OH246076   4.550   3.096   5.964 -0.2477 -0.2566 -0.0318
 7294TIP3    H146077   4.524   3.152   5.892 -0.8587 -1.2519 -0.6048
 7294TIP3    H246078   4.579   3.015   5.923  0.3174 -0.4921  0.7939
 7295TIP3   OH246079   1.079   7.466   5.154 -0.4145 -0.1191  0.1162
 7295TIP3    H146080   1.056   7.545   5.105  0.7212 -0.1782 -0.5451
 7295TIP3    H246081   1.036   7.395   5.107 -0.3704 -0.0332 -0.0539
 7296TIP3   OH246082   2.654   3.876   5.124  0.5468  0.1840 -0.4043
 7296TIP3    H146083   2.728   3.823   5.094  0.3337  0.5153 -1.5512
 7296TIP3    H246084   2.577   3.825   5.101  0.3801 -1.0502  2.4513
 7297TIP3   OH246085   5.124   7.398   5.774 -0.2007 -0.0998 -0.5749
 7297TIP3    H146086   5.099   7.475   5.827  0.0978 -0.8419  0.6961
 7297TIP3    H246087   5.219   7.398   5.777 -0.2064 -0.7445 -0.2124
 7298TIP3   OH246088   7.284   4.718   4.844  0.3510  0.2855 -0.1043
 7298TIP3    H146089   7.344   4.661   4.795  1.5860  1.9232 -0.5833
 7298TIP3    H246090   7.198   4.699   4.806  0.8550 -0.6187 -0.8630
 7299TIP3   OH246091   2.635   0.821   4.776  0.1260  0.6361 -0.1236
 7299TIP3    H146092   2.546   0.809   4.809 -0.6026  2.0986 -1.4159
 7299TIP3    H246093   2.676   0.880   4.839  0.2105 -0.0305  0.4682
 7300TIP3   OH246094   3.727   0.271   6.203  0.2577  0.7603  0.5173
 7300TIP3    H146095   3.722   0.223   6.120  0.5881  1.6918 -0.0639
 7300TIP3    H246096   3.637   0.269   6.237 -0.6593  3.0385 -1.4565
 7301TIP3   OH246097   7.937   0.576   7.227 -0.0027 -0.1776  0.5508
 7301TIP3    H146098   7.844   0.594   7.238 -0.1733  0.6612 -1.6885
 7301TIP3    H246099   7.978   0.663   7.222  0.9938 -0.5272  1.9061
 7302TIP3   OH246100   3.576   1.676   5.565  0.3351  0.1976  0.3093
 7302TIP3    H146101   3.653   1.640   5.521 -0.0376 -0.0722 -0.1334
 7302TIP3    H246102   3.502   1.646   5.511 -0.0861  0.3216  0.8168
 7303TIP3   OH246103   3.887   2.246   6.225 -0.5930 -0.6200  0.0779
 7303TIP3    H146104   3.978   2.278   6.229 -0.8764  0.3909 -1.0498
 7303TIP3    H246105   3.890   2.160   6.269  0.5088  0.2316  1.8112
 7304TIP3   OH246106   3.656   1.066   5.953  0.3520 -0.1807  0.1441
 7304TIP3    H146107   3.630   1.017   6.031  0.3280  0.0822  0.3049
 7304TIP3    H246108   3.664   1.001   5.884 -0.7200 -0.2759  0.0953
 7305TIP3   OH246109   6.434   6.588   6.138 -0.1599 -0.4370  0.0744
 7305TIP3    H146110   6.445   6.542   6.055 -0.2847  0.3353 -0.3864
 7305TIP3    H246111   6.515   6.573   6.186  0.2455 -0.2095 -0.5364
 7306TIP3   OH246112   8.001   6.353   6.131 -0.4704 -0.1437 -0.2352
 7306TIP3    H146113   7.907   6.338   6.135 -0.2457 -1.6634 -0.3548
 7306TIP3    H246114   8.013   6.412   6.057 -1.2833 -0.2527 -0.4575
 7307TIP3   OH246115   6.174   8.831   6.050  0.1941  0.2272  0.0553
 7307TIP3    H146116   6.247   8.884   6.083  2.8828 -2.2903 -1.3307
 7307TIP3    H246117   6.166   8.759   6.113 -0.1887 -0.2065 -0.4727
 7308TIP3   OH246118   7.456   4.709   6.618  0.1856 -0.5935  0.1600
 7308TIP3    H146119   7.489   4.628   6.655 -1.4801 -1.2866  0.2198
 7308TIP3    H246120   7.493   4.778   6.673 -0.1909 -1.4505  1.5336
 7309TIP3   OH246121   7.174   8.031   6.685  0.0711  0.1575 -0.0772
 7309TIP3    H146122   7.171   7.948   6.638 -0.3727  0.5773 -0.8128
 7309TIP3    H246123   7.098   8.080   6.652  0.1475  0.7319  0.5695
 7310TIP3   OH246124   5.834   7.369   5.785  0.4520  0.1149  0.0191
 7310TIP3    H146125   5.833   7.348   5.691  0.1638  0.1810  0.0051
 7310TIP3    H246126   5.743   7.357   5.813  0.1790  1.6730 -0.0710
 7311TIP3   OH246127   2.668   5.198   5.274 -0.2761 -0.5021 -0.0341
 7311TIP3    H146128   2.698   5.289   5.270  1.0729 -0.9038  0.2440
 7311TIP3    H246129   2.720   5.159   5.345 -2.9179 -0.7843  1.9050
 7312TIP3   OH246130   5.472   8.194   5.396  0.1164 -0.0512  0.4568
 7312TIP3    H146131   5.453   8.103   5.374 -0.0335  0.1278 -0.1543
 7312TIP3    H246132   5.394   8.242   5.368 -0.6365  0.0370  2.4849
 7313TIP3   OH246133   8.523   5.362   6.676  0.4419 -0.2376  0.4591
 7313TIP3    H146134   8.611   5.391   6.650 -0.0932  0.2179 -0.8865
 7313TIP3    H246135   8.475   5.443   6.693  0.4413 -0.4984  1.8133
 7314TIP3   OH246136   8.644   0.594   4.956  0.5637  0.3807 -0.2873
 7314TIP3    H146137   8.631   0.658   5.026 -0.9681  0.1796 -0.3527
 7314TIP3    H246138   8.688   0.521   4.998  0.0809  0.4602  0.3710
 7315TIP3   OH246139   8.374   6.902   6.308 -0.3342 -0.6339 -0.4431
 7315TIP3    H146140   8.440   6.962   6.345 -0.6438 -0.2905 -0.4448
 7315TIP3    H246141   8.395   6.818   6.348 -0.3361 -0.3768  0.1200
 7316TIP3   OH246142   4.929   3.916   5.564 -0.2408 -0.0820  0.0702
 7316TIP3    H146143   4.946   3.869   5.646  2.0961 -1.7345 -1.2635
 7316TIP3    H246144   4.961   4.005   5.581  0.6467 -0.5248  0.8211
 7317TIP3   OH246145   0.591   9.093   6.133  0.1712 -0.0955  0.9448
 7317TIP3    H146146   0.583   9.079   6.227 -1.8868  0.5200  0.9088
 7317TIP3    H246147   0.519   9.043   6.095  1.6891 -1.3387 -0.4547
 7318TIP3   OH246148   1.261   7.832   5.381 -0.1150  0.1205  0.3107
 7318TIP3    H146149   1.338   7.858   5.432 -0.3966 -2.3219  2.1669
 7318TIP3    H246150   1.288   7.842   5.290  1.5855  1.4824  0.9062
 7319TIP3   OH246151   0.208   6.747   5.676  0.2534  0.2686  0.2520
 7319TIP3    H146152   0.161   6.826   5.703  1.7625  1.2719  0.0866
 7319TIP3    H246153   0.190   6.683   5.744 -1.1120  0.7124  0.3241
 7320TIP3   OH246154   8.800   2.218   5.983  0.4681  0.9268 -0.2164
 7320TIP3    H146155   8.819   2.137   6.030  0.9729  1.7792  1.1052
 7320TIP3    H246156   8.705   2.229   5.991 -0.0460 -0.8748 -2.7287
 7321TIP3   OH246157   6.081   5.927   6.253  0.0215  0.2234 -0.0247
 7321TIP3    H146158   6.148   5.929   6.184 -0.9133  0.9856 -0.9369
 7321TIP3    H246159   6.041   6.014   6.249 -0.1173  0.2439  1.4306
 7322TIP3   OH246160   6.720   8.746   5.624  0.4109 -0.0378  0.4031
 7322TIP3    H146161   6.665   8.820   5.650 -0.3807 -0.8267  0.9785
 7322TIP3    H246162   6.730   8.756   5.529 -1.5683 -0.4516  0.1213
 7323TIP3   OH246163   4.792   7.908   4.940  0.0638 -0.4199 -0.1028
 7323TIP3    H146164   4.729   7.974   4.911 -0.3914 -0.6070  0.4398
 7323TIP3    H246165   4.877   7.952   4.934 -0.2706  0.3375  0.5783
 7324TIP3   OH246166   8.707   1.048   5.035  0.3356 -0.5254 -0.0848
 7324TIP3    H146167   8.751   1.008   4.960  1.5074  0.3863  0.0831
 7324TIP3    H246168   8.727   0.989   5.108 -1.2134 -1.6775 -0.5379
 7325TIP3   OH246169   6.417   7.386   5.558 -0.7267  0.5824 -0.5816
 7325TIP3    H146170   6.396   7.478   5.573 -1.5006  0.2695  0.3710
 7325TIP3    H246171   6.504   7.374   5.595  0.0406  1.2616 -2.0743
 7326TIP3   OH246172   3.605   0.062   4.998  0.4082  0.1651  0.1164
 7326TIP3    H146173   3.586   0.012   4.919 -3.3060 -1.4387  1.7290
 7326TIP3    H246174   3.638  -0.004   5.060 -0.8197  0.4426  1.1062
 7327TIP3   OH246175   6.589   5.557   6.130 -0.4946  0.2426  0.3271
 7327TIP3    H146176   6.641   5.483   6.162 -0.1836  0.6694  0.8282
 7327TIP3    H246177   6.537   5.584   6.206  1.2803  2.1660  0.9674
 7328TIP3   OH246178   2.990   8.633   6.273 -0.3433  0.4936  0.1089
 7328TIP3    H146179   3.074   8.671   6.247  0.2776 -1.0345 -0.1734
 7328TIP3    H246180   2.960   8.585   6.196 -0.1288 -1.2452  1.0556
 7329TIP3   OH246181   3.206   7.271   6.356  0.0908  0.2509  0.1857
 7329TIP3    H146182   3.135   7.275   6.421 -1.2986  1.5498 -1.3274
 7329TIP3    H246183   3.279   7.230   6.403 -1.4642 -0.6255  1.9797
 7330TIP3   OH246184   0.197   3.427   5.442 -0.5247  0.3614  0.3284
 7330TIP3    H146185   0.215   3.419   5.349 -1.1667 -0.7481  0.2818
 7330TIP3    H246186   0.147   3.509   5.450  0.3867  0.9705 -0.1546
 7331TIP3   OH246187   7.187   6.148   5.810  0.4480 -0.0730 -0.1809
 7331TIP3    H146188   7.246   6.223   5.819  1.4143 -0.7216 -0.9532
 7331TIP3    H246189   7.105   6.185   5.778  0.3811  0.8557  0.9968
 7332TIP3   OH246190   3.911   5.670   6.598 -0.1230 -0.6084 -0.3166
 7332TIP3    H146191   3.888   5.677   6.506 -1.2696 -1.8524 -0.1625
 7332TIP3    H246192   3.904   5.576   6.617 -0.5309 -0.3082  1.1795
 7333TIP3   OH246193   0.449   4.851   6.665 -0.2118 -0.6998 -0.3371
 7333TIP3    H146194   0.424   4.905   6.741 -0.4651 -0.8720 -0.2987
 7333TIP3    H246195   0.372   4.850   6.609  0.6284  1.1579 -1.6288
 7334TIP3   OH246196   7.115   8.112   6.176  0.6111 -0.9146 -0.0229
 7334TIP3    H146197   7.141   8.022   6.156  1.6991 -0.5253 -0.4755
 7334TIP3    H246198   7.197   8.155   6.203  0.3084  0.1761 -0.7508
 7335TIP3   OH246199   2.783   5.885   6.319 -0.5795  0.4900 -0.5301
 7335TIP3    H146200   2.743   5.917   6.400 -0.1030 -0.3098  0.0420
 7335TIP3    H246201   2.728   5.811   6.292 -0.8131  0.8350 -1.0138
 7336TIP3   OH246202   5.384   6.265   5.664 -0.2213  0.3007  0.1923
 7336TIP3    H146203   5.412   6.323   5.593  1.1879 -0.5365  0.0215
 7336TIP3    H246204   5.431   6.298   5.741  2.3005 -1.7577 -0.3074
 7337TIP3   OH246205   9.061   0.304   5.226  0.0326  0.4969  0.2470
 7337TIP3    H146206   9.070   0.327   5.134  0.4445  2.0235  0.6364
 7337TIP3    H246207   9.099   0.216   5.233  1.3230  0.9315 -0.7977
 7338TIP3   OH246208   7.872   8.448   7.067  0.6344 -0.4278 -0.0755
 7338TIP3    H146209   7.840   8.380   7.008 -0.1383  0.0856 -0.2592
 7338TIP3    H246210   7.862   8.411   7.154 -0.1766 -0.3984 -0.1511
 7339TIP3   OH246211   2.246   8.879   4.844 -0.1539  0.0466 -0.3934
 7339TIP3    H146212   2.159   8.914   4.861 -1.7021 -2.7810 -1.7784
 7339TIP3    H246213   2.254   8.805   4.904  1.1589  0.0131 -0.5812
 7340TIP3   OH246214   3.199   6.507   5.010 -0.1227  0.0447 -0.1061
 7340TIP3    H146215   3.229   6.434   5.064  0.5541  0.3964 -0.0013
 7340TIP3    H246216   3.135   6.467   4.950 -0.5543 -0.4268  0.6481
 7341TIP3   OH246217   7.673   9.132   7.315  0.3477 -0.2038 -0.0513
 7341TIP3    H146218   7.729   9.055   7.317  1.2254  0.4304  1.0897
 7341TIP3    H246219   7.651   9.149   7.407 -0.4195  0.4868 -0.3449
 7342TIP3   OH246220   1.614   5.713   5.649  0.4264 -0.1167  0.1345
 7342TIP3    H146221   1.694   5.727   5.598  0.6315  1.8126  0.9039
 7342TIP3    H246222   1.639   5.733   5.739 -0.6747 -0.5202  0.5455
 7343TIP3   OH246223   2.328   2.674   5.853  0.0771 -0.0477 -0.2920
 7343TIP3    H146224   2.342   2.699   5.945 -0.0221 -2.2606  0.3846
 7343TIP3    H246225   2.319   2.579   5.856 -1.8460 -0.0036 -2.3677
 7344TIP3   OH246226   6.013   7.558   5.928  0.6523  0.4771 -0.6352
 7344TIP3    H146227   5.953   7.561   6.002  1.8183  1.4426  0.3131
 7344TIP3    H246228   5.971   7.498   5.865 -0.8630  0.4685  0.3352
 7345TIP3   OH246229   5.641   6.713   5.511  0.3171 -0.1085 -0.1091
 7345TIP3    H146230   5.626   6.683   5.421 -0.9289 -0.2141  0.1163
 7345TIP3    H246231   5.612   6.804   5.510  0.4942 -0.0513  0.1322
 7346TIP3   OH246232   3.728   7.171   6.455 -0.4450 -0.5099  0.3171
 7346TIP3    H146233   3.677   7.133   6.383 -0.5670 -0.5380  0.4191
 7346TIP3    H246234   3.714   7.111   6.528 -0.4570 -0.3876  0.4138
 7347TIP3   OH246235   1.278   8.490   6.218  0.2454 -0.0275 -0.5865
 7347TIP3    H146236   1.209   8.434   6.254  1.2248  0.5120  2.3878
 7347TIP3    H246237   1.359   8.453   6.250  0.9948  2.3462  0.4889
 7348TIP3   OH246238   3.315   6.321   5.167 -0.3050 -0.0242  0.0313
 7348TIP3    H146239   3.318   6.297   5.260  1.3222  2.8667  0.8457
 7348TIP3    H246240   3.400   6.293   5.132  0.1869  1.2479  0.1402
 7349TIP3   OH246241   6.833   4.626   5.375 -0.0857 -0.1688  0.1818
 7349TIP3    H146242   6.799   4.651   5.289  1.4580 -2.1766 -1.1099
 7349TIP3    H246243   6.871   4.707   5.410  1.0421  0.2921 -1.9377
 7350TIP3   OH246244   8.843   3.255   6.194  0.5457  0.3606  0.3464
 7350TIP3    H146245   8.935   3.274   6.214  0.3770  0.9547  0.5749
 7350TIP3    H246246   8.796   3.270   6.276  0.2097  0.2797  0.1721
 7351TIP3   OH246247   2.225   9.062   5.463 -0.2781 -0.3424 -0.2920
 7351TIP3    H146248   2.265   9.085   5.547 -0.2880  1.4620 -0.7377
 7351TIP3    H246249   2.300   9.042   5.407 -0.1460  0.3744 -0.3799
 7352TIP3   OH246250   6.069   5.206   5.947 -1.0430 -0.2118 -0.1636
 7352TIP3    H146251   5.994   5.189   5.889 -1.8436 -1.9120  1.2904
 7352TIP3    H246252   6.038   5.181   6.034  1.1424 -0.6529  0.5331
 7353TIP3   OH246253   7.507   9.192   7.071 -0.1346  0.3015 -0.2228
 7353TIP3    H146254   7.542   9.227   6.989 -0.6088  0.6048 -0.3031
 7353TIP3    H246255   7.574   9.212   7.136  1.3411 -2.0354 -0.9093
 7354TIP3   OH246256   8.137   4.516   5.282 -0.9125 -0.2189 -0.9258
 7354TIP3    H146257   8.119   4.426   5.253 -3.4369 -0.2644  0.4707
 7354TIP3    H246258   8.228   4.513   5.310 -0.3294 -1.7968 -2.7305
 7355TIP3   OH246259   8.124   8.642   6.283 -0.2807  0.0155  0.3114
 7355TIP3    H146260   8.132   8.730   6.319  1.2074  0.4844 -1.0701
 7355TIP3    H246261   8.036   8.614   6.309 -0.3422  1.4159  1.7913
 7356TIP3   OH246262   2.474   1.940   5.668  0.1813  0.5158 -0.1242
 7356TIP3    H146263   2.410   1.892   5.616 -0.0382 -0.1817  0.7735
 7356TIP3    H246264   2.486   2.023   5.621 -0.6480  0.2504 -0.8173
 7357TIP3   OH246265   6.384   0.380   5.519 -0.6371  0.0265  0.4378
 7357TIP3    H146266   6.444   0.411   5.451 -1.2371  0.7179  0.2072
 7357TIP3    H246267   6.414   0.291   5.538  1.2769  0.8022  1.2768
 7358TIP3   OH246268   4.868   2.413   6.175  0.3127  0.3448  0.2308
 7358TIP3    H146269   4.876   2.375   6.263 -1.3167  0.4662  0.4683
 7358TIP3    H246270   4.954   2.449   6.157  1.5086 -2.0922  0.6199
 7359TIP3   OH246271   3.572   4.728   6.839  0.4166 -0.2402  0.2026
 7359TIP3    H146272   3.556   4.792   6.770 -1.5226 -1.2425 -0.3549
 7359TIP3    H246273   3.493   4.732   6.894  0.5874 -1.6047  0.5802
 7360TIP3   OH246274   4.571   8.433   5.725 -0.1541  0.0423  0.4316
 7360TIP3    H146275   4.666   8.421   5.721 -0.0310  1.0876 -0.2406
 7360TIP3    H246276   4.537   8.366   5.665  0.3610  1.4436 -1.5087
 7361TIP3   OH246277   6.134   6.393   5.964 -0.1299 -0.1403 -0.7954
 7361TIP3    H146278   6.197   6.368   6.032  1.2564  1.9307 -1.1976
 7361TIP3    H246279   6.067   6.443   6.011 -0.4305 -0.6796 -0.6420
 7362TIP3   OH246280   8.855   0.883   4.849  0.2177  0.3610  0.4685
 7362TIP3    H146281   8.877   0.795   4.817 -0.5080 -0.4492  2.1087
 7362TIP3    H246282   8.760   0.887   4.844  0.3111  1.6961 -1.1008
 7363TIP3   OH246283   8.760   2.839   5.349  0.5284 -0.0475 -0.3295
 7363TIP3    H146284   8.849   2.865   5.372  0.1611  0.7418  0.2749
 7363TIP3    H246285   8.752   2.749   5.381  1.0884 -0.1023 -0.3399
 7364TIP3   OH246286   2.366   3.683   5.325 -0.0549 -0.7965 -0.7154
 7364TIP3    H146287   2.330   3.767   5.297 -0.6408 -0.5502  0.6897
 7364TIP3    H246288   2.412   3.650   5.248 -0.8652  0.2226 -1.6767
 7365TIP3   OH246289   8.313   5.495   5.950 -0.2971  0.1557 -0.3243
 7365TIP3    H146290   8.286   5.585   5.934 -0.4808  0.2827  0.6206
 7365TIP3    H246291   8.406   5.502   5.972  0.0322 -0.0512 -1.5768
 7366TIP3   OH246292   8.615   4.223   5.798  0.0652  0.5379  0.5464
 7366TIP3    H146293   8.592   4.285   5.729  1.4066 -0.6791 -1.0861
 7366TIP3    H246294   8.696   4.256   5.836 -0.5023  1.0360  1.3587
 7367TIP3   OH246295   0.903   9.195   6.006 -0.2740 -0.3035 -0.1074
 7367TIP3    H146296   0.867   9.219   5.921 -2.1144 -1.7610  0.2034
 7367TIP3    H246297   0.843   9.234   6.070  1.9649  2.1762  0.6653
 7368TIP3   OH246298   4.072   0.015   5.406 -0.3782 -0.2758  0.3445
 7368TIP3    H146299   4.112   0.024   5.493  1.2340  0.3642 -0.4081
 7368TIP3    H246300   3.999   0.077   5.407  2.1361  2.9597 -0.0621
 7369TIP3   OH246301   4.264   7.774   6.093  0.1081  0.1174 -0.1819
 7369TIP3    H146302   4.319   7.708   6.049  0.3054  0.4740 -0.4804
 7369TIP3    H246303   4.257   7.743   6.183  1.2904  0.3571  0.0087
 7370TIP3   OH246304   7.160   8.203   5.441  0.2829  0.1518  0.2559
 7370TIP3    H146305   7.222   8.259   5.488  0.8556 -1.4813  1.5414
 7370TIP3    H246306   7.211   8.161   5.373 -0.3342  1.7569 -1.2809
 7371TIP3   OH246307   5.225   8.219   6.507  0.0661 -0.1607  0.2908
 7371TIP3    H146308   5.272   8.298   6.483 -1.5121  0.4745 -0.9136
 7371TIP3    H246309   5.162   8.207   6.436  0.4730 -2.6951  0.2519
 7372TIP3   OH246310   6.738   4.017   5.197 -0.4498  0.7086  0.4224
 7372TIP3    H146311   6.730   4.037   5.290 -0.2468 -0.6692  0.7585
 7372TIP3    H246312   6.775   3.929   5.195  0.3703  1.0642 -0.9813
 7373TIP3   OH246313   5.259   0.497   6.125 -0.1635  0.2612  0.4408
 7373TIP3    H146314   5.319   0.568   6.147 -0.0200  0.3788 -0.2949
 7373TIP3    H246315   5.311   0.437   6.071  0.1291 -1.1293  2.1425
 7374TIP3   OH246316   0.462   2.443   4.554 -0.4454  0.4062  0.1159
 7374TIP3    H146317   0.432   2.353   4.546 -1.1833  0.6571 -0.0220
 7374TIP3    H246318   0.557   2.438   4.548 -0.4490 -0.4213  0.6985
 7375TIP3   OH246319   1.086   6.565   6.393 -0.5541  0.0083  0.5454
 7375TIP3    H146320   1.176   6.582   6.422 -1.1690  0.7995  2.1171
 7375TIP3    H246321   1.066   6.478   6.427  0.1468 -0.8836 -1.2354
 7376TIP3   OH246322   1.368   2.559   5.150 -0.6448  0.2029 -0.1087
 7376TIP3    H146323   1.409   2.640   5.182  1.0266 -0.1586 -1.2312
 7376TIP3    H246324   1.420   2.489   5.190 -0.5509 -0.2754 -1.0519
 7377TIP3   OH246325   0.043   7.355   6.367 -0.4417  0.3493  0.2341
 7377TIP3    H146326   0.027   7.442   6.404  3.6953  1.0720  0.9088
 7377TIP3    H246327   0.062   7.301   6.443  1.5340  0.1169 -0.3681
 7378TIP3   OH246328   4.073   5.873   6.149  0.0615  0.0066  0.3135
 7378TIP3    H146329   3.981   5.869   6.176 -0.4140 -1.6095 -1.3666
 7378TIP3    H246330   4.120   5.822   6.215 -0.4912 -0.4466  0.3658
 7379TIP3   OH246331   5.563   0.743   5.662  0.0375 -0.2707  0.0922
 7379TIP3    H146332   5.655   0.748   5.639  0.2345  1.0210  1.0351
 7379TIP3    H246333   5.527   0.828   5.637 -0.6192 -0.3158  0.8309
 7380TIP3   OH246334   4.951   1.208   6.547 -0.2719 -0.5253 -0.1640
 7380TIP3    H146335   4.990   1.134   6.502  0.2760  0.7227 -1.8095
 7380TIP3    H246336   4.902   1.255   6.480  0.4215  1.3059  0.5372
 7381TIP3   OH246337   0.776   3.942   5.961 -0.0526 -0.3531 -0.7718
 7381TIP3    H146338   0.762   3.930   5.867 -1.0797 -0.7404 -0.5793
 7381TIP3    H246339   0.714   3.882   6.003 -1.4984  1.6535  0.1618
 7382TIP3   OH246340   8.634   8.988   6.004  0.1843 -0.0481  0.0256
 7382TIP3    H146341   8.556   9.011   6.054 -0.3428 -1.1769 -0.2501
 7382TIP3    H246342   8.696   8.957   6.070  0.3425  0.6814  0.2266
 7383TIP3   OH246343   7.186   5.493   5.228 -0.0074 -0.0991 -0.1286
 7383TIP3    H146344   7.244   5.544   5.171  0.2610 -0.5629 -0.2721
 7383TIP3    H246345   7.175   5.548   5.306 -0.3488  0.5258 -0.6000
 7384TIP3   OH246346   7.549   6.178   5.971  0.1319  0.1963  0.4229
 7384TIP3    H146347   7.491   6.254   5.960 -0.4800 -0.2600  0.5024
 7384TIP3    H246348   7.566   6.148   5.881 -1.8065 -1.2075  0.4754
 7385TIP3   OH246349   8.949   1.608   6.099  0.0634  0.5585 -0.1779
 7385TIP3    H146350   8.943   1.534   6.159 -1.5883  0.1652 -0.7639
 7385TIP3    H246351   9.042   1.618   6.081  0.3359 -1.1793  0.1620
 7386TIP3   OH246352   5.995   0.310   5.729  0.0746  0.0250 -0.2414
 7386TIP3    H146353   6.017   0.217   5.738  0.9239  0.1536 -0.8398
 7386TIP3    H246354   6.079   0.355   5.731 -0.3693  0.8388  0.5905
 7387TIP3   OH246355   8.192   0.855   5.923 -0.2498  0.5126  0.2631
 7387TIP3    H146356   8.239   0.898   5.995  0.5772 -0.2590  0.2002
 7387TIP3    H246357   8.099   0.868   5.944 -0.0209  0.7585  1.1813
 7388TIP3   OH246358   8.208   0.573   6.916 -0.9172 -0.3209 -0.3866
 7388TIP3    H146359   8.162   0.494   6.943 -1.5526  0.3124  0.4367
 7388TIP3    H246360   8.289   0.571   6.967 -0.8330 -0.5455 -0.5270
 7389TIP3   OH246361   0.783   7.790   6.895 -0.3332  0.1349  0.9162
 7389TIP3    H146362   0.853   7.727   6.882 -0.9103 -0.6054  1.2894
 7389TIP3    H246363   0.824   7.863   6.941  0.5052  0.3795 -0.1719
 7390TIP3   OH246364   7.796   8.078   5.877 -1.2482  0.0523 -0.6486
 7390TIP3    H146365   7.773   8.044   5.790 -1.0457 -0.8958 -0.3453
 7390TIP3    H246366   7.888   8.053   5.889 -0.5568  2.2072 -1.1010
 7391TIP3   OH246367   1.669   4.629   5.017 -0.0737 -0.5143 -0.0213
 7391TIP3    H146368   1.659   4.559   4.952 -2.1417  0.0413 -0.3659
 7391TIP3    H246369   1.579   4.656   5.036  0.5029 -0.2886  2.6879
 7392TIP3   OH246370   7.120   6.272   6.741 -0.5434 -0.5029  0.0467
 7392TIP3    H146371   7.081   6.330   6.676  1.7197  0.2287 -0.7549
 7392TIP3    H246372   7.063   6.194   6.741 -1.7732  0.3488 -1.2502
 7393TIP3   OH246373   8.016   5.519   4.837  0.1949  0.0176  0.1810
 7393TIP3    H146374   7.989   5.429   4.852  2.4609 -0.9723 -1.1574
 7393TIP3    H246375   8.039   5.522   4.744  2.3096  1.3152  0.6769
 7394TIP3   OH246376   4.119   5.965   5.769  0.1683 -0.2681  0.7957
 7394TIP3    H146377   4.205   5.966   5.811  0.4324 -0.0810  0.2649
 7394TIP3    H246378   4.062   6.013   5.829  1.0534  2.1049 -0.1234
 7395TIP3   OH246379   8.937   0.022   6.868  0.4653  0.0090  0.1164
 7395TIP3    H146380   8.913  -0.069   6.885  0.6819 -0.0954 -0.1231
 7395TIP3    H246381   9.031   0.019   6.850  0.3124  0.1554 -0.7710
 7396TIP3   OH246382   0.834   5.944   6.388  0.2335  0.4675  0.0513
 7396TIP3    H146383   0.877   5.861   6.411  0.2370  0.4948  0.1449
 7396TIP3    H246384   0.762   5.952   6.450  0.0007  0.3503 -0.1991
 7397TIP3   OH246385   0.683   6.053   6.607  0.3474  0.1181 -0.5140
 7397TIP3    H146386   0.643   6.113   6.670 -1.0875 -1.3673  0.0609
 7397TIP3    H246387   0.687   5.969   6.653 -0.8099 -1.0413 -2.3789
 7398TIP3   OH246388   6.942   3.697   5.760  0.7687  0.3772 -0.0900
 7398TIP3    H146389   6.985   3.738   5.685 -0.3865  1.2339 -0.3158
 7398TIP3    H246390   6.921   3.608   5.730  0.1053  0.7868 -0.8808
 7399TIP3   OH246391   0.078   4.160   4.963  0.1880  0.3956  0.1369
 7399TIP3    H146392   0.172   4.177   4.972 -0.2107  2.6356  0.6209
 7399TIP3    H246393   0.048   4.141   5.052  0.2881 -1.2446 -0.1393
 7400TIP3   OH246394   9.021   7.312   6.116 -0.4010 -0.2981 -0.2107
 7400TIP3    H146395   8.994   7.376   6.050 -0.8605 -1.6338 -1.3737
 7400TIP3    H246396   9.085   7.256   6.070 -0.2404 -0.8644  0.6693
 7401TIP3   OH246397   2.910   2.171   6.468 -0.1251  0.3404 -0.2433
 7401TIP3    H146398   2.956   2.221   6.536 -3.7299  0.6080  2.2406
 7401TIP3    H246399   2.963   2.092   6.457  1.8379  1.3900  1.0683
 7402TIP3   OH246400   3.022   0.368   5.264  0.1077  0.1860 -0.3262
 7402TIP3    H146401   3.006   0.392   5.356  0.9318 -0.4123 -0.0156
 7402TIP3    H246402   3.000   0.447   5.215 -0.0334  0.6226  0.4180
 7403TIP3   OH246403   1.641   8.951   5.095 -0.5791  0.3120 -0.0324
 7403TIP3    H146404   1.672   8.877   5.148  0.1402  1.1678  0.7601
 7403TIP3    H246405   1.580   8.998   5.152  0.6420  1.5694  0.2796
 7404TIP3   OH246406   1.122   5.314   6.214 -0.3235 -0.0705 -0.0260
 7404TIP3    H146407   1.154   5.230   6.181 -1.0411 -0.0517 -0.8009
 7404TIP3    H246408   1.086   5.358   6.137 -2.0994 -0.0314  0.7795
 7405TIP3   OH246409   5.483   0.311   5.948 -0.3079  0.3159 -0.3160
 7405TIP3    H146410   5.489   0.371   5.874  1.3905 -0.8207 -1.1772
 7405TIP3    H246411   5.535   0.353   6.017 -2.2271  1.5693  0.4303
 7406TIP3   OH246412   6.511   0.025   4.962  0.3622  0.3565  0.0946
 7406TIP3    H146413   6.490   0.119   4.965  0.9232  0.4695  2.3898
 7406TIP3    H246414   6.485  -0.008   5.048  1.3729 -1.3288 -0.2136
 7407TIP3   OH246415   7.348   2.491   5.479 -0.0284  0.2704 -0.0311
 7407TIP3    H146416   7.442   2.504   5.483  0.0742  0.1867 -1.5008
 7407TIP3    H246417   7.330   2.476   5.386 -1.5148  0.4987  0.1914
 7408TIP3   OH246418   8.465   5.158   6.933  0.3495  0.0896 -0.1357
 7408TIP3    H146419   8.525   5.085   6.922 -0.6735 -0.7308 -0.4029
 7408TIP3    H246420   8.487   5.218   6.861  1.2349  0.0828  0.1224
 7409TIP3   OH246421   5.658   2.475   6.385 -0.2223  0.3116 -1.1079
 7409TIP3    H146422   5.596   2.530   6.337 -0.1980  2.6875  1.3794
 7409TIP3    H246423   5.605   2.433   6.453  0.3789 -0.2029 -0.9459
 7410TIP3   OH246424   1.903   8.395   5.229 -0.1123  0.2387 -0.9132
 7410TIP3    H146425   1.847   8.325   5.263  1.0143 -0.4407 -0.3775
 7410TIP3    H246426   1.868   8.414   5.142 -1.8585  0.6517 -0.1612
 7411TIP3   OH246427   9.163   0.441   4.676 -0.3569 -0.0767 -0.3833
 7411TIP3    H146428   9.188   0.520   4.724  0.0408 -0.4737  0.0736
 7411TIP3    H246429   9.097   0.470   4.614 -3.0117  0.0105  2.2564
 7412TIP3   OH246430   5.237   5.616   5.873  0.2125 -0.1223  0.3437
 7412TIP3    H146431   5.177   5.635   5.800 -0.6501 -1.3279  0.6903
 7412TIP3    H246432   5.178   5.600   5.947  1.0556  0.4455  1.1398
 7413TIP3   OH246433   0.946   4.824   6.632  0.4873  0.4963 -0.1817
 7413TIP3    H146434   0.917   4.907   6.671 -0.1266  0.5060 -0.6213
 7413TIP3    H246435   0.894   4.757   6.676 -0.4865  0.5397 -1.1878
 7414TIP3   OH246436   5.475   6.364   5.232 -0.6721 -0.0517  0.0581
 7414TIP3    H146437   5.417   6.404   5.167  0.0832  0.1222 -0.5148
 7414TIP3    H246438   5.485   6.273   5.201  0.1396  0.1807 -0.4007
 7415TIP3   OH246439   1.724   4.601   5.316 -0.0513 -0.1568  0.1122
 7415TIP3    H146440   1.737   4.606   5.222 -0.3828 -0.4363  0.0501
 7415TIP3    H246441   1.701   4.690   5.342  0.4163  0.0022 -0.0126
 7416TIP3   OH246442   4.413   7.418   5.556 -0.5886  0.1872 -0.3024
 7416TIP3    H146443   4.488   7.381   5.510 -0.6521  0.0370 -0.2892
 7416TIP3    H246444   4.360   7.459   5.488 -0.8446 -0.3137 -0.4151
 7417TIP3   OH246445   3.550   7.052   5.298 -0.0959 -0.1042  0.0063
 7417TIP3    H146446   3.581   7.046   5.388 -0.0011 -0.8139 -0.0691
 7417TIP3    H246447   3.590   7.132   5.264  0.6711 -0.3659  0.2798
 7418TIP3   OH246448   3.340   4.469   6.735  0.2046 -0.2898 -0.4944
 7418TIP3    H146449   3.325   4.507   6.822  3.3110  2.5093 -0.9633
 7418TIP3    H246450   3.401   4.397   6.752 -1.9470 -2.1433 -0.1188
 7419TIP3   OH246451   4.665   5.694   5.992 -0.6931 -0.1490 -0.3574
 7419TIP3    H146452   4.714   5.617   6.024  0.7256  0.4419 -1.0210
 7419TIP3    H246453   4.575   5.678   6.020 -0.3366 -1.8103 -0.0270
 7420TIP3   OH246454   3.027   3.123   5.125  0.0999  0.3177 -0.0833
 7420TIP3    H146455   3.112   3.158   5.152  0.0162  0.5250 -0.0872
 7420TIP3    H246456   3.034   3.029   5.142 -0.9337  0.7365  3.4211
 7421TIP3   OH246457   8.199   0.265   7.050  0.2579  0.1457  0.4041
 7421TIP3    H146458   8.252   0.214   6.988  1.6208  0.9242  0.8731
 7421TIP3    H246459   8.122   0.211   7.066  0.8870 -1.0269 -0.3479
 7422TIP3   OH246460   2.149   1.128   5.989  0.0508 -0.5847 -0.8824
 7422TIP3    H146461   2.137   1.104   6.081 -0.3220 -1.0425 -1.0498
 7422TIP3    H246462   2.118   1.053   5.940 -1.1519  0.2218 -1.4096
 7423TIP3   OH246463   5.208   6.726   5.757 -0.1021 -0.9104  0.5926
 7423TIP3    H146464   5.179   6.799   5.702 -0.0499 -1.5480 -0.2966
 7423TIP3    H246465   5.260   6.671   5.698  1.5610 -0.6417  1.7430
 7424TIP3   OH246466   5.931   7.785   6.241 -0.1805  0.1874  0.5014
 7424TIP3    H146467   5.920   7.714   6.178 -0.5824  1.1390 -0.5261
 7424TIP3    H246468   5.854   7.779   6.298 -0.2983 -0.0873  0.3161
 7425TIP3   OH246469   6.034   7.689   5.194 -0.5938 -0.5457 -0.1355
 7425TIP3    H146470   5.962   7.751   5.206 -0.3184 -0.0471 -0.9372
 7425TIP3    H246471   6.113   7.743   5.201 -0.3014 -1.0737  0.6462
 7426TIP3   OH246472   8.358   1.311   6.983  0.1467 -0.4543  0.2306
 7426TIP3    H146473   8.356   1.226   6.940  2.1907 -0.7416  0.5962
 7426TIP3    H246474   8.451   1.332   6.990 -0.2856  1.5345  0.7108
 7427TIP3   OH246475   3.014   0.558   4.803 -0.2827  0.6516  0.3317
 7427TIP3    H146476   2.934   0.559   4.751 -0.8924  0.1772  1.2307
 7427TIP3    H246477   3.085   0.552   4.738 -1.0238 -0.0300 -0.4364
 7428TIP3   OH246478   5.872   5.336   5.592 -0.0326 -0.3006 -0.9102
 7428TIP3    H146479   5.847   5.334   5.499 -1.6185  1.0618 -0.5644
 7428TIP3    H246480   5.944   5.399   5.597 -0.0845 -0.2185 -1.1856
 7429TIP3   OH246481   0.991   7.486   6.322 -0.0992 -0.3150  0.6659
 7429TIP3    H146482   0.969   7.522   6.408 -0.2939 -0.6525  0.7603
 7429TIP3    H246483   1.050   7.550   6.284 -1.2471  0.6221  0.4002
 7430TIP3   OH246484   1.872   8.020   5.273  0.0067 -0.3057  0.5157
 7430TIP3    H146485   1.794   8.007   5.219 -0.1289 -1.3522  0.9520
 7430TIP3    H246486   1.857   7.967   5.351  0.8749 -0.0132  0.8946
 7431TIP3   OH246487   8.250   4.860   6.141 -0.2307  0.5378 -0.0070
 7431TIP3    H146488   8.175   4.809   6.110 -0.3683  0.9003 -0.2860
 7431TIP3    H246489   8.284   4.812   6.216 -0.8468  0.4591  0.2235
 7432TIP3   OH246490   5.382   6.969   6.553  0.3177  0.1569  0.2554
 7432TIP3    H146491   5.320   6.910   6.510  0.1662 -0.5294  1.3757
 7432TIP3    H246492   5.468   6.939   6.523  0.1714  0.3641 -0.3849
 7433TIP3   OH246493   4.439   3.298   5.811 -0.1597  0.0472  0.1230
 7433TIP3    H146494   4.424   3.369   5.874  0.2038  0.4312 -0.2106
 7433TIP3    H246495   4.428   3.340   5.725  0.5541 -0.1715 -0.0873
 7434TIP3   OH246496   7.064   0.875   5.548  0.2151 -0.1603 -0.0788
 7434TIP3    H146497   6.999   0.902   5.613 -0.0964  1.7804 -1.1214
 7434TIP3    H246498   7.145   0.866   5.599 -0.3019  0.0135  0.8027
 7435TIP3   OH246499   5.579   7.925   6.233  0.3591 -0.2537 -0.0904
 7435TIP3    H146500   5.637   7.898   6.305 -1.0409 -0.9274  0.8366
 7435TIP3    H246501   5.572   8.020   6.243  2.6445  0.1161 -1.3039
 7436TIP3   OH246502   1.710   2.602   5.115  0.0518  0.2084  0.5955
 7436TIP3    H146503   1.761   2.522   5.129  0.3440  0.3765  0.5002
 7436TIP3    H246504   1.672   2.621   5.200 -0.4938 -0.3560  0.4828
 7437TIP3   OH246505   0.338   2.661   4.750  0.1058  0.2078  0.4901
 7437TIP3    H146506   0.246   2.688   4.754  0.6606  2.3984 -0.4115
 7437TIP3    H246507   0.350   2.632   4.659  0.2081 -0.5221  0.7314
 7438TIP3   OH246508   5.566   1.824   5.640  0.3664  0.0604  0.0376
 7438TIP3    H146509   5.524   1.837   5.725  0.7230 -0.5443  0.3164
 7438TIP3    H246510   5.507   1.766   5.592  0.5677 -0.2731  0.1894
 7439TIP3   OH246511   6.320   7.925   5.220 -0.5991  0.2245 -0.4732
 7439TIP3    H146512   6.297   7.881   5.302 -2.4106  2.2485  0.1911
 7439TIP3    H246513   6.413   7.905   5.208 -0.8552 -2.0748  0.7871
 7440TIP3   OH246514   0.760   8.554   6.918 -0.0698  1.1101 -0.4672
 7440TIP3    H146515   0.791   8.643   6.900  2.7618  0.4332  0.6039
 7440TIP3    H246516   0.777   8.541   7.011 -1.4693 -0.2170 -0.3580
 7441TIP3   OH246517   8.752   6.764   6.845 -0.3893  0.0435  0.5556
 7441TIP3    H146518   8.816   6.716   6.897 -0.4377 -0.2568  0.3455
 7441TIP3    H246519   8.760   6.855   6.873 -0.6638 -0.1687  1.3361
 7442TIP3   OH246520   4.072   1.309   5.753 -0.6849 -0.1769 -0.4670
 7442TIP3    H146521   3.991   1.333   5.707 -0.2156  0.1887 -1.1213
 7442TIP3    H246522   4.141   1.356   5.706 -0.0347 -0.8481 -0.2046
 7443TIP3   OH246523   1.275   5.815   5.482 -0.1650  0.0509  0.2705
 7443TIP3    H146524   1.210   5.749   5.506 -1.7067  1.3170 -0.2687
 7443TIP3    H246525   1.330   5.772   5.416 -0.2078 -1.1501  0.9857
 7444TIP3   OH246526   5.645   1.577   5.774 -0.4962  0.0640 -0.2306
 7444TIP3    H146527   5.555   1.608   5.778 -0.5862 -0.1219 -0.7411
 7444TIP3    H246528   5.683   1.621   5.698 -0.6182 -1.0114 -0.9489
 7445TIP3   OH246529   2.426   6.239   6.316  0.3279 -0.1396  0.0128
 7445TIP3    H146530   2.466   6.297   6.381 -1.2958  0.1851  0.7539
 7445TIP3    H246531   2.411   6.296   6.240 -1.6876  0.5873  0.9007
 7446TIP3   OH246532   8.836   4.103   5.512 -0.2641  0.9344  0.2718
 7446TIP3    H146533   8.865   4.176   5.567 -1.6476  0.8388  1.1879
 7446TIP3    H246534   8.792   4.144   5.438 -2.5890  1.1195  1.6398
 7447TIP3   OH246535   1.064   3.854   5.005 -0.4437 -0.3838 -0.8118
 7447TIP3    H146536   1.154   3.874   4.978 -0.3477 -2.0339 -1.8740
 7447TIP3    H246537   1.027   3.938   5.032  1.1652  0.4509 -1.0960
 7448TIP3   OH246538   6.934   0.420   7.213  0.1696 -0.6194 -0.1736
 7448TIP3    H146539   7.002   0.485   7.230 -0.2765  0.0898 -0.9874
 7448TIP3    H246540   6.964   0.372   7.136 -0.3659 -0.1056 -0.7180
 7449TIP3   OH246541   6.410   3.564   5.796 -0.0682  0.0335 -0.3171
 7449TIP3    H146542   6.353   3.570   5.719 -1.9286 -0.9588  0.9052
 7449TIP3    H246543   6.489   3.521   5.763 -1.5978 -2.2198 -1.3718
 7450TIP3   OH246544   1.975   6.781   5.549  0.0573 -0.1360  0.1542
 7450TIP3    H146545   1.897   6.803   5.600  0.6535  0.3300  0.8853
 7450TIP3    H246546   1.971   6.685   5.540 -0.7633 -0.0887 -0.1148
 7451TIP3   OH246547   3.380   7.345   6.880  0.7421 -0.7712 -0.3003
 7451TIP3    H146548   3.334   7.386   6.807  1.7301 -1.7486 -1.4988
 7451TIP3    H246549   3.470   7.376   6.873  0.5651  0.3154  1.4307
 7452TIP3   OH246550   8.120   5.970   6.047 -0.2893  0.3060 -0.3747
 7452TIP3    H146551   8.152   6.018   6.124 -0.3350 -2.5153  1.5495
 7452TIP3    H246552   8.027   5.991   6.044 -0.6787 -0.8867  1.5060
 7453TIP3   OH246553   5.199   4.277   5.413  0.0031 -0.0878  0.2495
 7453TIP3    H146554   5.267   4.345   5.419  0.7029 -0.6274 -1.1720
 7453TIP3    H246555   5.152   4.297   5.332  1.0044 -1.9675 -0.8614
 7454TIP3   OH246556   3.632   7.943   6.286  0.2488 -0.3912 -0.3122
 7454TIP3    H146557   3.600   7.853   6.293 -0.5184 -0.1497 -0.6018
 7454TIP3    H246558   3.617   7.966   6.195 -1.2487  0.6335  0.1624
 7455TIP3   OH246559   0.245   3.490   4.812 -0.0018 -0.2911  0.1537
 7455TIP3    H146560   0.243   3.583   4.833  0.1355 -0.0165 -1.0161
 7455TIP3    H246561   0.336   3.464   4.824 -0.1073 -0.3740  0.8383
 7456TIP3   OH246562   7.785   0.486   6.837  0.5193  0.3185 -0.5430
 7456TIP3    H146563   7.698   0.504   6.874 -0.0908 -0.7617 -1.3868
 7456TIP3    H246564   7.792   0.548   6.764  1.2571  1.6723  0.6151
 7457TIP3   OH246565   6.457   6.370   5.931 -0.0918  0.1487  0.2185
 7457TIP3    H146566   6.538   6.329   5.960 -0.3753 -0.0812  0.7063
 7457TIP3    H246567   6.433   6.322   5.851 -0.9811 -1.3994  1.3515
 7458TIP3   OH246568   8.278   2.391   6.107 -0.1610 -0.2635 -0.4175
 7458TIP3    H146569   8.314   2.324   6.165 -0.4587  1.1331  1.4852
 7458TIP3    H246570   8.194   2.356   6.079 -0.8763 -0.2617  1.5155
 7459TIP3   OH246571   0.927   8.501   6.176 -0.1997 -0.3691  0.2184
 7459TIP3    H146572   0.857   8.437   6.191  1.7003 -2.0298  2.8390
 7459TIP3    H246573   0.994   8.479   6.240  1.8795  2.4531 -0.7778
 7460TIP3   OH246574   0.716   7.139   5.258  0.3104 -0.3445  0.3812
 7460TIP3    H146575   0.628   7.161   5.226  0.3684 -1.2291 -0.4325
 7460TIP3    H246576   0.713   7.045   5.272  1.0742 -0.3501  0.5414
 7461TIP3   OH246577   8.038   1.545   5.354 -0.0415 -0.4064  0.0821
 7461TIP3    H146578   7.981   1.583   5.422  0.2761  0.8658 -0.3293
 7461TIP3    H246579   8.127   1.567   5.382  0.1453 -0.7822 -0.2121
 7462TIP3   OH246580   3.690   7.461   6.371 -0.3663 -0.2582  0.0662
 7462TIP3    H146581   3.647   7.391   6.323 -2.7212  0.8377  0.4416
 7462TIP3    H246582   3.722   7.419   6.451 -1.2554 -1.0260  0.0311
 7463TIP3   OH246583   5.246   2.744   5.733  0.8915 -0.2416 -0.8136
 7463TIP3    H146584   5.226   2.761   5.825  0.7541 -0.9761 -0.6992
 7463TIP3    H246585   5.280   2.654   5.733  0.3637 -0.4503 -1.5503
 7464TIP3   OH246586   7.512   6.963   5.169 -0.5281  0.2915  0.2723
 7464TIP3    H146587   7.554   6.880   5.190  0.4167  0.2990 -1.3963
 7464TIP3    H246588   7.560   7.028   5.220  0.1707  0.0596 -0.0831
 7465TIP3   OH246589   7.337   6.370   5.873  0.3138  0.1764 -0.4634
 7465TIP3    H146590   7.308   6.411   5.955  0.4573  0.1454 -0.3965
 7465TIP3    H246591   7.323   6.437   5.806 -2.0318 -0.5870 -0.8272
 7466TIP3   OH246592   3.971   2.755   5.779 -0.4426 -0.5475 -1.0342
 7466TIP3    H146593   4.051   2.783   5.735 -0.8517 -0.2440 -1.6008
 7466TIP3    H246594   3.901   2.777   5.717 -1.0020 -0.4002 -0.3563
 7467TIP3   OH246595   0.512   7.686   4.979  0.2661 -0.7487  0.3271
 7467TIP3    H146596   0.542   7.702   5.069  1.6753 -0.2199 -0.2094
 7467TIP3    H246597   0.447   7.754   4.963  1.8194  0.7547  0.1286
 7468TIP3   OH246598   7.359   3.935   5.738  0.2824 -0.2268  0.4252
 7468TIP3    H146599   7.422   4.006   5.732  0.6519 -0.6638 -2.5893
 7468TIP3    H246600   7.275   3.974   5.712  0.3249 -0.6614 -0.4171
 7469TIP3   OH246601   1.844   6.735   6.427 -0.1032  0.3023 -0.7452
 7469TIP3    H146602   1.895   6.708   6.351  1.2439 -0.8933  0.5078
 7469TIP3    H246603   1.866   6.670   6.494 -1.4199  1.1867  0.5958
 7470TIP3   OH246604   7.209   4.441   6.377  0.2702 -0.1980 -0.0156
 7470TIP3    H146605   7.275   4.508   6.359  1.1526 -0.3627  2.1978
 7470TIP3    H246606   7.244   4.362   6.336  1.1422 -0.1116  0.5110
 7471TIP3   OH246607   1.569   8.459   6.344 -0.0038  0.0903 -0.2123
 7471TIP3    H146608   1.657   8.422   6.335  0.2608  1.1463 -5.2236
 7471TIP3    H246609   1.582   8.553   6.334 -1.6446  0.2817 -0.8601
 7472TIP3   OH246610   1.436   4.405   6.344  0.0160 -0.0372 -0.6750
 7472TIP3    H146611   1.530   4.409   6.358  0.2258  1.4015 -2.2087
 7472TIP3    H246612   1.424   4.428   6.252 -1.8533  0.1602 -0.4251
 7473TIP3   OH246613   7.882   5.812   6.238  0.3833 -0.4053 -0.2627
 7473TIP3    H146614   7.825   5.885   6.262  1.0035  0.3576 -1.0778
 7473TIP3    H246615   7.890   5.817   6.143 -0.1131 -1.9583 -0.4149
 7474TIP3   OH246616   6.475   8.330   6.129 -0.3213  0.3511 -0.4597
 7474TIP3    H146617   6.490   8.416   6.090  2.6128  0.4290  0.5902
 7474TIP3    H246618   6.417   8.347   6.203 -0.0117  1.4050 -0.4407
 7475TIP3   OH246619   8.659   5.128   5.099  0.0255  0.4214 -0.1820
 7475TIP3    H146620   8.596   5.165   5.161 -0.6154  1.1426 -1.2219
 7475TIP3    H246621   8.647   5.180   5.020  1.4057  0.0631 -0.6509
 7476TIP3   OH246622   6.503   0.538   5.996 -0.0973 -0.0245 -0.1326
 7476TIP3    H146623   6.434   0.530   5.930  0.0685 -1.5127 -0.1802
 7476TIP3    H246624   6.496   0.457   6.047  1.0215  0.2193  0.4428
 7477TIP3   OH246625   0.974   8.793   5.559 -0.1379 -0.3743 -0.6652
 7477TIP3    H146626   0.983   8.703   5.529 -0.2676 -0.5073 -0.3126
 7477TIP3    H246627   0.989   8.846   5.481  1.8282 -0.6321 -0.4923
 7478TIP3   OH246628   6.643   9.152   6.233  0.4100  0.1178  0.1054
 7478TIP3    H146629   6.727   9.136   6.189  0.4766 -1.9263  0.8864
 7478TIP3    H246630   6.641   9.090   6.306 -2.1324 -0.4885 -0.3759
 7479TIP3   OH246631   3.919   4.035   9.715  0.3488  0.4662 -0.8742
 7479TIP3    H146632   3.998   3.985   9.736 -0.2338 -0.0593  0.1199
 7479TIP3    H246633   3.903   4.088   9.793  1.5818  3.1237 -2.2906
 7480TIP3   OH246634   2.604   6.595   5.013  0.3187  0.4479  0.6596
 7480TIP3    H146635   2.620   6.523   5.073 -0.2227  0.7245  1.1460
 7480TIP3    H246636   2.523   6.571   4.967 -0.7174  1.4171  1.8998
 7481TIP3   OH246637   7.190   1.544   5.790  0.1977 -0.3407  0.6785
 7481TIP3    H146638   7.104   1.508   5.767 -0.7560  1.2285  1.5842
 7481TIP3    H246639   7.200   1.621   5.734  0.8551 -0.3008  0.8400
 7482TIP3   OH246640   8.283   5.433   6.207 -0.0390  0.0862  0.8512
 7482TIP3    H146641   8.317   5.427   6.118  0.1445 -0.0387  0.9298
 7482TIP3    H246642   8.191   5.456   6.195 -0.2681 -0.9173  0.5954
 7483TIP3   OH246643   3.791   2.954   5.419  0.0784  0.3964  0.5934
 7483TIP3    H146644   3.747   2.877   5.383  0.0292  0.7035 -0.0229
 7483TIP3    H246645   3.877   2.921   5.446  0.6816  0.4196 -1.1383
 7484TIP3   OH246646   1.540   4.524   5.886 -0.8857  0.1698  0.7728
 7484TIP3    H146647   1.627   4.556   5.909 -0.9815  0.9716  0.0502
 7484TIP3    H246648   1.539   4.524   5.790 -1.3611 -0.7261  0.7673
 7485TIP3   OH246649   4.338   4.492   5.754  0.2557  0.0569  0.0043
 7485TIP3    H146650   4.362   4.452   5.671 -0.9991 -1.5154  0.3496
 7485TIP3    H246651   4.391   4.446   5.819 -0.3981 -0.3000  0.2934
 7486TIP3   OH246652   5.423   0.729   6.176  0.0637 -0.5325 -0.0437
 7486TIP3    H146653   5.485   0.681   6.231 -1.4258 -1.7424  0.6701
 7486TIP3    H246654   5.369   0.778   6.238 -1.0494 -1.1943 -0.4510
 7487TIP3   OH246655   6.105   4.029   5.821  0.1040  0.3579  0.0571
 7487TIP3    H146656   6.185   3.976   5.816  0.4225  0.9433 -1.2064
 7487TIP3    H246657   6.103   4.060   5.912 -1.6112 -4.1137  1.8562
 7488TIP3   OH246658   2.653   4.564   5.154 -0.1365 -0.5274 -0.1174
 7488TIP3    H146659   2.729   4.609   5.116 -0.0622 -0.7475 -0.2309
 7488TIP3    H246660   2.681   4.473   5.163 -0.4671 -0.6595 -0.3812
 7489TIP3   OH246661   1.743   3.135   5.522  0.2237  0.1781  0.4691
 7489TIP3    H146662   1.803   3.203   5.489  2.3793 -1.3295  1.0534
 7489TIP3    H246663   1.695   3.178   5.592  0.4534  1.5130 -0.1494
 7490TIP3   OH246664   0.325   3.380   6.074 -0.2937  0.7463 -0.1033
 7490TIP3    H146665   0.304   3.361   6.166 -0.6751 -0.2599 -0.3830
 7490TIP3    H246666   0.249   3.349   6.025 -0.1703  1.4499 -0.7504
 7491TIP3   OH246667   3.897   1.265   5.451  0.1054  0.8381  0.3777
 7491TIP3    H146668   3.876   1.196   5.514 -1.7949 -0.8248 -1.8904
 7491TIP3    H246669   3.814   1.283   5.407  1.7992 -0.3288 -3.7229
 7492TIP3   OH246670   6.736   1.100   5.602 -0.2086 -0.0093  0.3060
 7492TIP3    H146671   6.683   1.161   5.653 -1.0790 -0.9976  0.6375
 7492TIP3    H246672   6.707   1.111   5.512  0.9346  1.3427  0.0763
 7493TIP3   OH246673   8.230   8.709   4.652 -0.4591  0.2623  0.2437
 7493TIP3    H146674   8.216   8.632   4.706  6.0941 -1.6257  0.0883
 7493TIP3    H246675   8.267   8.774   4.711  0.9637  0.4701 -0.8234
 7494TIP3   OH246676   8.572   1.053   6.036  0.1594 -0.9694 -0.0473
 7494TIP3    H146677   8.607   0.966   6.016 -0.0175 -0.7533 -1.3387
 7494TIP3    H246678   8.537   1.085   5.953 -1.0556 -0.2381  0.7158
 7495TIP3   OH246679   0.216   2.257   5.110 -0.0933  0.5856 -0.1454
 7495TIP3    H146680   0.284   2.305   5.062 -2.9107  4.0848 -1.0761
 7495TIP3    H246681   0.234   2.274   5.202  0.8419  0.5852 -0.3188
 7496TIP3   OH246682   6.070   7.572   5.501  0.1601 -0.4334 -0.6313
 7496TIP3    H146683   6.038   7.620   5.578  2.5363 -0.6805  0.5930
 7496TIP3    H246684   6.097   7.640   5.440 -1.6245 -0.2360 -1.2662
 7497TIP3   OH246685   8.085   9.007   4.983 -0.2357 -0.8170  0.0218
 7497TIP3    H146686   8.098   9.075   5.049 -1.9093 -1.4451  1.0589
 7497TIP3    H246687   7.990   8.994   4.980 -0.0073 -2.6013 -0.6699
 7498TIP3   OH246688   8.125   7.476   5.133  0.2661  0.6992  0.1478
 7498TIP3    H146689   8.156   7.409   5.194  0.3140 -0.3930 -1.0339
 7498TIP3    H246690   8.042   7.443   5.100  0.0536  1.4551 -0.0947
 7499TIP3   OH246691   4.870   9.179   6.718  0.2839  0.3418 -0.1882
 7499TIP3    H146692   4.937   9.234   6.758 -0.6083 -0.3080  2.4071
 7499TIP3    H246693   4.909   9.091   6.716 -0.6492 -0.2106  2.1023
 7500TIP3   OH246694   6.562   1.830   6.298  0.3513 -0.0754 -0.1686
 7500TIP3    H146695   6.487   1.886   6.320  0.1106 -0.7757  0.8703
 7500TIP3    H246696   6.638   1.880   6.326  0.3021  0.6911 -1.3332
 7501TIP3   OH246697   4.621   3.384   6.574  0.4344 -1.0434 -0.1235
 7501TIP3    H146698   4.615   3.290   6.561  0.0455 -1.2149  1.1553
 7501TIP3    H246699   4.555   3.421   6.515 -1.4194 -1.7876  1.3830
 7502TIP3   OH246700   0.544   8.656   5.355 -0.1582  0.4006 -0.5421
 7502TIP3    H146701   0.588   8.598   5.292  1.2469 -0.2695  0.9656
 7502TIP3    H246702   0.606   8.729   5.367 -1.4777  1.7821 -1.6848
 7503TIP3   OH246703   7.187   6.921   6.142 -0.2738  0.1463 -0.7153
 7503TIP3    H146704   7.114   6.971   6.105 -0.6845  0.7692  0.8582
 7503TIP3    H246705   7.156   6.893   6.227  1.4957  0.8849  0.2312
 7504TIP3   OH246706   8.098   8.498   5.629 -0.2627  0.1304 -0.0951
 7504TIP3    H146707   8.124   8.572   5.683  1.0297 -0.1404 -0.3186
 7504TIP3    H246708   8.079   8.428   5.692  1.7068 -0.3331  0.0634
 7505TIP3   OH246709   2.258   2.771   6.111 -0.1375  0.1773  0.3618
 7505TIP3    H146710   2.322   2.838   6.135  1.3340 -0.5560 -1.2604
 7505TIP3    H246711   2.286   2.692   6.157  0.1193 -0.1374 -0.3185
 7506TIP3   OH246712   0.990   4.287   5.577  0.1118 -0.3957  0.0497
 7506TIP3    H146713   1.009   4.196   5.555  1.7971 -0.9539  3.1801
 7506TIP3    H246714   1.073   4.332   5.566 -0.0462  0.1674  1.0465
 7507TIP3   OH246715   3.770   6.035   6.183 -0.4856  0.2590 -0.1585
 7507TIP3    H146716   3.751   6.124   6.212 -1.7709 -0.1113  0.2124
 7507TIP3    H246717   3.715   6.023   6.105  1.1162  0.4208 -1.3538
 7508TIP3   OH246718   1.827   6.800   5.935  0.0856 -0.2302 -0.3834
 7508TIP3    H146719   1.907   6.840   5.968 -0.9675  4.7449 -2.9261
 7508TIP3    H246720   1.773   6.787   6.013  2.0102 -0.4973  0.9988
 7509TIP3   OH246721   4.422   5.145   6.157 -0.2767  0.5075  0.1306
 7509TIP3    H146722   4.379   5.149   6.072  0.4013 -3.1027 -0.5721
 7509TIP3    H246723   4.351   5.127   6.219 -0.3637 -1.4438 -0.4498
 7510TIP3   OH246724   8.109   3.940   6.469  0.4204  0.4859 -0.1931
 7510TIP3    H146725   8.110   4.028   6.506 -1.1330  1.0418 -1.3393
 7510TIP3    H246726   8.053   3.890   6.528  0.6488  0.4778  0.0178
 7511TIP3   OH246727   5.413   4.431   5.456 -0.5587  0.4847 -0.5775
 7511TIP3    H146728   5.392   4.510   5.407 -0.0069  0.7442 -0.4009
 7511TIP3    H246729   5.507   4.437   5.473 -0.7731  0.4857  0.6726
 7512TIP3   OH246730   2.611   0.653   6.017 -0.1042 -0.3662 -0.0356
 7512TIP3    H146731   2.542   0.622   5.959 -1.4777  0.1622  1.2400
 7512TIP3    H246732   2.672   0.701   5.960 -1.7820  0.7572 -0.9532
 7513TIP3   OH246733   8.742   2.154   6.275  0.3959  0.0078  0.3627
 7513TIP3    H146734   8.775   2.240   6.251 -0.4804  0.5004  0.8615
 7513TIP3    H246735   8.670   2.172   6.336 -0.1340 -1.0505  0.0819
 7514TIP3   OH246736   0.896   3.568   5.514  0.0381 -0.1535 -0.3346
 7514TIP3    H146737   0.900   3.476   5.489 -0.0350 -0.2434 -0.0290
 7514TIP3    H246738   0.822   3.603   5.465  0.1385 -0.2299 -0.5400
 7515TIP3   OH246739   1.145   7.668   4.763  0.3334 -0.4964 -0.3088
 7515TIP3    H146740   1.161   7.659   4.669 -0.1103  1.0836 -0.5641
 7515TIP3    H246741   1.052   7.690   4.769  0.3002 -0.8325  0.5253
 7516TIP3   OH246742   1.657   7.326   6.184  0.7887 -0.4248 -0.4794
 7516TIP3    H146743   1.690   7.401   6.134  1.9207  0.6609  1.7881
 7516TIP3    H246744   1.733   7.269   6.195  0.5971 -0.5554  0.1795
 7517TIP3   OH246745   8.296   8.598   5.884  0.0439  0.5785 -0.5709
 7517TIP3    H146746   8.212   8.633   5.855 -0.3314  0.5312  0.3938
 7517TIP3    H246747   8.307   8.633   5.973  0.6673 -0.0415 -0.3915
 7518TIP3   OH246748   0.631   0.839   6.733  0.7215  0.0410 -0.9109
 7518TIP3    H146749   0.720   0.808   6.717  0.4433 -1.3097  0.0138
 7518TIP3    H246750   0.585   0.825   6.650  1.3843  0.9103 -1.4473
 7519TIP3   OH246751   8.185   6.504   6.284 -0.2006 -0.5371  0.3722
 7519TIP3    H146752   8.138   6.575   6.327  0.4730 -1.3338  2.5815
 7519TIP3    H246753   8.117   6.447   6.249 -0.8338 -0.4782  1.4690
 7520TIP3   OH246754   8.447   8.192   5.360 -0.2682 -0.0902  0.1235
 7520TIP3    H146755   8.357   8.221   5.379 -1.1519 -1.0467 -2.2383
 7520TIP3    H246756   8.447   8.176   5.265  1.7819 -2.2306  0.4054
 7521TIP3   OH246757   0.801   5.639   5.942  0.5776  0.3001 -0.1157
 7521TIP3    H146758   0.768   5.728   5.953 -1.1422 -0.4858  1.5388
 7521TIP3    H246759   0.757   5.606   5.863 -0.1329  0.3358  0.2622
 7522TIP3   OH246760   0.659   7.540   5.253  0.0612 -0.2782 -0.3552
 7522TIP3    H146761   0.694   7.533   5.165  0.1284 -1.3048 -0.2667
 7522TIP3    H246762   0.574   7.494   5.249 -0.2030  0.1763 -0.0291
 7523TIP3   OH246763   4.942   1.962   5.444  0.6756 -0.0851 -0.7293
 7523TIP3    H146764   4.966   2.006   5.362  1.2005 -0.5866 -0.8543
 7523TIP3    H246765   5.015   1.902   5.460 -0.1355 -1.0727 -0.6859
 7524TIP3   OH246766   4.118   4.807   5.958  0.0961  0.0283 -0.4675
 7524TIP3    H146767   4.169   4.766   6.027 -0.3310  1.5919  0.8462
 7524TIP3    H246768   4.032   4.821   5.996 -0.9381 -1.2797 -2.1769
 7525TIP3   OH246769   3.288   2.791   6.654 -0.2980 -0.9215 -0.6923
 7525TIP3    H146770   3.365   2.814   6.707 -0.0211 -0.1602 -1.3978
 7525TIP3    H246771   3.237   2.733   6.710  0.7034 -1.2989 -0.1419
 7526TIP3   OH246772   3.200   4.250   5.445  0.1712  0.1104 -0.0712
 7526TIP3    H146773   3.264   4.236   5.375 -0.7578  0.0153 -0.9118
 7526TIP3    H246774   3.216   4.178   5.506  0.4997 -0.2290 -0.5454
 7527TIP3   OH246775   6.998   0.327   5.989 -0.1334 -0.1721 -0.5317
 7527TIP3    H146776   7.015   0.377   5.909  0.4285  0.7282  0.1269
 7527TIP3    H246777   6.904   0.309   5.986 -0.5791  1.8105 -0.3322
 7528TIP3   OH246778   7.119   9.027   5.279 -0.3373 -0.8214 -0.7629
 7528TIP3    H146779   7.090   9.072   5.199  0.0972  0.1380 -0.3996
 7528TIP3    H246780   7.214   9.027   5.274 -0.0283  2.8188  1.5373
 7529TIP3   OH246781   2.140   6.484   5.833  0.2506  0.2468  0.0971
 7529TIP3    H146782   2.180   6.571   5.834  0.0662  0.3434  1.2773
 7529TIP3    H246783   2.050   6.499   5.864 -0.0887 -0.2353 -0.6274
 7530TIP3   OH246784   6.773   7.627   6.367 -0.3124  0.2262 -0.8934
 7530TIP3    H146785   6.689   7.581   6.367 -0.7922  0.9296  2.0966
 7530TIP3    H246786   6.755   7.710   6.322 -0.8441 -0.2258 -1.5205
 7531TIP3   OH246787   4.389   1.261   5.334 -0.0002 -0.0938  1.1835
 7531TIP3    H146788   4.427   1.238   5.418  1.3026  1.4564  1.0499
 7531TIP3    H246789   4.328   1.332   5.353 -1.1456 -1.0095  1.0603
 7532TIP3   OH246790   2.155   4.051   6.400 -0.3353  0.3977  0.3042
 7532TIP3    H146791   2.166   3.962   6.433  0.1498  0.5662  0.6183
 7532TIP3    H246792   2.150   4.041   6.305 -1.3025 -0.0524  0.3927
 7533TIP3   OH246793   2.500   2.575   6.307  0.2237 -0.4907 -0.9258
 7533TIP3    H146794   2.495   2.574   6.402 -0.3286  3.0787 -0.7767
 7533TIP3    H246795   2.412   2.550   6.278  0.2805 -1.1966 -0.5092
 7534TIP3   OH246796   8.554   8.579   5.119 -0.0954  0.2866  0.5136
 7534TIP3    H146797   8.568   8.496   5.073 -0.5285 -1.4097  3.2183
 7534TIP3    H246798   8.534   8.642   5.050 -1.3906 -2.2011 -1.5488
 7535TIP3   OH246799   6.606   0.163   5.277  0.2311  0.0216 -0.3973
 7535TIP3    H146800   6.581   0.255   5.274 -1.7672 -0.3541  1.4993
 7535TIP3    H246801   6.522   0.116   5.275  1.0568 -1.6167  0.8669
 7536TIP3   OH246802   0.371   0.555   6.221 -0.1935  0.2100 -1.1366
 7536TIP3    H146803   0.397   0.586   6.308  0.4114  0.0679 -1.2648
 7536TIP3    H246804   0.320   0.627   6.184 -0.1194  0.4264 -0.8247
 7537TIP3   OH246805   0.610   1.752   6.787  0.1827  0.0315  0.2144
 7537TIP3    H146806   0.559   1.821   6.829 -3.8089 -1.2489 -1.9656
 7537TIP3    H246807   0.584   1.672   6.833  0.5898 -0.6258 -0.6687
 7538TIP3   OH246808   1.019   3.813   5.585  0.3319 -0.5505 -0.5754
 7538TIP3    H146809   1.065   3.779   5.662 -0.5451 -0.8109 -0.1609
 7538TIP3    H246810   0.951   3.748   5.567 -1.1298  0.7728 -0.0099
 7539TIP3   OH246811   8.592   1.186   6.495  0.2403  0.0729  0.2365
 7539TIP3    H146812   8.653   1.174   6.567 -1.2561  0.1741  1.5810
 7539TIP3    H246813   8.633   1.143   6.420  1.5323 -0.6026  1.3058
 7540TIP3   OH246814   4.432   3.599   5.107  0.0460  0.0326 -0.0389
 7540TIP3    H146815   4.416   3.682   5.061 -1.1764 -0.2174 -0.0974
 7540TIP3    H246816   4.371   3.600   5.180  0.9249 -0.2592  0.7246
 7541TIP3   OH246817   2.440   8.471   5.292  0.9691  0.1835  0.2820
 7541TIP3    H146818   2.386   8.436   5.363  0.4229  2.2428  0.9592
 7541TIP3    H246819   2.396   8.445   5.212  0.2605 -0.1352  0.7703
 7542TIP3   OH246820   1.236   5.549   6.686  0.0246  0.2436 -0.6016
 7542TIP3    H146821   1.141   5.542   6.688  0.0535  0.0203  0.3783
 7542TIP3    H246822   1.260   5.582   6.772  0.7264  2.0466 -1.4221
 7543TIP3   OH246823   4.252   3.646   5.683  0.0724 -0.8587 -0.1014
 7543TIP3    H146824   4.167   3.604   5.693 -0.0201 -0.9257 -1.1428
 7543TIP3    H246825   4.233   3.737   5.661  0.2775 -0.2519  2.0075
 7544TIP3   OH246826   7.149   3.609   5.914  0.1341  0.4438  0.8943
 7544TIP3    H146827   7.094   3.653   5.849 -1.1895 -1.0346  0.9514
 7544TIP3    H246828   7.120   3.646   5.998  0.1943  0.6503  0.8256
 7545TIP3   OH246829   6.079   3.389   5.688  0.1519 -0.0364 -0.2589
 7545TIP3    H146830   6.116   3.351   5.608  0.3328  1.1393 -0.7583
 7545TIP3    H246831   5.985   3.376   5.679  0.1954 -0.1836 -0.5178
 7546TIP3   OH246832   7.689   8.225   6.113  0.5531  0.3623 -0.0438
 7546TIP3    H146833   7.782   8.246   6.120  0.3148  1.3175  0.4255
 7546TIP3    H246834   7.687   8.130   6.101  1.5760  0.2924  0.2360
 7547TIP3   OH246835   1.185   9.199   5.934 -0.3678  0.0625 -0.2329
 7547TIP3    H146836   1.095   9.188   5.964 -0.3277  0.9742  0.2556
 7547TIP3    H246837   1.221   9.110   5.934 -1.1892 -0.2811 -0.1960
 7548TIP3   OH246838   6.071   5.489   6.672  0.4011  0.1906  0.1840
 7548TIP3    H146839   6.156   5.463   6.635 -0.3226 -0.0152 -1.4464
 7548TIP3    H246840   6.074   5.584   6.675  0.3469  0.2370 -0.8052
 7549TIP3   OH246841   0.497   2.327   5.519 -0.1605  0.6770  0.1982
 7549TIP3    H146842   0.561   2.387   5.480 -0.5478  1.2797  0.4824
 7549TIP3    H246843   0.515   2.330   5.613  0.6959 -0.6869  0.1130
 7550TIP3   OH246844   2.050   5.933   6.131 -0.1474  0.0880 -0.1311
 7550TIP3    H146845   2.090   6.013   6.163  3.1621 -1.4746  0.0770
 7550TIP3    H246846   2.080   5.926   6.040 -0.9541 -0.5833 -0.3621
 7551TIP3   OH246847   1.082   9.151   5.100  0.0327 -0.3382  0.6155
 7551TIP3    H146848   1.157   9.153   5.159  0.6871  0.4229 -0.2027
 7551TIP3    H246849   1.116   9.110   5.020 -0.4399 -0.0631  0.2691
 7552TIP3   OH246850   2.623   4.396   5.842 -1.0250 -0.1823 -0.1274
 7552TIP3    H146851   2.633   4.303   5.825 -1.5513  0.2792 -4.0929
 7552TIP3    H246852   2.713   4.428   5.853 -0.6215 -0.8300 -1.3271
 7553TIP3   OH246853   9.086   7.496   5.692  0.4552  0.4794 -0.0891
 7553TIP3    H146854   9.045   7.433   5.633 -0.0893 -0.2604  1.0292
 7553TIP3    H246855   9.180   7.486   5.677  0.3989 -0.9158  0.3601
 7554TIP3   OH246856   8.164   6.107   6.666  0.0178 -0.1901 -0.2767
 7554TIP3    H146857   8.101   6.113   6.594  0.0163  0.9026 -0.1863
 7554TIP3    H246858   8.237   6.162   6.640  0.5907 -0.8069 -0.0088
 7555TIP3   OH246859   8.743   1.737   6.194 -0.1724  0.1331  0.3674
 7555TIP3    H146860   8.798   1.673   6.148 -1.0238  1.0926 -2.1447
 7555TIP3    H246861   8.671   1.754   6.134 -1.5090  1.3224  2.2143
 7556TIP3   OH246862   5.481   6.074   5.359  0.3210  0.3038 -0.3301
 7556TIP3    H146863   5.436   6.111   5.435  0.6580  0.4031 -0.1793
 7556TIP3    H246864   5.513   5.989   5.388  0.4888  0.3609 -0.3441
 7557TIP3   OH246865   2.623   1.576   6.073 -0.1473 -0.4736 -0.3581
 7557TIP3    H146866   2.633   1.569   5.978  2.2174 -0.8788 -0.1552
 7557TIP3    H246867   2.696   1.632   6.100 -0.0843 -1.3286  1.3277
 7558TIP3   OH246868   4.303   2.403   7.111 -0.5901  0.1061  0.1060
 7558TIP3    H146869   4.308   2.463   7.185 -1.5888 -0.9325  1.0498
 7558TIP3    H246870   4.210   2.389   7.097 -0.3883 -0.9509 -0.3002
 7559TIP3   OH246871   6.376   0.480   6.272  0.1766  0.0289 -0.3550
 7559TIP3    H146872   6.367   0.510   6.362 -2.3853  0.0627 -0.5671
 7559TIP3    H246873   6.439   0.408   6.277 -0.3834 -0.3852  1.5539
 7560TIP3   OH246874   1.559   6.608   5.592 -0.0500  0.3237 -0.7484
 7560TIP3    H146875   1.553   6.520   5.628 -0.6247  1.4905  2.3059
 7560TIP3    H246876   1.469   6.635   5.580  0.1051 -0.1679 -3.7563
 7561TIP3   OH246877   3.160   3.305   4.849 -0.5268 -0.0246  0.2029
 7561TIP3    H146878   3.175   3.325   4.756  0.2339 -0.6877  0.1718
 7561TIP3    H246879   3.244   3.272   4.880 -0.7261  0.3787  1.1868
 7562TIP3   OH246880   8.677   2.057   5.764 -0.6858  0.1535  0.5154
 7562TIP3    H146881   8.687   2.134   5.819 -1.9047  1.3059 -0.8162
 7562TIP3    H246882   8.611   2.004   5.808 -0.1758  0.0642  1.1933
 7563TIP3   OH246883   8.957   8.137   5.760 -0.2049 -0.1727 -0.2443
 7563TIP3    H146884   8.999   8.090   5.832 -0.3544 -0.5405 -0.3936
 7563TIP3    H246885   8.959   8.229   5.787  0.1425 -0.2554  0.0258
 7564TIP3   OH246886   7.744   6.915   4.909  0.0479  0.1151 -0.1223
 7564TIP3    H146887   7.831   6.876   4.902  0.4686  0.5055  2.0739
 7564TIP3    H246888   7.687   6.843   4.936 -0.1965 -0.0032 -0.9291
 7565TIP3   OH246889   2.850   6.233   5.425  0.3109  0.7380 -0.3071
 7565TIP3    H146890   2.768   6.272   5.456  0.9531  1.0385  1.0667
 7565TIP3    H246891   2.883   6.295   5.360  0.3302  1.4991  0.4135
 7566TIP3   OH246892   2.379   9.159   5.698  0.0408 -0.6112 -0.4429
 7566TIP3    H146893   2.302   9.117   5.738  0.2917 -1.2883 -0.6645
 7566TIP3    H246894   2.413   9.216   5.767 -0.2572 -0.8282 -0.1118
 7567TIP3   OH246895   7.119   1.161   5.843  0.0641 -0.3088  0.1024
 7567TIP3    H146896   7.195   1.203   5.802  0.5666 -0.4372  0.8863
 7567TIP3    H246897   7.156   1.102   5.908 -0.6439 -1.9461 -0.9354
 7568TIP3   OH246898   2.659   2.679   6.825 -0.5631 -0.3440 -0.4659
 7568TIP3    H146899   2.576   2.715   6.794 -0.4989 -0.4599 -0.7757
 7568TIP3    H246900   2.673   2.722   6.909  0.0101  1.1419 -1.2753
 7569TIP3   OH246901   8.810   3.315   5.934 -0.6781 -0.3726  0.1342
 7569TIP3    H146902   8.824   3.222   5.949  3.8030  0.2190  0.8811
 7569TIP3    H246903   8.793   3.351   6.021  3.2595  0.0811  0.8967
 7570TIP3   OH246904   0.509   0.524   4.984  0.3212  0.0623 -0.1941
 7570TIP3    H146905   0.519   0.431   4.964 -0.1684  0.0065 -0.1982
 7570TIP3    H246906   0.583   0.566   4.941  1.1102 -0.4343  0.6378
 7571TIP3   OH246907   4.049   7.452   6.270  0.0371  0.5032 -0.0890
 7571TIP3    H146908   3.974   7.508   6.250 -0.5791 -0.6360 -1.0573
 7571TIP3    H246909   4.078   7.420   6.185 -0.3093 -1.5000  0.5100
 7572TIP3   OH246910   8.849   8.070   6.187  0.0996  0.6039 -0.8051
 7572TIP3    H146911   8.831   8.155   6.226 -0.9937 -0.5455  1.4128
 7572TIP3    H246912   8.945   8.066   6.181  0.3544  1.0055  1.6544
 7573TIP3   OH246913   3.770   5.546   6.916  0.9997  0.4406 -0.5545
 7573TIP3    H146914   3.705   5.497   6.966  2.5939  0.6544  1.9091
 7573TIP3    H246915   3.790   5.489   6.841 -0.2546 -0.7034 -0.0577
 7574TIP3   OH246916   6.234   0.668   6.143  0.0320  0.8483  0.3358
 7574TIP3    H146917   6.301   0.708   6.087 -0.4359 -0.1345 -0.9769
 7574TIP3    H246918   6.283   0.611   6.202  0.3468 -0.5091 -1.1581
 7575TIP3   OH246919   3.647   2.234   6.114  0.6824 -0.3127 -0.3480
 7575TIP3    H146920   3.639   2.173   6.041 -0.7472 -2.8727  1.7936
 7575TIP3    H246921   3.737   2.223   6.144  0.7151 -0.6593 -0.5631
 7576TIP3   OH246922   9.157   0.762   5.468  0.3459 -0.1826  0.1538
 7576TIP3    H146923   9.233   0.704   5.466  0.2683 -0.2983 -2.1177
 7576TIP3    H246924   9.083   0.704   5.449  0.1558  0.4901 -1.2210
 7577TIP3   OH246925   3.803   8.726   6.080 -0.5613 -0.4349 -0.7483
 7577TIP3    H146926   3.794   8.814   6.043 -2.7561 -1.5194 -3.1529
 7577TIP3    H246927   3.865   8.682   6.021  1.1201 -0.3641  0.8777
 7578TIP3   OH246928   6.343   7.251   6.755  0.3875 -0.1370  0.0898
 7578TIP3    H146929   6.261   7.287   6.721  0.8238  0.6385 -0.1681
 7578TIP3    H246930   6.411   7.308   6.718  0.9576  0.0194  1.3203
 7579TIP3   OH246931   5.913   0.357   5.426 -0.0190 -0.1916 -0.1033
 7579TIP3    H146932   5.913   0.283   5.365 -0.7022 -0.6370  0.4191
 7579TIP3    H246933   5.960   0.325   5.503 -2.7358 -1.1482  1.3100
 7580TIP3   OH246934   6.151   1.691   6.138  0.6294 -0.2672 -0.4327
 7580TIP3    H146935   6.230   1.659   6.184  1.1316 -1.3305 -1.9453
 7580TIP3    H246936   6.112   1.612   6.101 -0.7755  0.3485 -0.3297
 7581TIP3   OH246937   6.061   6.224   6.216  0.6797 -0.3694 -0.0877
 7581TIP3    H146938   6.146   6.251   6.180  0.7297  1.3475  1.1889
 7581TIP3    H246939   6.078   6.210   6.309 -0.0743 -1.8071 -0.1438
 7582TIP3   OH246940   9.045   0.278   6.725 -0.1077 -0.3246  0.3483
 7582TIP3    H146941   9.091   0.199   6.756  0.1637 -1.2661 -2.2595
 7582TIP3    H246942   9.055   0.276   6.630 -1.2709  2.1750  0.1033
 7583TIP3   OH246943   0.585   3.209   6.149 -0.1303 -0.0065  0.2145
 7583TIP3    H146944   0.519   3.271   6.120 -1.2662 -1.1544  0.2551
 7583TIP3    H246945   0.658   3.263   6.178 -1.3546  1.3415  0.9039
 7584TIP3   OH246946   4.106   3.420   7.019 -0.0129 -0.5569 -0.2759
 7584TIP3    H146947   4.068   3.503   7.047 -0.9433 -1.4311  1.1724
 7584TIP3    H246948   4.031   3.366   6.994  0.2105 -2.1423  2.1678
 7585TIP3   OH246949   3.564   4.450   5.135 -0.3132  0.1265  0.1964
 7585TIP3    H146950   3.570   4.453   5.040 -1.1852  1.2518  0.1568
 7585TIP3    H246951   3.535   4.538   5.160  2.3050  0.6851  1.7009
 7586TIP3   OH246952   7.327   6.566   6.079 -0.1396  0.0106  0.2083
 7586TIP3    H146953   7.277   6.624   6.022  0.8675  0.4331 -0.2896
 7586TIP3    H246954   7.336   6.615   6.161 -0.2531  0.0860  0.1755
 7587TIP3   OH246955   0.364   6.418   5.786 -0.0861  0.4922 -0.0378
 7587TIP3    H146956   0.277   6.457   5.775  0.8332  2.1973 -1.9278
 7587TIP3    H246957   0.397   6.454   5.868 -1.2200 -0.4112  0.8607
 7588TIP3   OH246958   8.678   4.188   4.960 -0.2415  0.1995 -0.3473
 7588TIP3    H146959   8.662   4.273   5.000  1.0545  0.4400 -0.2775
 7588TIP3    H246960   8.737   4.207   4.887 -0.1534 -0.6050 -0.4935
 7589TIP3   OH246961   2.649   5.128   6.038  0.0857 -0.2389 -0.7246
 7589TIP3    H146962   2.562   5.168   6.051 -0.3760 -1.7046  1.2642
 7589TIP3    H246963   2.631   5.044   5.996  0.3231 -1.2076  1.0002
 7590TIP3   OH246964   6.097   6.879   5.946 -0.2524 -0.0124 -0.0325
 7590TIP3    H146965   6.013   6.847   5.914 -0.1555  0.9517 -1.3370
 7590TIP3    H246966   6.162   6.831   5.894 -0.0364  0.2679 -0.0251
 7591TIP3   OH246967   7.346   8.158   6.883 -0.0135  0.3084 -0.1591
 7591TIP3    H146968   7.298   8.104   6.820  1.9028 -0.7237 -0.8209
 7591TIP3    H246969   7.351   8.244   6.842  0.4062 -0.1076 -1.0202
 7592TIP3   OH246970   5.710   1.005   5.294 -0.1814  0.3058 -0.3837
 7592TIP3    H146971   5.639   0.996   5.230 -0.8679 -4.5897  0.6894
 7592TIP3    H246972   5.786   0.964   5.252  0.7363  1.2912  0.2554
 7593TIP3   OH246973   0.355   1.296   7.016  0.9554 -0.2600 -0.4673
 7593TIP3    H146974   0.273   1.258   6.983  0.0973  1.4253 -0.3495
 7593TIP3    H246975   0.415   1.288   6.942  0.5368 -1.0027 -0.7458
 7594TIP3   OH246976   4.918   0.116   5.514 -0.6832 -0.4161 -0.6814
 7594TIP3    H146977   4.939   0.073   5.596 -2.4705  1.1376  0.6850
 7594TIP3    H246978   4.856   0.058   5.471  1.7997 -2.2493 -2.0302
 7595TIP3   OH246979   2.250   8.354   5.932 -0.3344  0.0789  0.1764
 7595TIP3    H146980   2.182   8.347   5.866 -1.2747  2.4620  0.7958
 7595TIP3    H246981   2.216   8.305   6.007  0.2161 -1.6301 -0.6447
 7596TIP3   OH246982   4.578   4.467   5.160 -0.2414  0.0490  0.7585
 7596TIP3    H146983   4.584   4.408   5.085  1.3740  1.2207 -0.0940
 7596TIP3    H246984   4.581   4.409   5.236  0.5961 -1.0325 -0.0595
 7597TIP3   OH246985   6.743   0.652   6.412  0.0986  0.0822 -0.3932
 7597TIP3    H146986   6.714   0.595   6.341  1.4158  0.3527 -1.1782
 7597TIP3    H246987   6.687   0.729   6.405 -1.5792 -0.9773  0.5665
 7598TIP3   OH246988   7.505   4.375   5.207 -0.1086  0.4889 -0.1201
 7598TIP3    H146989   7.593   4.413   5.199  0.2749 -0.1131  1.1049
 7598TIP3    H246990   7.511   4.314   5.280 -1.6992  0.8376  0.3365
 7599TIP3   OH246991   6.942   2.266   5.451  0.3119 -0.3163 -1.1555
 7599TIP3    H146992   7.013   2.264   5.516 -2.7591  0.3613  2.5638
 7599TIP3    H246993   6.869   2.222   5.494 -2.3229  1.1322 -3.7726
 7600TIP3   OH246994   1.228   3.140   5.324  0.8061 -0.5066 -0.3818
 7600TIP3    H146995   1.277   3.219   5.345  2.2636 -1.0810 -1.3899
 7600TIP3    H246996   1.250   3.079   5.394  0.5887 -0.3771 -0.2023
 7601TIP3   OH246997   1.034   2.862   5.078 -0.0074 -0.8423  0.0181
 7601TIP3    H146998   1.052   2.819   5.162  1.4722 -0.5056 -0.0973
 7601TIP3    H246999   1.005   2.950   5.102  0.4700 -0.7262  0.1971
 7602TIP3   OH247000   5.635   3.129   5.873 -0.2008 -0.3361 -0.1533
 7602TIP3    H147001   5.600   3.172   5.950  0.8221 -0.0218  0.1522
 7602TIP3    H247002   5.616   3.036   5.886  2.7949 -0.8102  2.1488
 7603TIP3   OH247003   9.098   9.008   6.423 -0.4833 -0.6029  0.9520
 7603TIP3    H147004   9.039   9.049   6.359  0.1152  0.3068  0.9599
 7603TIP3    H247005   9.162   9.076   6.443 -0.6975 -0.8478  2.5846
 7604TIP3   OH247006   0.211   7.321   6.129 -0.1774  0.1298  0.1272
 7604TIP3    H147007   0.274   7.251   6.147  2.4636  2.5926  1.0712
 7604TIP3    H247008   0.169   7.338   6.214 -1.0260 -0.3959 -0.1621
 7605TIP3   OH247009   5.865   3.219   6.402 -0.1633 -0.1384 -0.2662
 7605TIP3    H147010   5.842   3.129   6.426  1.1958 -0.5431 -0.4172
 7605TIP3    H247011   5.940   3.240   6.458 -0.3942  0.8592 -0.3188
 7606TIP3   OH247012   0.554   8.823   5.691  0.5267  0.0839  0.0642
 7606TIP3    H147013   0.555   8.913   5.660 -0.0901  0.1793  0.3012
 7606TIP3    H247014   0.581   8.771   5.616  1.8106  0.5362  0.1916
 7607TIP3   OH247015   2.712   8.380   5.661 -0.0507 -0.0409  0.2094
 7607TIP3    H147016   2.777   8.441   5.697 -0.0293 -0.5956  1.1461
 7607TIP3    H247017   2.728   8.381   5.566 -0.0158  1.3563  0.2140
 7608TIP3   OH247018   2.779   7.680   6.522 -0.0644  0.2800 -0.4621
 7608TIP3    H147019   2.824   7.751   6.567 -0.6099  0.2633  0.1233
 7608TIP3    H247020   2.686   7.704   6.525 -0.3641 -0.9219  0.6217
 7609TIP3   OH247021   5.253   2.392   5.281 -0.0720  0.2114 -0.2266
 7609TIP3    H147022   5.273   2.444   5.359  0.1875  0.0763 -0.2050
 7609TIP3    H247023   5.241   2.303   5.313 -3.1033  0.6379  0.1461
 7610TIP3   OH247024   0.691   4.586   6.305  0.2322 -0.1399 -0.1324
 7610TIP3    H147025   0.671   4.572   6.397 -0.1738 -1.0062 -0.3432
 7610TIP3    H247026   0.762   4.649   6.305  0.2014 -0.0975  0.7722
 7611TIP3   OH247027   1.918   4.212   6.364 -0.0224 -0.1290 -0.0341
 7611TIP3    H147028   1.984   4.271   6.400 -1.1185 -0.5415  2.9174
 7611TIP3    H247029   1.963   4.127   6.359  0.2534  0.0104  0.0293
 7612TIP3   OH247030   0.191   0.610   5.480 -0.2445 -0.0776 -0.0067
 7612TIP3    H147031   0.269   0.661   5.463  0.8293 -1.7999 -0.5606
 7612TIP3    H247032   0.208   0.567   5.564 -1.4545  1.0122  0.8370
 7613TIP3   OH247033   8.648   0.557   5.812 -0.4258 -0.2367  0.4877
 7613TIP3    H147034   8.565   0.603   5.795 -0.6721 -1.4363 -1.8623
 7613TIP3    H247035   8.635   0.470   5.776  1.9974 -0.3323 -0.3204
 7614TIP3   OH247036   2.041   4.563   6.605 -0.2123 -0.3890 -0.4412
 7614TIP3    H147037   2.102   4.575   6.678 -0.0551 -0.2030 -0.6013
 7614TIP3    H247038   2.076   4.489   6.557 -0.1164 -0.2842 -0.5313
 7615TIP3   OH247039   7.859   1.446   6.174 -0.2522  0.3057 -0.1450
 7615TIP3    H147040   7.787   1.403   6.221  1.8175 -2.1143  1.0877
 7615TIP3    H247041   7.876   1.388   6.099  0.3536  0.8822 -0.4629
 7616TIP3   OH247042   6.022   8.403   6.640  0.0307 -0.2203  0.0701
 7616TIP3    H147043   5.945   8.389   6.585 -0.3547 -0.1093  0.5678
 7616TIP3    H247044   6.027   8.498   6.652  0.5368 -0.1883 -0.3621
 7617TIP3   OH247045   7.373   4.239   4.971  0.1355  0.2324 -0.5527
 7617TIP3    H147046   7.282   4.243   4.999 -0.5564 -0.2120 -2.6179
 7617TIP3    H247047   7.423   4.244   5.053 -1.7153  0.3651  0.6290
 7618TIP3   OH247048   2.015   5.313   6.201  0.0979 -0.1465  0.2654
 7618TIP3    H147049   2.068   5.383   6.163  2.1143 -0.4386  2.3223
 7618TIP3    H247050   1.944   5.358   6.248  0.3545  0.4268  0.1000
 7619TIP3   OH247051   2.202   0.695   4.775 -0.5912  0.1011  0.1886
 7619TIP3    H147052   2.183   0.647   4.857 -0.4000  0.1391  0.2550
 7619TIP3    H247053   2.259   0.636   4.726 -1.1092 -0.1389 -0.1403
 7620TIP3   OH247054   6.353   7.433   5.283  0.3307 -0.0854  0.1127
 7620TIP3    H147055   6.347   7.391   5.368 -1.0386  1.2068  0.6987
 7620TIP3    H247056   6.433   7.486   5.289  0.0768  0.2454  0.7315
 7621TIP3   OH247057   0.073   9.195   6.490 -0.0867 -0.2556  0.2533
 7621TIP3    H147058   0.164   9.205   6.461 -0.6798  1.2995 -1.2838
 7621TIP3    H247059   0.067   9.250   6.569  0.6976 -1.7843  1.4332
 7622TIP3   OH247060   3.002   5.185   6.272  0.1784  0.4467  0.3098
 7622TIP3    H147061   2.995   5.189   6.177 -2.7215  0.3937  0.4290
 7622TIP3    H247062   2.962   5.102   6.296  3.7434 -1.1125  1.4939
 7623TIP3   OH247063   7.492   0.495   6.957  0.0413 -0.5010  0.1159
 7623TIP3    H147064   7.497   0.469   6.865  0.8042  0.2052 -0.0531
 7623TIP3    H247065   7.487   0.590   6.955  0.6170 -0.4505  0.8249
 7624TIP3   OH247066   3.911   8.422   6.129  0.4154  0.4544  0.0255
 7624TIP3    H147067   3.929   8.433   6.036 -1.8957 -0.5773 -0.6196
 7624TIP3    H247068   3.827   8.466   6.143  1.3178  1.7037  1.9422
 7625TIP3   OH247069   3.765   0.307   5.860  0.0045 -0.1518  0.4105
 7625TIP3    H147070   3.717   0.227   5.837 -1.7115  0.7321  0.8142
 7625TIP3    H247071   3.856   0.286   5.838 -0.1309 -2.7622  1.8572
 7626TIP3   OH247072   2.945   8.245   5.336  0.1149  0.1727 -0.0661
 7626TIP3    H147073   2.903   8.160   5.345 -1.0699  0.9629  2.9562
 7626TIP3    H247074   3.025   8.239   5.388 -0.2283  1.0096  0.5929
 7627TIP3   OH247075   7.499   4.493   4.782  0.3997  0.0538 -0.0598
 7627TIP3    H147076   7.486   4.416   4.837 -0.7584  1.3935  1.6477
 7627TIP3    H247077   7.590   4.518   4.796  0.4798 -0.3832  0.2164
 7628TIP3   OH247078   6.574   4.532   5.509 -0.2512  0.1699 -0.2676
 7628TIP3    H147079   6.669   4.545   5.516 -0.5537  2.3104  0.7206
 7628TIP3    H247080   6.560   4.510   5.417  1.0474  1.9386 -0.9629
 7629TIP3   OH247081   8.434   4.922   5.915 -0.0542 -0.5098 -0.3452
 7629TIP3    H147082   8.357   4.907   5.970 -0.2214  0.7937 -0.1996
 7629TIP3    H247083   8.418   4.868   5.837 -0.9866 -0.4657 -0.1974
 7630TIP3   OH247084   4.324   0.989   6.399 -0.2052  0.0726 -0.3593
 7630TIP3    H147085   4.283   1.075   6.391  1.1254  0.5779 -2.2775
 7630TIP3    H247086   4.418   1.006   6.388  0.1937 -1.4912  0.3641
 7631TIP3   OH247087   7.442   8.551   7.002  0.0831  0.4292  0.2116
 7631TIP3    H147088   7.436   8.456   7.011  1.2404  0.3977  0.8765
 7631TIP3    H247089   7.351   8.581   6.997 -0.3770 -1.0187 -3.7989
 7632TIP3   OH247090   0.743   1.568   5.301  0.0388 -0.0266  0.0866
 7632TIP3    H147091   0.717   1.555   5.209 -0.6403  0.5910  0.1855
 7632TIP3    H247092   0.816   1.507   5.313  1.3319  1.1407 -1.3730
 7633TIP3   OH247093   4.644   4.288   5.368  0.0804 -0.4314  0.1699
 7633TIP3    H147094   4.579   4.320   5.431 -0.2487 -0.5615 -0.1018
 7633TIP3    H247095   4.726   4.288   5.416  0.1623  1.1881  0.0818
 7634TIP3   OH247096   8.225   9.154   6.579  0.1607 -0.1346  0.4867
 7634TIP3    H147097   8.268   9.238   6.598 -1.3886  0.3839  1.8894
 7634TIP3    H247098   8.167   9.139   6.654 -2.3293 -0.6395 -1.4193
 7635TIP3   OH247099   8.020   6.089   5.742 -0.4969 -0.4385 -0.7411
 7635TIP3    H147100   8.052   6.141   5.668 -0.0230 -0.3065 -0.4489
 7635TIP3    H247101   7.951   6.143   5.782  2.5756  1.8951  1.9632
 7636TIP3   OH247102   0.466   6.052   4.965  0.5783 -0.1377  0.1653
 7636TIP3    H147103   0.462   6.079   4.873  0.1141 -0.0597  0.2073
 7636TIP3    H247104   0.375   6.056   4.995  0.7877  0.2572  0.7507
 7637TIP3   OH247105   4.021   2.527   5.243  0.0880  0.2473 -0.8362
 7637TIP3    H147106   4.094   2.562   5.293 -0.3849  2.4283 -1.5781
 7637TIP3    H247107   3.959   2.496   5.309  0.2591  1.4032 -0.1154
 7638TIP3   OH247108   5.060   5.315   6.084  0.2382  0.6265  0.1103
 7638TIP3    H147109   5.153   5.300   6.100  0.0833 -0.5749 -0.0163
 7638TIP3    H247110   5.051   5.410   6.080  1.2717  0.7961  1.2713
 7639TIP3   OH247111   0.556   1.032   4.797  0.0453 -0.5923  0.1158
 7639TIP3    H147112   0.505   0.956   4.770  1.3833 -1.2894 -0.5690
 7639TIP3    H247113   0.550   1.033   4.892 -1.0497 -0.7867  0.0533
 7640TIP3   OH247114   3.971   3.686   6.992 -0.0535  0.0613  0.4782
 7640TIP3    H147115   3.894   3.686   6.934  0.9338 -1.3208 -0.8969
 7640TIP3    H247116   4.033   3.746   6.950  0.6227 -0.8532  0.1551
 7641TIP3   OH247117   7.299   7.369   5.631  0.3515 -0.7970  0.1751
 7641TIP3    H147118   7.355   7.320   5.692 -0.2246  1.5278  2.7791
 7641TIP3    H247119   7.361   7.418   5.577  1.0452  1.6083  2.8944
 7642TIP3   OH247120   8.306   4.009   6.819 -0.0836  0.1634  0.7620
 7642TIP3    H147121   8.379   3.972   6.769 -0.2828 -0.5755  1.0194
 7642TIP3    H247122   8.306   4.102   6.796 -0.8152 -0.3302 -1.4149
 7643TIP3   OH247123   8.144   6.249   5.516 -0.0496  0.3762 -0.2702
 7643TIP3    H147124   8.071   6.307   5.492 -1.0181 -0.5048  0.4190
 7643TIP3    H247125   8.166   6.203   5.435 -0.6861  0.2024 -0.3499
 7644TIP3   OH247126   7.034   6.070   5.287 -0.2509  0.2577 -0.1332
 7644TIP3    H147127   7.097   6.101   5.222 -0.8061 -0.4358 -1.0328
 7644TIP3    H247128   7.088   6.047   5.363  0.4122  1.0488 -0.3513
 7645TIP3   OH247129   2.536   7.832   5.539 -0.0396  0.1567 -0.5385
 7645TIP3    H147130   2.478   7.801   5.469  0.4665 -0.2859 -0.7650
 7645TIP3    H247131   2.547   7.925   5.521 -0.8357  0.2892 -0.3808
 7646TIP3   OH247132   2.603   1.763   4.710  0.1756  0.4729 -0.4272
 7646TIP3    H147133   2.614   1.721   4.796  0.4670 -1.9013 -1.5281
 7646TIP3    H247134   2.516   1.736   4.681  0.2776  0.8328 -1.0847
 7647TIP3   OH247135   2.668   0.834   5.611  0.2654  0.1428 -0.5326
 7647TIP3    H147136   2.573   0.820   5.618  0.4682 -1.0820 -0.0241
 7647TIP3    H247137   2.686   0.827   5.518 -0.2011  0.8817 -0.6939
 7648TIP3   OH247138   3.366   0.983   5.837  0.5258 -0.1393  0.0286
 7648TIP3    H147139   3.389   0.973   5.929 -1.8262  2.0442  0.9945
 7648TIP3    H247140   3.301   0.915   5.821  1.3222 -0.8549 -0.1843
 7649TIP3   OH247141   1.532   8.902   6.115 -0.2611  0.5227 -0.0825
 7649TIP3    H147142   1.615   8.895   6.163  0.7723 -1.2711 -1.9737
 7649TIP3    H247143   1.537   8.988   6.072  1.4455 -0.2228 -1.5038
 7650TIP3   OH247144   8.916   6.016   6.369 -0.1878 -0.2556  0.7727
 7650TIP3    H147145   8.904   6.023   6.464  0.5839 -1.4536  0.9679
 7650TIP3    H247146   8.871   5.935   6.345 -0.9199  0.3613  0.0070
 7651TIP3   OH247147   3.475   3.369   6.353  0.1185 -1.3561 -0.7664
 7651TIP3    H147148   3.385   3.375   6.385 -0.1817  1.6908 -1.8320
 7651TIP3    H247149   3.472   3.300   6.287 -1.2517 -1.7681 -0.3158
 7652TIP3   OH247150   8.625   7.115   5.657  0.2934  0.7345 -0.6075
 7652TIP3    H147151   8.626   7.211   5.663  2.1854  0.7325 -0.1593
 7652TIP3    H247152   8.651   7.085   5.744  0.6460 -0.1483 -1.0046
 7653TIP3   OH247153   2.452   7.504   5.061 -0.1689  0.3356 -0.1649
 7653TIP3    H147154   2.503   7.427   5.036 -1.1059 -0.7191  0.9829
 7653TIP3    H247155   2.363   7.484   5.031 -0.2222  1.4874 -0.8346
 7654TIP3   OH247156   9.031   2.088   5.832 -0.1077  0.2433 -0.0467
 7654TIP3    H147157   9.016   2.101   5.739 -2.3301 -0.1766  0.1855
 7654TIP3    H247158   8.953   2.124   5.874  0.5141 -0.2224  1.6022
 7655TIP3   OH247159   2.853   3.754   5.832 -0.0297 -0.1475  0.3125
 7655TIP3    H147160   2.804   3.736   5.752  0.6661 -3.2423  0.4389
 7655TIP3    H247161   2.786   3.768   5.899 -0.6141  1.8844 -0.6407
 7656TIP3   OH247162   3.743   1.360   6.231 -0.2801  0.1769 -0.6885
 7656TIP3    H147163   3.721   1.452   6.246  3.7206  0.9595  2.2026
 7656TIP3    H247164   3.798   1.360   6.153  1.4822  0.7600  0.4713
 7657TIP3   OH247165   3.177   7.803   5.362  0.1966  0.0691 -0.2082
 7657TIP3    H147166   3.108   7.791   5.427  1.5056  0.7487  1.3771
 7657TIP3    H247167   3.168   7.729   5.302  0.3938 -1.9261  2.1088
 7658TIP3   OH247168   8.547   3.924   6.731 -0.0299  0.7601 -0.1480
 7658TIP3    H147169   8.587   3.848   6.773 -1.0035  0.5567  0.4450
 7658TIP3    H247170   8.567   3.912   6.638 -0.9979 -0.7738 -0.2049
 7659TIP3   OH247171   0.386   3.585   6.583 -0.5124  0.5390 -0.0909
 7659TIP3    H147172   0.389   3.676   6.614  0.3767  0.3331  0.4626
 7659TIP3    H247173   0.478   3.560   6.573 -0.6862  0.7416 -3.4453
 7660TIP3   OH247174   8.740   8.954   5.384 -0.0767 -0.0253 -0.7698
 7660TIP3    H147175   8.750   9.043   5.350  0.6113  0.3922  0.4954
 7660TIP3    H247176   8.823   8.934   5.426  0.0430 -1.5614 -1.6731
 7661TIP3   OH247177   8.775   4.930   6.280 -0.0780  0.6395  0.0165
 7661TIP3    H147178   8.816   5.013   6.303  0.7435  0.3745 -0.4560
 7661TIP3    H247179   8.741   4.942   6.191  0.1704  0.4301 -0.1095
 7662TIP3   OH247180   4.043   9.206   6.202 -0.1130 -0.4946  0.1552
 7662TIP3    H147181   4.034   9.287   6.152 -0.4624 -0.6305 -0.0078
 7662TIP3    H247182   3.976   9.213   6.270  1.8997  0.7725  2.1273
 7663TIP3   OH247183   2.469   4.559   5.381 -0.0062 -0.6750  0.1598
 7663TIP3    H147184   2.514   4.609   5.312  0.3721 -2.1553 -0.7176
 7663TIP3    H247185   2.537   4.501   5.415 -0.2886 -0.2109  1.5742
 7664TIP3   OH247186   9.173   4.121   6.131  0.1664  0.2146 -0.0363
 7664TIP3    H147187   9.102   4.132   6.067  0.7647 -0.7999 -0.9188
 7664TIP3    H247188   9.190   4.209   6.164  1.1662  1.1529 -2.7760
 7665TIP3   OH247189   0.252   1.376   6.501 -0.0795 -0.3406 -0.0909
 7665TIP3    H147190   0.232   1.399   6.592 -0.2004 -0.6269 -0.0423
 7665TIP3    H247191   0.272   1.282   6.505  1.2240 -0.0776 -0.1484
 7666TIP3   OH247192   8.738   7.698   5.434  0.0105  0.2920  0.1452
 7666TIP3    H147193   8.702   7.619   5.394  1.2583  1.1761 -3.0707
 7666TIP3    H247194   8.666   7.734   5.486 -1.4581 -1.5181 -0.5361
 7667TIP3   OH247195   3.881   1.003   6.127 -0.2494  0.1147 -0.1177
 7667TIP3    H147196   3.873   0.978   6.035  1.0274 -0.4664 -0.0820
 7667TIP3    H247197   3.832   0.937   6.175 -0.5448  0.1700 -0.3415
 7668TIP3   OH247198   2.741   9.148   5.741 -0.2071  0.3882  0.0456
 7668TIP3    H147199   2.660   9.126   5.695  0.4726 -0.0788 -0.9623
 7668TIP3    H247200   2.807   9.152   5.673  0.3317  2.4767  0.6003
 7669TIP3   OH247201   3.062   3.950   5.101  0.6730  0.3157  0.1001
 7669TIP3    H147202   3.014   4.022   5.061  1.8648  1.1521  0.1074
 7669TIP3    H247203   3.060   3.969   5.195  0.5702  0.0751  0.1458
 7670TIP3   OH247204   1.874   2.348   5.204 -0.3911 -0.4160 -0.0719
 7670TIP3    H147205   1.933   2.273   5.202  1.4030  0.9135  0.5048
 7670TIP3    H247206   1.786   2.310   5.195  0.4721 -2.5218 -0.1421
 7671TIP3   OH247207   8.058   6.737   5.278  0.6590 -0.6367  0.5922
 7671TIP3    H147208   7.965   6.752   5.297  0.7500 -0.6035  1.0082
 7671TIP3    H247209   8.102   6.748   5.362  1.3623  1.9032 -0.0080
 7672TIP3   OH247210   5.214   4.773   6.349 -0.2468  0.1738  0.1478
 7672TIP3    H147211   5.178   4.690   6.381  0.8088 -0.6489 -0.7512
 7672TIP3    H247212   5.274   4.802   6.418  0.9240 -0.8600 -0.4066
 7673TIP3   OH247213   3.154   6.037   6.484 -0.7440 -0.1790 -0.1403
 7673TIP3    H147214   3.198   6.121   6.475  1.2840 -0.9414  1.7508
 7673TIP3    H247215   3.076   6.055   6.535 -0.5126  0.6336 -0.0661
 7674TIP3   OH247216   8.698   5.307   6.009 -0.5877  0.3912 -0.2166
 7674TIP3    H147217   8.664   5.237   6.066 -0.4570  2.0007  1.9927
 7674TIP3    H247218   8.681   5.387   6.059  2.1840  1.6792 -1.1700
 7675TIP3   OH247219   3.419   6.523   5.670  0.0081  0.0721 -0.2825
 7675TIP3    H147220   3.448   6.533   5.579  1.5283  2.0592  0.3466
 7675TIP3    H247221   3.476   6.455   5.706  0.0226 -0.0693 -0.5700
 7676TIP3   OH247222   4.936   5.719   5.297  0.0879  0.1506  0.8298
 7676TIP3    H147223   5.021   5.676   5.298  0.7933  1.4765  2.4843
 7676TIP3    H247224   4.956   5.812   5.302 -1.4681  0.5209  0.6731
 7677TIP3   OH247225   2.706   6.667   6.508  0.1783 -0.5518 -0.3622
 7677TIP3    H147226   2.757   6.707   6.578 -0.2042  1.9663 -1.4102
 7677TIP3    H247227   2.771   6.623   6.453  0.8945  0.3397 -0.2468
 7678TIP3   OH247228   0.296   1.483   5.036 -0.3382  0.6862  0.0630
 7678TIP3    H147229   0.305   1.407   4.980  0.0902  1.3724 -0.8222
 7678TIP3    H247230   0.298   1.448   5.125  0.2532 -0.2879 -0.3275
 7679TIP3   OH247231   2.803   3.511   6.168 -0.1046  0.1119  0.3556
 7679TIP3    H147232   2.755   3.521   6.086 -0.8156  0.6001  0.8211
 7679TIP3    H247233   2.761   3.437   6.211  0.4563 -0.3306  0.1627
 7680TIP3   OH247234   6.692   5.928   6.400  0.0719  0.4578 -0.4369
 7680TIP3    H147235   6.630   5.892   6.464  0.5005  0.3276 -0.0938
 7680TIP3    H247236   6.748   5.854   6.376 -2.1172 -0.4255 -3.4900
 7681TIP3   OH247237   4.653   3.627   6.284  0.3425  0.3289 -0.5353
 7681TIP3    H147238   4.597   3.644   6.208 -0.7974  0.0001  0.1971
 7681TIP3    H247239   4.739   3.606   6.247  0.4385  2.3733 -1.6617
 7682TIP3   OH247240   7.460   1.306   5.387  0.2782  0.0647  0.2268
 7682TIP3    H147241   7.414   1.239   5.436 -0.7310 -0.0566 -0.8472
 7682TIP3    H247242   7.540   1.263   5.355 -0.4977 -0.7316 -0.6909
 7683TIP3   OH247243   3.902   5.377   6.286  0.0006 -0.0622  0.0614
 7683TIP3    H147244   3.842   5.365   6.212  0.8775  0.8494 -0.8307
 7683TIP3    H247245   3.859   5.333   6.359 -0.5493 -1.6794 -1.1574
 7684TIP3   OH247246   8.882   4.620   5.772  0.2098 -0.0452  0.5898
 7684TIP3    H147247   8.857   4.668   5.693 -0.2377 -0.8830  0.2151
 7684TIP3    H247248   8.977   4.621   5.771  0.2186  1.1708  0.8008
 7685TIP3   OH247249   9.118   8.258   5.209 -0.1122 -0.7926 -0.3653
 7685TIP3    H147250   9.197   8.254   5.154 -0.2827 -0.1887 -0.6640
 7685TIP3    H247251   9.078   8.342   5.186 -1.6001 -1.7114 -1.2667
 7686TIP3   OH247252   5.346   5.680   6.193 -0.2501 -0.6274 -0.1940
 7686TIP3    H147253   5.260   5.688   6.153 -1.3757  0.1388  2.2098
 7686TIP3    H247254   5.343   5.597   6.241  0.0148 -0.1890  0.6013
 7687TIP3   OH247255   8.921   6.320   4.851 -0.5051 -0.2743 -0.0129
 7687TIP3    H147256   8.926   6.241   4.796  1.3235 -0.7715  0.7767
 7687TIP3    H247257   8.941   6.392   4.791  1.6427 -0.8271 -0.0513
 7688TIP3   OH247258   5.277   3.097   5.798  0.0791  0.2078  0.0906
 7688TIP3    H147259   5.205   3.083   5.860 -1.0615  0.5220 -1.1145
 7688TIP3    H247260   5.315   3.010   5.785 -2.3076 -0.6755 -1.8307
 7689TIP3   OH247261   8.563   0.559   6.630  0.0448 -0.7229  0.3487
 7689TIP3    H147262   8.659   0.551   6.630  0.0463 -1.1879  1.9238
 7689TIP3    H247263   8.532   0.470   6.648 -0.6985 -0.6051 -0.3143
 7690TIP3   OH247264   4.536   6.749   6.156 -0.0110 -0.1148  0.2750
 7690TIP3    H147265   4.591   6.713   6.226  1.4108  0.8396 -0.2969
 7690TIP3    H247266   4.564   6.840   6.149  0.9973 -0.5393 -2.5368
 7691TIP3   OH247267   2.027   0.815   5.315  0.0893  0.2949  0.7418
 7691TIP3    H147268   2.024   0.892   5.373 -1.6736  0.2289  0.7951
 7691TIP3    H247269   2.036   0.741   5.374  0.8641  0.3869  0.7493
 7692TIP3   OH247270   0.362   4.188   6.359  0.5132  0.0164  0.3203
 7692TIP3    H147271   0.411   4.106   6.346  0.1421 -0.0748 -0.5926
 7692TIP3    H247272   0.416   4.255   6.317 -0.1032 -0.0743 -0.6300
 7693TIP3   OH247273   0.574   8.125  11.004  0.2173  0.0690 -0.4111
 7693TIP3    H147274   0.520   8.201  11.026  0.1336 -0.2259  0.4119
 7693TIP3    H247275   0.597   8.139  10.912 -0.6001  0.5988 -0.5470
 7694TIP3   OH247276   3.361   5.339   5.602 -0.3833  0.0014  0.2655
 7694TIP3    H147277   3.423   5.313   5.534 -1.0190  1.6508 -1.0361
 7694TIP3    H247278   3.307   5.262   5.617  0.2060 -0.5933 -0.6149
 7695TIP3   OH247279   5.710   2.255   5.641  0.6075 -0.3795  0.0408
 7695TIP3    H147280   5.783   2.201   5.672  1.4801 -0.0444 -1.3758
 7695TIP3    H247281   5.725   2.341   5.682  0.0451 -0.7670  1.0991
 7696TIP3   OH247282   6.998   7.166   6.621 -0.2497  0.1689 -0.1557
 7696TIP3    H147283   6.915   7.119   6.630  0.4178 -0.9508  0.3339
 7696TIP3    H247284   6.972   7.258   6.607 -1.5558 -0.1006  0.3321
 7697TIP3   OH247285   6.810   6.937   5.998  0.4795  0.1754 -0.6830
 7697TIP3    H147286   6.827   6.973   5.911  0.1351 -1.7266 -1.5901
 7697TIP3    H247287   6.846   6.849   5.995  1.0665  0.2861  1.3586
 7698TIP3   OH247288   4.834   7.720   5.159  0.1885  0.0355  0.1121
 7698TIP3    H147289   4.902   7.655   5.141 -0.2903 -0.2532 -0.7327
 7698TIP3    H247290   4.861   7.797   5.108 -0.4266 -0.2911 -0.7257
 7699TIP3   OH247291   4.739   5.104   6.615  0.3228 -0.1425 -0.5045
 7699TIP3    H147292   4.664   5.164   6.618  0.1467 -0.3719 -0.1374
 7699TIP3    H247293   4.815   5.160   6.601  0.3399  0.3362  1.2885
 7700TIP3   OH247294   3.339   1.320   4.874  0.2921 -0.2498 -0.1668
 7700TIP3    H147295   3.373   1.364   4.952  1.5178  1.2987 -1.5078
 7700TIP3    H247296   3.415   1.276   4.836 -0.1482 -0.4695 -0.8198
 7701TIP3   OH247297   8.908   4.197  10.219 -0.4586 -0.5731  0.6877
 7701TIP3    H147298   8.934   4.266  10.158 -1.3231 -1.1995 -0.4365
 7701TIP3    H247299   8.948   4.221  10.302  0.2703  0.6180  0.0089
 7702TIP3   OH247300   0.007   4.364   5.238  0.1357  0.1001 -0.4572
 7702TIP3    H147301   0.036   4.275   5.255  0.2461  0.0554 -0.8845
 7702TIP3    H247302   0.083   4.408   5.201 -0.2145  0.0881 -1.2189
 7703TIP3   OH247303   3.243   3.032   6.513 -0.1893  0.2741 -0.0426
 7703TIP3    H147304   3.239   2.943   6.550  1.8701 -0.8669 -2.3266
 7703TIP3    H247305   3.336   3.052   6.510 -0.5609  2.0163 -0.7995
 7704TIP3   OH247306   4.590   7.081   5.192  0.3543  0.0579 -0.1699
 7704TIP3    H147307   4.575   7.111   5.102  0.6890 -2.1237 -1.0377
 7704TIP3    H247308   4.669   7.026   5.185 -0.0949 -0.8155  1.2869
 7705TIP3   OH247309   8.363   6.915   5.095 -0.1517 -0.2912 -0.1301
 7705TIP3    H147310   8.302   6.844   5.115  0.1543 -0.3002  0.8060
 7705TIP3    H247311   8.351   6.930   5.001  0.1846 -1.9594 -0.4689
 7706TIP3   OH247312   0.286   8.875   5.391  0.4123  0.0828 -0.4064
 7706TIP3    H147313   0.362   8.855   5.445 -0.2408  1.2923  1.0072
 7706TIP3    H247314   0.217   8.817   5.425  0.7529 -1.3138 -1.9540
 7707TIP3   OH247315   7.395   8.772   7.280 -0.4241  0.0139 -0.1218
 7707TIP3    H147316   7.350   8.850   7.248  0.0538  1.2219  1.9327
 7707TIP3    H247317   7.367   8.702   7.221 -0.7979  1.7272 -2.0960
 7708TIP3   OH247318   6.680   6.236   6.042 -0.0876  0.1535 -0.0299
 7708TIP3    H147319   6.723   6.244   6.127 -1.5137 -0.1634  0.7511
 7708TIP3    H247320   6.670   6.142   6.030 -1.4472  0.2423  0.2830
 7709TIP3   OH247321   2.857   6.441   5.666  0.1668 -0.2967 -0.1651
 7709TIP3    H147322   2.832   6.348   5.668 -0.5422 -0.1167 -0.4170
 7709TIP3    H247323   2.951   6.441   5.682  0.3054 -1.1135 -0.8975
 7710TIP3   OH247324   7.600   7.428   6.953  0.3864  0.3417  0.0013
 7710TIP3    H147325   7.575   7.461   6.867  0.7081  2.5605  0.6936
 7710TIP3    H247326   7.525   7.449   7.009  0.3626 -0.6815  0.3743
 7711TIP3   OH247327   2.123   0.146   6.382 -0.0194  0.3951  0.2223
 7711TIP3    H147328   2.200   0.132   6.327 -1.1244 -1.2967 -0.9981
 7711TIP3    H247329   2.066   0.203   6.330 -1.5840 -2.1413 -1.0740
 7712TIP3   OH247330   3.110   2.322   5.004 -0.0191  0.4710  0.5367
 7712TIP3    H147331   3.073   2.398   4.960 -0.3242  0.7452  1.2401
 7712TIP3    H247332   3.162   2.359   5.076  1.7847  0.1065 -0.5206
 7713TIP3   OH247333   7.268   8.970   7.119 -0.2270 -0.0656 -0.2311
 7713TIP3    H147334   7.200   9.029   7.150  0.1952 -0.3765  1.3867
 7713TIP3    H247335   7.221   8.901   7.073 -0.8507  0.6553 -0.6817
 7714TIP3   OH247336   4.502   4.765   6.636  0.5145  0.2558 -0.3730
 7714TIP3    H147337   4.597   4.780   6.635  1.1248 -2.2965  2.7045
 7714TIP3    H247338   4.492   4.673   6.614 -0.9375 -0.2167  1.9225
 7715TIP3   OH247339   6.151   2.260   5.570  0.2384 -0.2155  0.2157
 7715TIP3    H147340   6.068   2.236   5.611  0.5568 -0.0938  0.9494
 7715TIP3    H247341   6.153   2.356   5.576  0.6339 -0.2486  0.5998
 7716TIP3   OH247342   0.687   0.575   6.384  0.3917  0.0416  0.2576
 7716TIP3    H147343   0.763   0.578   6.325 -0.0885 -1.4635 -0.5080
 7716TIP3    H247344   0.719   0.528   6.461  0.4654  0.1536  0.2953
 7717TIP3   OH247345   6.727   6.604   5.584 -0.6301 -0.7207 -0.1477
 7717TIP3    H147346   6.683   6.520   5.587 -0.4867 -0.8717 -1.4985
 7717TIP3    H247347   6.821   6.582   5.583 -0.5675 -0.4997  0.4112
 7718TIP3   OH247348   1.704   7.706   5.071 -0.6734  0.7673 -0.5869
 7718TIP3    H147349   1.736   7.714   5.161  0.9924 -0.2929 -1.0488
 7718TIP3    H247350   1.634   7.640   5.077 -1.6385  1.8066  0.1419
 7719TIP3   OH247351   4.609   8.735   6.127  0.7137 -0.6113  0.1523
 7719TIP3    H147352   4.516   8.733   6.148  0.4878  0.2604 -0.7081
 7719TIP3    H247353   4.651   8.689   6.200 -0.2875 -0.0808  1.0880
 7720TIP3   OH247354   7.012   7.208   6.170  0.0102  0.1373 -0.1661
 7720TIP3    H147355   6.923   7.220   6.136  0.3623  0.2234 -1.0768
 7720TIP3    H247356   7.062   7.281   6.133  0.3673  0.3427  0.6986
 7721TIP3   OH247357   7.986   2.490   6.660  0.0324  0.2478 -0.5185
 7721TIP3    H147358   7.900   2.486   6.701  0.4336  1.6517  0.5557
 7721TIP3    H247359   8.035   2.418   6.701  0.0082  0.7847  0.4837
 7722TIP3   OH247360   2.376   2.014   5.938 -0.4669 -0.2959 -0.0580
 7722TIP3    H147361   2.432   1.966   5.876 -1.5763 -1.5806 -0.1130
 7722TIP3    H247362   2.364   1.952   6.010 -2.6709 -0.4950 -0.5312
 7723TIP3   OH247363   8.269   8.766   5.529  0.0158  0.0293 -0.4434
 7723TIP3    H147364   8.210   8.694   5.508 -0.0720 -0.4453  1.2544
 7723TIP3    H247365   8.294   8.803   5.445  0.1977 -2.1014 -1.3783
 7724TIP3   OH247366   6.748   8.373   6.745  0.0261  0.0703  0.5334
 7724TIP3    H147367   6.677   8.404   6.688 -0.1827 -1.2317  0.0611
 7724TIP3    H247368   6.794   8.453   6.770 -0.2424  0.7517 -0.9777
 7725TIP3   OH247369   8.973   5.233   6.019 -0.0998 -0.2271 -0.5276
 7725TIP3    H147370   8.945   5.312   5.972  1.2617 -0.2264 -1.3739
 7725TIP3    H247371   8.917   5.164   5.984 -1.1938  0.2989  0.1045
 7726TIP3   OH247372   6.701   7.319   6.557 -0.3630  0.0105 -0.1632
 7726TIP3    H147373   6.631   7.380   6.537 -0.4752 -0.0721 -0.0244
 7726TIP3    H247374   6.773   7.374   6.589  1.3484  0.6750 -4.4563
 7727TIP3   OH247375   4.462   2.989   6.232  0.1160  0.3972  0.1611
 7727TIP3    H147376   4.446   3.082   6.214 -1.0167  0.6758  2.3168
 7727TIP3    H247377   4.554   2.985   6.258  0.0760  0.9699  0.4061
 7728TIP3   OH247378   7.739   3.827   5.062 -0.9105 -0.2003 -0.4357
 7728TIP3    H147379   7.785   3.911   5.066 -0.5833 -0.4190  1.1626
 7728TIP3    H247380   7.650   3.847   5.093 -1.2598 -0.1947 -1.4047
 7729TIP3   OH247381   3.850   7.828   5.626 -0.1796 -0.4188  0.0796
 7729TIP3    H147382   3.882   7.823   5.536  0.5234 -1.6563  0.3798
 7729TIP3    H247383   3.755   7.824   5.618 -0.1447 -0.0433 -0.6200
 7730TIP3   OH247384   0.160   5.364   5.933 -0.0091  0.2973 -0.2444
 7730TIP3    H147385   0.233   5.425   5.943  0.2656 -0.3777  2.5963
 7730TIP3    H247386   0.088   5.404   5.982 -0.4464 -0.7067 -0.0386
 7731TIP3   OH247387   2.003   1.415   6.202  0.0181 -0.0391  0.6338
 7731TIP3    H147388   1.912   1.438   6.222 -0.2711 -0.6877  0.0908
 7731TIP3    H247389   2.014   1.327   6.236  0.3775 -0.0490  0.4958
 7732TIP3   OH247390   6.143   6.235   6.762  0.6066  0.3919  0.4504
 7732TIP3    H147391   6.140   6.307   6.825 -0.6174 -0.1548  1.0675
 7732TIP3    H247392   6.073   6.254   6.700  0.5390 -0.0541  0.3846
 7733TIP3   OH247393   6.900   5.220   5.065 -0.2878 -0.4781  0.1426
 7733TIP3    H147394   6.873   5.184   4.981 -1.5508  0.6977  0.0059
 7733TIP3    H247395   6.826   5.273   5.094  0.2006 -0.6836  1.9145
 7734TIP3   OH247396   3.960   4.664   6.360  0.6985 -0.3610 -0.1564
 7734TIP3    H147397   4.027   4.684   6.294  2.3765 -0.8979  1.2957
 7734TIP3    H247398   3.989   4.712   6.438 -2.0601  1.5290 -0.1531
 7735TIP3   OH247399   3.358   1.649   5.780  0.7247 -0.8710  0.1895
 7735TIP3    H147400   3.263   1.661   5.784  0.9210  0.5687  1.7211
 7735TIP3    H247401   3.387   1.710   5.714  0.8522  1.1362  1.9952
 7736TIP3   OH247402   1.763   0.618   5.568 -0.0358 -0.2386 -0.5474
 7736TIP3    H147403   1.695   0.680   5.594  1.0989  1.4069 -1.3029
 7736TIP3    H247404   1.719   0.555   5.512 -0.7335  1.5434 -2.0902
 7737TIP3   OH247405   7.968   0.949   6.185 -0.2025  0.0930  0.5294
 7737TIP3    H147406   7.963   0.964   6.090 -0.8118  1.7015  0.7719
 7737TIP3    H247407   7.894   0.891   6.204 -1.6932  1.8303  0.3255
 7738TIP3   OH247408   8.211   2.112   5.919  0.9761 -0.2195 -0.1709
 7738TIP3    H147409   8.136   2.165   5.946  1.2153  0.5047 -0.8802
 7738TIP3    H247410   8.269   2.111   5.995 -0.2587 -1.7943  0.8188
 7739TIP3   OH247411   7.409   0.198   5.058  0.3573 -0.3706 -0.0789
 7739TIP3    H147412   7.324   0.190   5.016 -0.5813 -1.0163  1.8318
 7739TIP3    H247413   7.468   0.146   5.004 -1.1790 -2.7003  0.3134
 7740TIP3   OH247414   5.563   8.673   5.897  0.0623  0.2613 -0.0381
 7740TIP3    H147415   5.572   8.743   5.833 -0.3550  0.3189 -0.0381
 7740TIP3    H247416   5.564   8.592   5.845  0.7771  0.2507 -0.0159
 7741TIP3   OH247417   4.299   3.096   6.577 -0.0508 -0.5496 -0.0702
 7741TIP3    H147418   4.296   3.191   6.569  1.8379 -0.4638 -0.0492
 7741TIP3    H247419   4.378   3.078   6.628 -0.5207 -2.1341  0.1712
 7742TIP3   OH247420   7.697   9.120   5.099  0.3865  0.0722  0.5956
 7742TIP3    H147421   7.670   9.159   5.016  0.0890  1.1137  1.1514
 7742TIP3    H247422   7.700   9.194   5.160  1.9413 -0.4398  1.1987
 7743TIP3   OH247423   3.382   1.336   6.708 -0.4694 -0.0969 -0.0240
 7743TIP3    H147424   3.410   1.314   6.797 -0.9713 -1.8723 -0.2743
 7743TIP3    H247425   3.435   1.281   6.651  0.6364  1.8149 -0.9345
 7744TIP3   OH247426   6.732   0.232   6.015  0.3769 -0.0850  0.0273
 7744TIP3    H147427   6.681   0.176   5.957  0.1526  0.9354 -0.8020
 7744TIP3    H247428   6.802   0.176   6.047  0.1901 -0.8308 -0.8119
 7745TIP3   OH247429   4.096   4.198   6.162 -0.1132 -0.1119  0.2602
 7745TIP3    H147430   4.071   4.182   6.071  0.7007  0.6711 -0.1209
 7745TIP3    H247431   4.133   4.115   6.192  1.3096  0.1368 -0.7254
 7746TIP3   OH247432   6.137   7.861   5.424  0.1506 -0.2117 -0.0547
 7746TIP3    H147433   6.144   7.887   5.515  0.9149  1.0727 -0.4430
 7746TIP3    H247434   6.052   7.894   5.395  0.0311 -0.3717  0.1129
 7747TIP3   OH247435   0.763   0.101   6.465  0.0263  0.1896  0.1254
 7747TIP3    H147436   0.857   0.081   6.457 -0.0724 -1.0635  1.6641
 7747TIP3    H247437   0.755   0.144   6.550 -1.0339 -1.5396  0.9513
 7748TIP3   OH247438   3.643   4.509   6.400  0.2846  0.0881 -0.0214
 7748TIP3    H147439   3.664   4.485   6.491  0.2044 -1.1899 -0.3119
 7748TIP3    H247440   3.549   4.494   6.393  0.0903  1.2508 -0.0229
 7749TIP3   OH247441   4.356   0.018   6.551  0.2863 -0.0222 -0.5787
 7749TIP3    H147442   4.341   0.033   6.458  0.1793 -2.2161 -0.9664
 7749TIP3    H247443   4.447  -0.011   6.556 -0.1024 -1.2158 -0.2016
 7750TIP3   OH247444   4.947   0.176   6.327  0.5952 -0.1072 -0.0244
 7750TIP3    H147445   4.876   0.204   6.386  0.2885  1.5351 -1.0929
 7750TIP3    H247446   5.017   0.240   6.343  0.4757  0.4256 -1.4539
 7751TIP3   OH247447   5.668   4.409   5.193  0.0875 -0.2621  0.3035
 7751TIP3    H147448   5.748   4.456   5.172 -0.9082  1.6917  0.6968
 7751TIP3    H247449   5.598   4.473   5.182 -1.2255 -1.2954  1.9980
 7752TIP3   OH247450   6.533   5.793   6.006 -0.2924 -0.2091  0.0010
 7752TIP3    H147451   6.605   5.856   6.008 -0.8758  0.4665  0.1802
 7752TIP3    H247452   6.573   5.710   6.033  0.2776  0.3129  0.8232
 7753TIP3   OH247453   1.252   1.353   4.953  0.1306  0.2055  0.0641
 7753TIP3    H147454   1.342   1.353   4.985  0.4753 -1.0264 -0.7887
 7753TIP3    H247455   1.248   1.275   4.897 -1.0703  1.0207 -1.0226
 7754TIP3   OH247456   8.440   0.226   5.984  0.3006  0.2695 -0.0858
 7754TIP3    H147457   8.374   0.162   6.009 -0.9040  1.1268 -0.9443
 7754TIP3    H247458   8.390   0.298   5.945  1.5961  1.7264  0.8236
 7755TIP3   OH247459   7.968   4.370   5.051  0.2316 -0.3477  0.2482
 7755TIP3    H147460   8.045   4.332   5.093 -0.1384  0.4161  1.6944
 7755TIP3    H247461   7.987   4.464   5.045 -0.7725 -0.0701  1.0931
 7756TIP3   OH247462   5.446   2.771   5.448 -0.2701 -0.4110 -0.0775
 7756TIP3    H147463   5.414   2.833   5.514 -0.9798 -1.1575  0.2948
 7756TIP3    H247464   5.490   2.826   5.383 -0.5550  0.4451  0.4367
 7757TIP3   OH247465   8.999   6.981   5.677 -0.1294  0.0065 -0.5185
 7757TIP3    H147466   9.081   6.945   5.643  0.4018  0.1822  0.5247
 7757TIP3    H247467   8.952   7.012   5.600 -0.3030 -2.2792 -1.4150
 7758TIP3   OH247468   5.159   8.333   6.223  0.1852  0.3136  0.6517
 7758TIP3    H147469   5.216   8.403   6.257 -1.7257  1.9000  0.8297
 7758TIP3    H247470   5.075   8.377   6.208 -0.5519 -1.5652 -1.0976
 7759TIP3   OH247471   0.623   1.530   6.631  0.0547  0.1450 -0.3951
 7759TIP3    H147472   0.626   1.623   6.656  0.7685 -0.0898  0.4493
 7759TIP3    H247473   0.637   1.530   6.537 -1.3430  0.9779 -0.6354
 7760TIP3   OH247474   2.068   0.133   5.396 -0.0826 -0.2354  0.1380
 7760TIP3    H147475   2.019   0.052   5.387 -0.0842 -0.2570  0.3341
 7760TIP3    H247476   2.148   0.108   5.443 -1.4603  0.3818  3.0090
 7761TIP3   OH247477   6.193   8.990   4.856 -0.7638 -0.0744 -0.4414
 7761TIP3    H147478   6.152   8.936   4.924  0.4747 -0.0186  0.3754
 7761TIP3    H247479   6.268   8.939   4.827 -1.1622 -0.0010 -1.6522
 7762TIP3   OH247480   0.180   6.179   6.059  0.6645  0.1002 -0.0381
 7762TIP3    H147481   0.266   6.191   6.018  0.7635 -1.4426 -0.3367
 7762TIP3    H247482   0.124   6.243   6.015  0.9424 -1.0010 -2.1523
 7763TIP3   OH247483   1.086   8.178   5.754 -0.0371  0.0819  0.2880
 7763TIP3    H147484   1.051   8.241   5.817  1.2106  1.8268 -0.6850
 7763TIP3    H247485   1.016   8.168   5.689 -0.5939 -0.2681  0.9251
 7764TIP3   OH247486   1.088   8.213   6.847  0.3655 -0.4437 -0.0037
 7764TIP3    H147487   1.115   8.304   6.831 -0.3324 -0.2317 -0.0274
 7764TIP3    H247488   1.027   8.220   6.921 -1.0557 -0.6688 -1.1193
 7765TIP3   OH247489   7.949   3.440   4.964  0.5977 -0.0832 -0.3030
 7765TIP3    H147490   8.032   3.403   4.993  1.3912 -0.1612 -2.5331
 7765TIP3    H247491   7.911   3.374   4.907 -1.9433 -0.8410  2.0164
 7766TIP3   OH247492   6.862   1.080   6.614 -0.4855 -0.6219  0.0244
 7766TIP3    H147493   6.809   1.061   6.536 -0.0840 -0.0530 -0.4008
 7766TIP3    H247494   6.808   1.140   6.665 -0.1882  0.1065 -0.4988
 7767TIP3   OH247495   3.977   4.142   5.165  0.5321  0.0359 -0.2816
 7767TIP3    H147496   3.938   4.092   5.237  0.4729  0.6279  0.1093
 7767TIP3    H247497   3.951   4.233   5.183 -0.0258  0.1137 -1.3992
 7768TIP3   OH247498   8.035   5.801   5.705 -0.1649 -0.0444  0.4380
 7768TIP3    H147499   7.945   5.767   5.704 -0.8334  1.6096 -1.0817
 7768TIP3    H247500   8.024   5.896   5.714  1.4532  0.1729  0.3303
 7769TIP3   OH247501   8.641   8.360   5.686 -0.2887 -0.2057  0.7791
 7769TIP3    H147502   8.677   8.402   5.764  0.9389  1.8749 -0.8038
 7769TIP3    H247503   8.558   8.403   5.671 -1.1052 -1.4379  1.5351
 7770TIP3   OH247504   3.211   5.018   6.363 -0.0803 -0.1064  0.5841
 7770TIP3    H147505   3.150   5.087   6.338 -0.6322 -1.0139 -0.6236
 7770TIP3    H247506   3.231   5.037   6.455  0.2726  2.0146  0.1263
 7771TIP3   OH247507   5.753   0.070   5.832 -0.1284  0.3029  0.1936
 7771TIP3    H147508   5.729   0.002   5.770  1.8298  1.0719 -1.4926
 7771TIP3    H247509   5.796   0.138   5.780 -0.0068  1.8290  2.1256
 7772TIP3   OH247510   0.763   7.268   4.975 -0.4754  0.2310 -0.0437
 7772TIP3    H147511   0.748   7.361   4.991  1.1717  0.4417  0.4796
 7772TIP3    H247512   0.695   7.224   5.026 -1.6209  1.1248 -0.7211
 7773TIP3   OH247513   1.129   4.556   6.279  0.1677 -0.2886  0.1203
 7773TIP3    H147514   1.215   4.595   6.297 -0.7260  2.0204 -0.2136
 7773TIP3    H247515   1.110   4.581   6.189 -0.5733 -1.3700 -0.0438
 7774TIP3   OH247516   4.240   5.091   6.344 -0.0762  0.1323  0.7944
 7774TIP3    H147517   4.286   5.008   6.360  0.6356 -0.4311 -3.0948
 7774TIP3    H247518   4.149   5.065   6.331  0.0759 -0.0400 -0.0119
 7775TIP3   OH247519   0.238   3.749   4.933 -0.0196  0.4664 -0.0526
 7775TIP3    H147520   0.183   3.746   5.012  1.7042 -4.2288  1.2817
 7775TIP3    H247521   0.323   3.780   4.965  0.8186 -1.8991  0.1735
 7776TIP3   OH247522   5.121   3.705   6.085  0.1417 -0.2371 -0.2095
 7776TIP3    H147523   5.175   3.688   6.161 -0.2586  0.3832  0.2238
 7776TIP3    H247524   5.102   3.798   6.089 -0.9383 -0.4376 -0.3664
 7777TIP3   OH247525   8.270   2.470   5.160 -0.0072  0.0198  0.0152
 7777TIP3    H147526   8.297   2.431   5.077  2.2951  2.3300 -0.4652
 7777TIP3    H247527   8.239   2.397   5.212  0.4476 -1.8194 -2.1254
 7778TIP3   OH247528   8.992   6.166   5.620  0.8364 -0.0784  0.2123
 7778TIP3    H147529   9.033   6.136   5.540 -0.4368  1.6029 -1.1401
 7778TIP3    H247530   9.041   6.244   5.645  2.0497 -1.2933  1.8613
 7779TIP3   OH247531   3.725   6.981   5.688  0.2006  0.0034 -0.5412
 7779TIP3    H147532   3.796   6.958   5.629  1.1000  1.6223 -0.1471
 7779TIP3    H247533   3.645   6.954   5.642  1.0226 -1.6379 -1.0864
 7780TIP3   OH247534   0.290   2.255   5.361  0.3574  0.7205  0.8259
 7780TIP3    H147535   0.341   2.174   5.351  1.5505  1.3742  1.3153
 7780TIP3    H247536   0.347   2.312   5.413 -0.1859  2.0970 -0.0226
 7781TIP3   OH247537   2.879   6.548   6.330  0.4081  0.8450 -0.2944
 7781TIP3    H147538   2.889   6.459   6.294 -0.3433  0.0956  1.2751
 7781TIP3    H247539   2.969   6.582   6.334  0.5360  0.9804 -2.8036
 7782TIP3   OH247540   3.215   6.568   5.373  0.2293 -0.2667 -0.2493
 7782TIP3    H147541   3.187   6.632   5.437 -0.1242 -2.0675  1.4919
 7782TIP3    H247542   3.240   6.620   5.296  1.1227  2.0129  1.4620
 7783TIP3   OH247543   4.971   5.038   5.864 -0.4532 -0.2017  0.7133
 7783TIP3    H147544   5.049   5.036   5.920  0.8907 -2.7597 -1.0669
 7783TIP3    H247545   4.991   5.103   5.797  0.6430 -1.5029 -0.2784
 7784TIP3   OH247546   2.389   6.092   5.456  0.1550  0.3802 -0.1920
 7784TIP3    H147547   2.422   6.022   5.513  1.1934  0.3927 -0.7423
 7784TIP3    H247548   2.323   6.049   5.402  0.5923 -0.1153 -0.3414
 7785TIP3   OH247549   2.034   5.045   7.149 -0.1082  0.0053  0.3009
 7785TIP3    H147550   2.046   5.001   7.064 -0.3415 -1.4013  0.9587
 7785TIP3    H247551   2.002   5.132   7.126  1.0752  0.1220 -1.0956
 7786TIP3   OH247552   8.164   3.212   5.916  0.0399  0.2978  0.2507
 7786TIP3    H147553   8.168   3.176   6.005 -0.8008  0.0711  0.2049
 7786TIP3    H247554   8.073   3.241   5.906  0.2759  0.8681 -0.3288
 7787TIP3   OH247555   3.691   2.978   6.139  0.8364  0.0584  0.2870
 7787TIP3    H147556   3.690   2.903   6.080 -0.1383  0.0732  0.2625
 7787TIP3    H247557   3.760   2.959   6.202  0.7277 -0.7664  0.1608
 7788TIP3   OH247558   1.230   6.968   6.662 -0.4455 -0.3099 -0.3590
 7788TIP3    H147559   1.302   6.928   6.711  0.5856 -0.2875 -1.7802
 7788TIP3    H247560   1.250   7.062   6.662 -1.8420  0.0402  1.3429
 7789TIP3   OH247561   0.437   6.669   4.820  0.1015  0.1650  0.1983
 7789TIP3    H147562   0.361   6.723   4.800 -0.1570 -0.5894 -1.0080
 7789TIP3    H247563   0.511   6.730   4.819 -0.1253  0.4747 -1.5270
 7790TIP3   OH247564   7.461   8.082   6.482 -0.5344 -0.7463  0.3515
 7790TIP3    H147565   7.433   8.173   6.488 -0.2534 -0.7420  1.8892
 7790TIP3    H247566   7.442   8.057   6.392 -0.7033  0.8010 -0.0643
 7791TIP3   OH247567   4.465   0.388   6.486  0.6448  0.3179 -0.1466
 7791TIP3    H147568   4.437   0.446   6.556 -1.2928 -1.3146  0.5380
 7791TIP3    H247569   4.386   0.372   6.435  0.8730 -2.2638  0.1408
 7792TIP3   OH247570   6.719   3.299   5.172  0.4410 -0.4877  0.2100
 7792TIP3    H147571   6.806   3.264   5.192  0.3745 -0.2617  0.9280
 7792TIP3    H247572   6.714   3.380   5.223 -0.1093 -0.3900  0.0073
 7793TIP3   OH247573   7.528   4.179   5.430 -0.1389  0.6712  0.2678
 7793TIP3    H147574   7.609   4.131   5.445 -0.8383 -0.8784 -0.6190
 7793TIP3    H247575   7.543   4.265   5.469  1.6373  0.1675  0.7875
 7794TIP3   OH247576   4.243   0.198   5.971  0.0345  1.1365  0.3280
 7794TIP3    H147577   4.294   0.277   5.953  2.7036 -0.7193 -1.0973
 7794TIP3    H247578   4.254   0.144   5.893 -2.1657 -0.4509  0.9989
 7795TIP3   OH247579   1.181   8.946   5.654  0.3803  0.0692 -0.0437
 7795TIP3    H147580   1.129   9.021   5.684  1.1095 -0.3592  2.4700
 7795TIP3    H247581   1.119   8.874   5.649  0.3370  0.0013  1.1506
 7796TIP3   OH247582   1.436   8.134   5.100 -0.1482 -0.0244  0.2233
 7796TIP3    H147583   1.461   8.216   5.141 -1.0013 -0.3843  1.5076
 7796TIP3    H247584   1.506   8.073   5.125  1.4115  0.6395 -2.1303
 7797TIP3   OH247585   2.913   5.090   5.720  0.0559 -0.2503 -0.0286
 7797TIP3    H147586   2.887   4.998   5.718 -2.4929  0.4079 -0.6488
 7797TIP3    H247587   2.894   5.119   5.809  0.7284 -0.2688  0.1271
 7798TIP3   OH247588   6.970   0.670   5.964  0.1167  0.0412 -0.6041
 7798TIP3    H147589   7.022   0.614   5.906 -2.7996 -1.4584 -1.9725
 7798TIP3    H247590   6.956   0.617   6.043 -0.9762 -0.4047 -1.0797
 7799TIP3   OH247591   2.950   0.386   5.533 -0.5113 -0.3149 -0.1132
 7799TIP3    H147592   2.979   0.467   5.575 -2.0260  0.8475 -1.1801
 7799TIP3    H247593   2.912   0.335   5.605 -0.9155  0.6041  0.3561
 7800TIP3   OH247594   4.497   1.175   5.578 -0.1284 -0.2745  0.0354
 7800TIP3    H147595   4.513   1.084   5.604  0.0242 -0.5815 -1.0773
 7800TIP3    H247596   4.466   1.218   5.658  1.2073 -0.9458  0.9506
 7801TIP3   OH247597   6.394   8.868   5.372  0.1045 -0.4098  0.2206
 7801TIP3    H147598   6.455   8.809   5.329  0.9221  0.8557 -0.4120
 7801TIP3    H247599   6.311   8.857   5.325  0.7006  0.1600 -1.0104
 7802TIP3   OH247600   0.776   7.553   5.007  0.5134 -0.6362 -0.3428
 7802TIP3    H147601   0.730   7.547   4.924 -0.1550 -0.5237  0.0062
 7802TIP3    H247602   0.854   7.606   4.988  0.6187 -1.0168 -0.9922
 7803TIP3   OH247603   3.339   6.233   5.701  0.0620  0.1977  0.4809
 7803TIP3    H147604   3.325   6.186   5.619  0.3379  1.8110 -0.5275
 7803TIP3    H247605   3.266   6.205   5.757 -0.8274  0.0068 -0.7385
 7804TIP3   OH247606   0.551   7.093   4.809 -0.6619  0.3593  0.0047
 7804TIP3    H147607   0.593   7.170   4.848 -0.9346  0.7187 -0.3952
 7804TIP3    H247608   0.489   7.130   4.746  1.5622 -0.1923 -2.7132
 7805TIP3   OH247609   0.308   3.073   5.508  0.1802  0.3023 -0.3574
 7805TIP3    H147610   0.302   3.077   5.603  1.8261 -1.4883 -0.1185
 7805TIP3    H247611   0.383   3.129   5.486 -1.2044  2.0565 -0.8094
 7806TIP3   OH247612   0.090   6.482   6.358  0.0249  0.3880  0.1202
 7806TIP3    H147613   0.094   6.570   6.397 -0.2342  0.4498  0.0097
 7806TIP3    H247614   0.110   6.423   6.431 -1.4948  0.4393  0.6210
 7807TIP3   OH247615   7.425   2.615   6.006  0.4387  0.5114 -0.5173
 7807TIP3    H147616   7.437   2.592   5.914  1.2203  0.3312 -0.3834
 7807TIP3    H247617   7.514   2.620   6.041  0.1415  0.1224  0.3390
 7808TIP3   OH247618   2.953   8.520   6.536  0.7683  0.1793  0.1420
 7808TIP3    H147619   2.961   8.584   6.466 -1.9696 -0.7728 -1.2020
 7808TIP3    H247620   2.862   8.490   6.530  0.6932 -0.6632  3.5075
 7809TIP3   OH247621   7.110   2.435   5.871 -0.0018 -0.0472  0.1417
 7809TIP3    H147622   7.164   2.451   5.794  0.6183 -0.2640  0.5250
 7809TIP3    H247623   7.057   2.359   5.848 -0.5471  0.5020 -0.4403
 7810TIP3   OH247624   2.711   2.562   5.436 -0.6780  0.2687 -0.0310
 7810TIP3    H147625   2.630   2.584   5.390 -0.4600  0.1443 -0.4816
 7810TIP3    H247626   2.723   2.468   5.422  0.0506  0.4570 -0.8092
 7811TIP3   OH247627   3.276   2.102   5.078 -0.5194  0.1098 -0.0262
 7811TIP3    H147628   3.191   2.129   5.113 -0.6003  1.2403 -1.0064
 7811TIP3    H247629   3.278   2.139   4.990  1.2084  0.5748  0.1642
 7812TIP3   OH247630   2.905   6.085   6.635  0.0937 -0.2396 -0.6267
 7812TIP3    H147631   2.946   6.170   6.649 -1.5217  0.2397  1.6831
 7812TIP3    H247632   2.836   6.102   6.571  0.2157  0.0229 -0.6903
 7813TIP3   OH247633   9.212   8.664   6.149  0.0944 -0.1159  0.3952
 7813TIP3    H147634   9.230   8.713   6.229  1.0497 -1.5082  1.0720
 7813TIP3    H247635   9.279   8.693   6.088 -0.8890  1.2627 -0.0965
 7814TIP3   OH247636   7.731   7.415   4.637 -0.1694 -0.0205 -0.3650
 7814TIP3    H147637   7.639   7.438   4.643  0.3215  2.0954 -0.0090
 7814TIP3    H247638   7.740   7.336   4.691 -1.2663  1.4442  2.1411
 7815TIP3   OH247639   4.498   6.431   5.843  0.2387 -0.0292 -0.1542
 7815TIP3    H147640   4.498   6.505   5.783  0.4088  0.5004  0.4843
 7815TIP3    H247641   4.421   6.445   5.898  0.2146 -0.3822 -0.0956
 7816TIP3   OH247642   0.768   1.769   6.330  0.0435 -0.5160  0.2637
 7816TIP3    H147643   0.858   1.801   6.328 -0.2337  0.4598  1.8315
 7816TIP3    H247644   0.748   1.758   6.423 -1.4562 -0.7185 -0.0525
 7817TIP3   OH247645   5.902   5.075   5.229 -0.1417  0.4645  0.0595
 7817TIP3    H147646   5.847   5.027   5.291 -0.6743 -0.6049 -1.1993
 7817TIP3    H247647   5.987   5.082   5.273  0.3935 -2.8582 -0.1846
 7818TIP3   OH247648   0.741   7.831   5.217 -0.2795  0.0391 -0.4293
 7818TIP3    H147649   0.763   7.742   5.245 -0.4264  0.4931  1.2196
 7818TIP3    H247650   0.712   7.875   5.297  0.9539  1.9437 -0.9602
 7819TIP3   OH247651   6.886   6.875   5.413  0.6002  0.2132 -0.0365
 7819TIP3    H147652   6.880   6.919   5.498 -0.0002  1.4369 -0.6859
 7819TIP3    H247653   6.815   6.811   5.414  1.4813 -0.8019  0.9192
 7820TIP3   OH247654   2.629   4.127   5.823  0.1456 -0.1513 -0.5127
 7820TIP3    H147655   2.568   4.093   5.889 -0.4793  0.1771 -0.9072
 7820TIP3    H247656   2.716   4.110   5.860 -0.1727 -0.9519 -0.0962
 7821TIP3   OH247657   3.139   8.553   5.392  0.1035 -0.1959 -0.2825
 7821TIP3    H147658   3.124   8.461   5.411 -0.5273 -0.4802 -1.9715
 7821TIP3    H247659   3.065   8.598   5.432  0.6457 -0.3505  0.9281
 7822TIP3   OH247660   7.686   1.141   6.319 -0.5978  0.6837 -0.2038
 7822TIP3    H147661   7.663   1.126   6.227 -1.4305  1.0492 -0.0595
 7822TIP3    H247662   7.604   1.130   6.366  0.0221 -0.5649  0.6409
 7823TIP3   OH247663   6.059   1.827   5.393 -0.0576  0.6790  0.1582
 7823TIP3    H147664   5.988   1.795   5.449  0.4927 -1.2428 -0.1741
 7823TIP3    H247665   6.031   1.914   5.367 -0.6819  1.3732  2.8130
 7824TIP3   OH247666   9.131   0.888   4.970 -0.0108  0.4311 -0.2976
 7824TIP3    H147667   9.047   0.911   4.930 -0.3916  0.9662  0.7816
 7824TIP3    H247668   9.117   0.901   5.064  1.4794  1.1342 -0.1580
 7825TIP3   OH247669   0.913   7.254   6.889  0.3073  0.4475 -0.3294
 7825TIP3    H147670   0.992   7.260   6.942  0.0528 -1.5074  0.3450
 7825TIP3    H247671   0.944   7.265   6.799  1.2499  0.4212 -0.0188
 7826TIP3   OH247672   1.791   0.817   4.850 -0.1119  0.2489  0.0174
 7826TIP3    H147673   1.821   0.789   4.936 -0.5017  1.6648  0.6435
 7826TIP3    H247674   1.698   0.792   4.847 -0.0057 -0.1365 -0.1521
 7827TIP3   OH247675   5.118   2.394   5.629  0.2124  0.1590 -0.3892
 7827TIP3    H147676   5.104   2.417   5.721  1.8437  2.0789 -0.5672
 7827TIP3    H247677   5.209   2.367   5.624 -0.2508 -1.3792 -1.2168
 7828TIP3   OH247678   4.487   5.221   5.834  0.5315 -0.6925 -0.0415
 7828TIP3    H147679   4.397   5.199   5.809  0.8799 -1.4714 -0.6598
 7828TIP3    H247680   4.541   5.174   5.770  1.3718 -0.0347  0.1725
 7829TIP3   OH247681   1.782   5.779   6.813 -0.6192  0.1018  0.4122
 7829TIP3    H147682   1.850   5.845   6.795 -0.0805 -0.3065  0.8950
 7829TIP3    H247683   1.800   5.708   6.751  0.5669 -0.8245  1.7437
 7830TIP3   OH247684   5.626   1.702   6.326 -0.0762 -0.2408  0.1564
 7830TIP3    H147685   5.660   1.612   6.326  1.6069  0.3012 -2.2675
 7830TIP3    H247686   5.632   1.729   6.418  1.4690 -1.8651  0.5974
 7831TIP3   OH247687   9.134   8.106   6.223  0.6797 -0.6628  0.8535
 7831TIP3    H147688   9.210   8.062   6.262  1.5668  0.0287 -0.0310
 7831TIP3    H247689   9.171   8.185   6.182 -0.4024 -0.7027 -0.2531
 7832TIP3   OH247690   8.966   0.565   5.429 -0.3240 -0.3118  0.1445
 7832TIP3    H147691   8.997   0.553   5.340 -0.6616 -3.5971  0.3633
 7832TIP3    H247692   8.872   0.550   5.425 -0.4661  0.2671  0.9515
 7833TIP3   OH247693   8.402   3.371   6.252  0.4103 -0.1822  0.4253
 7833TIP3    H147694   8.440   3.416   6.177 -1.4242  0.5688 -0.1160
 7833TIP3    H247695   8.476   3.328   6.295  1.7169  0.6174 -0.9450
 7834TIP3   OH247696   5.001   6.369   5.301  0.6520 -0.5650 -0.1080
 7834TIP3    H147697   4.963   6.347   5.386 -2.2339  1.8379 -0.6000
 7834TIP3    H247698   4.982   6.294   5.245  1.0626 -1.4405  0.8862
 7835TIP3   OH247699   1.153   2.398   5.846 -0.3974 -0.0160  0.4562
 7835TIP3    H147700   1.245   2.371   5.842 -0.5257 -0.4325 -2.9234
 7835TIP3    H247701   1.157   2.492   5.867  1.1242  0.6838 -2.3459
 7836TIP3   OH247702   0.551   6.210   6.776  0.3095  0.0004  0.7950
 7836TIP3    H147703   0.546   6.218   6.871  2.3840 -2.4657  1.2364
 7836TIP3    H247704   0.550   6.300   6.744 -1.3504  0.8653  3.0526
 7837TIP3   OH247705   3.383   6.670   5.127  0.1178 -0.0739 -0.6960
 7837TIP3    H147706   3.344   6.740   5.180  0.6198 -0.9993  0.9896
 7837TIP3    H247707   3.308   6.620   5.095 -0.3328 -2.3207  3.1674
 7838TIP3   OH247708   8.278   2.213   6.501  0.4712  0.0802 -0.0008
 7838TIP3    H147709   8.185   2.210   6.522  0.8100  1.0368  1.8737
 7838TIP3    H247710   8.312   2.128   6.528  0.7549  1.0141  2.9393
 7839TIP3   OH247711   7.261   5.717   5.062  0.1354  0.2059  0.4919
 7839TIP3    H147712   7.187   5.772   5.038 -0.4808 -1.1064 -0.7804
 7839TIP3    H247713   7.302   5.763   5.135 -1.8532  1.0541  1.1672
 7840TIP3   OH247714   0.324   1.000   6.079 -0.1974  0.0555  0.2653
 7840TIP3    H147715   0.290   1.076   6.030  0.2433  0.1186  0.0508
 7840TIP3    H247716   0.349   1.036   6.164 -1.8069 -0.2198  0.8982
 7841TIP3   OH247717   6.117   9.152   6.581 -0.1336  0.2505  0.3750
 7841TIP3    H147718   6.080   9.196   6.657  0.7736  0.9055  0.4501
 7841TIP3    H247719   6.070   9.068   6.577  0.2053 -0.0510  1.9945
 7842TIP3   OH247720   7.781   3.120   5.099 -0.1898  0.4327 -0.1633
 7842TIP3    H147721   7.696   3.085   5.127 -0.6396  1.7565  0.2125
 7842TIP3    H247722   7.803   3.185   5.166  0.6537  0.7830 -0.7699
 7843TIP3   OH247723   2.644   7.096   6.298  0.2435 -0.5551 -0.5633
 7843TIP3    H147724   2.705   7.061   6.363  0.1811 -0.6752 -0.5696
 7843TIP3    H247725   2.673   7.186   6.285 -0.5145 -0.1141  0.5930
 7844TIP3   OH247726   1.042   1.071   5.068  0.1717  0.5740 -0.2550
 7844TIP3    H147727   1.044   1.002   5.134  0.3675  0.3926 -0.4454
 7844TIP3    H247728   1.127   1.065   5.024 -0.1806  0.2999 -0.9154
 7845TIP3   OH247729   1.593   8.068   4.806  0.1221 -0.0960  0.5340
 7845TIP3    H147730   1.570   7.988   4.760  2.0036 -0.9046  0.9046
 7845TIP3    H247731   1.517   8.125   4.795 -0.9104 -1.6007 -0.4645
 7846TIP3   OH247732   6.805   5.174   6.565  0.0646  0.3586 -0.9324
 7846TIP3    H147733   6.853   5.124   6.498  3.5466 -0.1566  1.6466
 7846TIP3    H247734   6.806   5.117   6.642 -3.8523  0.8922 -0.3038
 7847TIP3   OH247735   6.496   2.905   5.450 -0.5780  0.0535  0.0941
 7847TIP3    H147736   6.517   2.978   5.391 -0.4186  0.2375  0.3724
 7847TIP3    H247737   6.577   2.854   5.455 -1.1540 -1.0544 -1.3595
 7848TIP3   OH247738   8.842   6.211   6.156 -0.1917 -0.3827 -0.0240
 7848TIP3    H147739   8.898   6.181   6.084 -2.5091  0.8827 -2.5227
 7848TIP3    H247740   8.871   6.160   6.232  1.2907 -3.0149 -2.1880
 7849TIP3   OH247741   7.605   0.546   6.487  0.2249 -0.2346 -0.3645
 7849TIP3    H147742   7.697   0.570   6.498  0.7107 -1.6168 -1.1471
 7849TIP3    H247743   7.568   0.616   6.435  0.5635  0.8600  0.8204
 7850TIP3   OH247744   8.921   5.198   6.291 -0.0487  0.8375 -0.8095
 7850TIP3    H147745   8.993   5.177   6.351 -0.2810  0.6288 -0.6039
 7850TIP3    H247746   8.960   5.193   6.204 -0.1044 -0.4917 -0.7670
 7851TIP3   OH247747   2.454   6.835   6.453  0.0266  0.7219  0.3220
 7851TIP3    H147748   2.463   6.863   6.362 -0.2862  2.9940  0.9369
 7851TIP3    H247749   2.527   6.774   6.467 -0.5728 -0.5527 -1.7276
 7852TIP3   OH247750   1.936   9.086   5.387  0.1694 -0.0667 -0.2740
 7852TIP3    H147751   2.024   9.069   5.352 -0.1021  1.3740 -1.7653
 7852TIP3    H247752   1.941   9.056   5.478  1.3396 -2.6629 -1.0824
 7853TIP3   OH247753   6.281   6.539   5.366 -0.0756 -0.0697  0.1554
 7853TIP3    H147754   6.213   6.502   5.422  0.8601  1.0826  2.2079
 7853TIP3    H247755   6.240   6.549   5.280 -1.5314 -2.1159  0.5473
 7854TIP3   OH247756   5.765   0.780   5.958  0.3545 -0.2993 -0.4182
 7854TIP3    H147757   5.785   0.811   5.870  2.0029 -0.4470 -0.1428
 7854TIP3    H247758   5.847   0.740   5.988 -0.1499 -0.1807  1.2111
 7855TIP3   OH247759   2.978   6.256   6.256  0.4657 -0.8239  0.6423
 7855TIP3    H147760   2.947   6.185   6.312  1.6161 -1.2047  0.8298
 7855TIP3    H247761   3.069   6.269   6.283  0.1813  1.0013  0.9030
 7856TIP3   OH247762   3.126   7.374   5.440 -0.2069  0.3894 -0.1578
 7856TIP3    H147763   3.094   7.434   5.373  0.5527  0.5291 -0.4129
 7856TIP3    H247764   3.064   7.383   5.512 -1.3700 -0.2054 -1.0595
 7857TIP3   OH247765   4.879   7.446   7.052  0.6513  0.1933 -0.6341
 7857TIP3    H147766   4.885   7.362   7.008  1.2533  0.1560 -0.4887
 7857TIP3    H247767   4.813   7.495   7.002 -1.5482 -1.2278  0.7265
 7858TIP3   OH247768   3.902   4.641   5.773 -0.0964  0.3140  0.1960
 7858TIP3    H147769   3.890   4.615   5.864 -1.1124  0.7558  0.2018
 7858TIP3    H247770   3.963   4.577   5.737  2.3670  1.5926  1.8334
 7859TIP3   OH247771   4.123   1.845   5.364 -0.3092  0.1032  0.6650
 7859TIP3    H147772   4.218   1.843   5.355 -0.4873 -1.8638 -1.6975
 7859TIP3    H247773   4.108   1.892   5.447  2.7234 -0.6874  1.7902
 7860TIP3   OH247774   8.807   0.928   5.305  0.7157 -0.4704 -0.7098
 7860TIP3    H147775   8.848   1.010   5.279  0.4729 -0.5587 -1.3761
 7860TIP3    H247776   8.801   0.933   5.401 -0.3705  0.7977 -0.8179
 7861TIP3   OH247777   5.471   8.420   5.836  0.6464 -0.2195 -0.4135
 7861TIP3    H147778   5.377   8.416   5.855  0.9763 -1.9128  1.0384
 7861TIP3    H247779   5.485   8.351   5.771  1.1175 -1.0291  0.5281
 7862TIP3   OH247780   3.585   2.349   6.777 -0.4310  0.1717  0.1176
 7862TIP3    H147781   3.639   2.271   6.788 -1.5290 -0.8273 -1.2653
 7862TIP3    H247782   3.501   2.316   6.745 -0.7440  1.9457 -1.0535
 7863TIP3   OH247783   0.697   2.143   5.332  0.0945 -0.1419  0.1325
 7863TIP3    H147784   0.731   2.062   5.294 -2.1053 -1.6209  1.0605
 7863TIP3    H247785   0.681   2.200   5.257  1.8380 -0.4514 -0.5260
 7864TIP3   OH247786   5.642   3.543   5.782  0.1828 -0.7254 -0.5662
 7864TIP3    H147787   5.608   3.614   5.728  0.2424 -0.6663 -0.5258
 7864TIP3    H247788   5.578   3.472   5.772  0.0930 -0.6452 -0.5597
 7865TIP3   OH247789   4.653   7.332   5.452  0.9040 -0.2804 -0.0256
 7865TIP3    H147790   4.695   7.414   5.480  1.0844  0.8905 -3.3238
 7865TIP3    H247791   4.681   7.321   5.361 -1.4638 -2.4961 -0.5780
 7866TIP3   OH247792   5.569   0.289   5.453  0.0109  0.5225 -0.6849
 7866TIP3    H147793   5.628   0.242   5.394 -1.4394 -2.6232  0.1196
 7866TIP3    H247794   5.620   0.304   5.532  0.0142 -1.5892 -0.2315
 7867TIP3   OH247795   4.006   0.542   5.393 -0.2670  0.1662  0.2138
 7867TIP3    H147796   3.950   0.545   5.316  0.3919 -0.7170 -0.3229
 7867TIP3    H247797   4.095   0.553   5.358  0.1754 -1.7050  0.6426
 7868TIP3   OH247798   3.374   6.170   6.076 -0.3805  0.6425  0.1934
 7868TIP3    H147799   3.465   6.201   6.078 -0.0988 -0.2104  1.4061
 7868TIP3    H247800   3.357   6.154   5.983  1.6219 -1.7686  0.1319
 7869TIP3   OH247801   6.979   8.096   6.422 -0.0142  0.0227 -0.2733
 7869TIP3    H147802   7.004   8.171   6.476 -2.0498  1.5027 -1.2549
 7869TIP3    H247803   7.019   8.113   6.337 -0.1533 -0.1994 -0.3844
 7870TIP3   OH247804   0.822   2.720   4.678  0.8573 -0.5221  0.2127
 7870TIP3    H147805   0.807   2.633   4.642 -1.1537  0.3659 -1.2922
 7870TIP3    H247806   0.917   2.727   4.685  1.4173 -1.1636 -4.1227
 7871TIP3   OH247807   6.744   1.465   5.456 -0.1241 -0.6007  0.0964
 7871TIP3    H147808   6.720   1.419   5.537 -1.1187  0.6871  0.5571
 7871TIP3    H247809   6.672   1.447   5.396  0.8411 -1.9609 -0.7213
 7872TIP3   OH247810   3.497   7.012   6.129 -0.3574 -0.1199  0.0371
 7872TIP3    H147811   3.429   6.967   6.079  0.7560 -0.9622 -0.7708
 7872TIP3    H247812   3.561   7.038   6.064 -0.2352  1.3074  0.7034
 7873TIP3   OH247813   6.576   7.856   6.647 -0.4101  0.0195 -0.3142
 7873TIP3    H147814   6.618   7.813   6.572 -1.5301  1.6489 -1.9557
 7873TIP3    H247815   6.619   7.941   6.652  1.2613 -0.8575  2.4289
 7874TIP3   OH247816   4.295   7.652   6.662  0.3084 -0.3038 -0.0463
 7874TIP3    H147817   4.251   7.724   6.707 -1.2647 -0.2131 -1.6288
 7874TIP3    H247818   4.227   7.613   6.607  1.9051 -0.9973 -1.6268
 7875TIP3   OH247819   1.658   3.159   6.001 -0.0040  0.1089  0.4368
 7875TIP3    H147820   1.674   3.195   6.088  1.5650  0.8440 -0.1226
 7875TIP3    H247821   1.731   3.098   5.987 -0.1795  0.0871 -0.4055
 7876TIP3   OH247822   0.903   7.189   6.400 -0.7633 -0.4656  0.1510
 7876TIP3    H147823   0.898   7.211   6.493 -2.0532 -2.3401  0.5865
 7876TIP3    H247824   0.956   7.110   6.396 -1.3961 -0.8713 -0.5886
 7877TIP3   OH247825   7.640   0.190   6.182  0.2603  0.4183  0.0670
 7877TIP3    H147826   7.606   0.145   6.105  0.9789  0.7292 -0.4446
 7877TIP3    H247827   7.581   0.165   6.253  0.1410 -0.6367 -0.3878
 7878TIP3   OH247828   0.646   6.644   6.047  0.3065  0.5584  0.1996
 7878TIP3    H147829   0.678   6.634   5.958 -0.3771 -0.9382  0.1044
 7878TIP3    H247830   0.651   6.557   6.085 -1.4030  0.7412  0.9384
 7879TIP3   OH247831   0.334   4.661   4.721 -0.7772  0.2067 -0.1476
 7879TIP3    H147832   0.304   4.750   4.704  0.3525  0.5421 -0.4647
 7879TIP3    H247833   0.294   4.608   4.653  0.0678  0.7981 -1.1339
 7880TIP3   OH247834   6.074   8.642   6.280  0.7806  0.5712 -0.2446
 7880TIP3    H147835   6.084   8.619   6.373  0.7692  0.2694 -0.3181
 7880TIP3    H247836   6.021   8.571   6.243  3.5978 -1.1713 -1.2505
 7881TIP3   OH247837   4.966   5.494   6.389  0.0380 -0.6597  0.0718
 7881TIP3    H147838   4.881   5.470   6.352 -0.3639 -2.0124  1.7184
 7881TIP3    H247839   5.024   5.502   6.313 -1.4854  0.0933 -1.0695
 7882TIP3   OH247840   4.436   1.324   5.907  0.3618 -0.2452 -0.3582
 7882TIP3    H147841   4.389   1.364   5.834 -0.2328 -2.3917 -1.2549
 7882TIP3    H247842   4.386   1.348   5.984  0.5628  1.4435 -0.7231
 7883TIP3   OH247843   7.676   4.684   6.244 -0.0671  0.3376  0.2928
 7883TIP3    H147844   7.730   4.653   6.171 -1.7794 -0.0826 -0.8487
 7883TIP3    H247845   7.704   4.775   6.257 -0.4038  0.7417 -1.5609
 7884TIP3   OH247846   5.795   0.596   5.494  0.1723  0.5233  0.1979
 7884TIP3    H147847   5.825   0.505   5.499  0.5859  0.6119 -0.5023
 7884TIP3    H247848   5.709   0.589   5.451  0.9521  0.5840 -1.4516
 7885TIP3   OH247849   0.577   8.427   5.577  0.2174 -0.1841  0.5620
 7885TIP3    H147850   0.518   8.355   5.559  0.1581  0.3181 -1.5383
 7885TIP3    H247851   0.562   8.489   5.505 -0.1643  2.2285  2.5717
 7886TIP3   OH247852   4.532   2.372   5.700 -0.2814  0.2112 -0.4103
 7886TIP3    H147853   4.611   2.425   5.701 -0.0209 -0.1766  0.1830
 7886TIP3    H247854   4.531   2.328   5.785 -0.7021 -0.4194 -0.7322
 7887TIP3   OH247855   8.427   3.403   5.680 -0.6606 -0.8416 -0.1324
 7887TIP3    H147856   8.430   3.468   5.609 -1.1434  1.2456  1.6610
 7887TIP3    H247857   8.517   3.375   5.691 -0.4089 -0.3342 -0.8193
 7888TIP3   OH247858   4.216   7.890   4.990  0.3020  0.1141  0.3638
 7888TIP3    H147859   4.158   7.933   4.927  0.2290  1.0500  1.0512
 7888TIP3    H247860   4.301   7.888   4.947  0.1627  0.3604  0.0718
 7889TIP3   OH247861   6.528   5.641   6.400  0.4605 -0.6782  0.2774
 7889TIP3    H147862   6.482   5.715   6.440 -0.9308 -0.6559 -1.2504
 7889TIP3    H247863   6.619   5.650   6.429  0.0464  0.8549  1.1928
 7890TIP3   OH247864   7.617   6.507   6.006  1.0396 -0.2212  0.5357
 7890TIP3    H147865   7.534   6.479   5.970  1.8139 -1.0977 -0.6333
 7890TIP3    H247866   7.670   6.427   6.009  2.2747  0.5512 -0.0056
 7891TIP3   OH247867   6.635   0.240   5.628  0.5589 -0.1164 -0.4870
 7891TIP3    H147868   6.720   0.213   5.662  0.1320  0.5922  1.2901
 7891TIP3    H247869   6.654   0.314   5.570  1.1082  0.8400  0.8483
 7892TIP3   OH247870   4.764   2.765   5.514  1.1171 -0.2799  0.5733
 7892TIP3    H147871   4.846   2.725   5.542  0.7508 -0.3417  1.6178
 7892TIP3    H247872   4.779   2.790   5.423  2.9477  1.4328  1.2861
 7893TIP3   OH247873   4.919   8.558   5.206  0.0178  0.2619  0.0150
 7893TIP3    H147874   4.829   8.589   5.206  0.4248  1.4986 -0.3970
 7893TIP3    H247875   4.930   8.518   5.292 -0.7336  0.6766  0.3164
 7894TIP3   OH247876   6.271   0.651   5.297  0.0885 -0.5925 -0.4370
 7894TIP3    H147877   6.197   0.612   5.252 -1.5933 -0.7551  2.2335
 7894TIP3    H247878   6.233   0.719   5.353  2.1504  0.3834 -0.0929
 7895TIP3   OH247879   6.886   7.010   5.754  0.0674  0.5070 -0.0851
 7895TIP3    H147880   6.960   7.056   5.715 -0.0467 -0.1607 -1.1387
 7895TIP3    H247881   6.811   7.040   5.703 -0.2378  0.3544  0.2715
 7896TIP3   OH247882   3.240   5.039   5.925 -0.0551  0.2727  0.1881
 7896TIP3    H147883   3.331   5.051   5.953  0.1376  2.0790 -1.0756
 7896TIP3    H247884   3.218   5.120   5.880 -2.3552 -0.0833  0.5670
 7897TIP3   OH247885   6.837   2.167   6.092 -0.7488  0.0854 -0.2791
 7897TIP3    H147886   6.850   2.258   6.118 -3.2367 -0.0847  2.0812
 7897TIP3    H247887   6.924   2.128   6.094 -0.0887  1.4840  2.6984
 7898TIP3   OH247888   8.927   3.934   5.268 -0.0357 -0.2946  0.3784
 7898TIP3    H147889   8.845   3.905   5.229  0.5217 -1.3839 -0.0314
 7898TIP3    H247890   8.944   4.019   5.228 -0.8674 -0.1419  0.3351
 7899TIP3   OH247891   2.911   5.194   5.974  0.0015 -0.3935  0.2814
 7899TIP3    H147892   2.824   5.168   6.004  0.4584 -2.0117  0.3090
 7899TIP3    H247893   2.901   5.285   5.947 -2.1574 -1.0429 -1.3853
 7900TIP3   OH247894   4.799   5.606   5.722  0.1224  0.2524  0.3836
 7900TIP3    H147895   4.727   5.588   5.782 -0.5332  0.6813 -0.2519
 7900TIP3    H247896   4.766   5.678   5.667  0.9493  0.2946 -0.0606
 7901TIP3   OH247897   2.061   7.301   5.908  0.1268 -0.0867 -0.9474
 7901TIP3    H147898   2.118   7.308   5.984 -1.4000  2.0493  0.1011
 7901TIP3    H247899   1.973   7.291   5.945 -0.8004  2.1970 -2.3178
 7902TIP3   OH247900   3.336   2.360   5.483 -0.4663 -0.2611  0.0246
 7902TIP3    H147901   3.336   2.317   5.397  0.4371 -1.3824  0.5742
 7902TIP3    H247902   3.367   2.294   5.544 -0.4796  0.7222  1.1371
 7903TIP3   OH247903   3.868   3.423   6.020  0.0126 -0.0127  0.5628
 7903TIP3    H147904   3.871   3.331   6.046 -0.1733  0.3348  1.8780
 7903TIP3    H247905   3.780   3.452   6.044 -0.0625  0.4166 -0.1977
 7904TIP3   OH247906   8.749   0.178   6.968  0.6764 -0.5910  0.1692
 7904TIP3    H147907   8.835   0.154   6.934  1.1057  0.2260  0.6340
 7904TIP3    H247908   8.729   0.110   7.032  1.2955 -0.4375  0.5413
 7905TIP3   OH247909   8.988   3.516   6.309 -0.1640  0.0806  0.4784
 7905TIP3    H147910   8.913   3.533   6.365 -1.0023  0.0086 -0.5897
 7905TIP3    H247911   9.036   3.600   6.307  0.6784 -0.3034  2.3966
 7906TIP3   OH247912   2.664   2.557   6.106  0.0571 -0.4700  0.3271
 7906TIP3    H147913   2.725   2.552   6.179 -1.9620 -2.8297  2.0365
 7906TIP3    H247914   2.578   2.539   6.145 -1.7796  2.2045 -2.0044
 7907TIP3   OH247915   5.894   0.645  10.256  0.1324  0.4301  0.3979
 7907TIP3    H147916   5.938   0.562  10.238 -1.1096  0.2200 -2.2856
 7907TIP3    H247917   5.809   0.620  10.292  0.2296  0.5921  0.7407
 7908TIP3   OH247918   8.684   7.242   6.645  0.0958 -0.3316  0.0933
 7908TIP3    H147919   8.644   7.229   6.731  1.0153  1.5570  0.8575
 7908TIP3    H247920   8.666   7.334   6.624  2.1258 -0.0182 -0.5024
 7909TIP3   OH247921   2.216   5.200   6.733  0.3248 -0.0808  0.4028
 7909TIP3    H147922   2.299   5.157   6.715  0.6213  1.1246 -1.2800
 7909TIP3    H247923   2.238   5.270   6.794  0.0878 -1.2604  1.9207
 7910TIP3   OH247924   8.823   5.019   5.908 -0.1893  0.1333  0.3402
 7910TIP3    H147925   8.818   4.924   5.917  1.0507  0.0026 -0.0582
 7910TIP3    H247926   8.785   5.038   5.823  0.9420 -0.2021 -0.2681
 7911TIP3   OH247927   0.495   4.940   5.288 -0.0481  0.7775 -0.1447
 7911TIP3    H147928   0.431   4.940   5.359  0.9795 -0.6183  0.8492
 7911TIP3    H247929   0.569   4.989   5.322  0.5347 -0.0799 -0.1322
 7912TIP3   OH247930   6.431   8.553   6.412 -0.3787 -0.1190  0.5812
 7912TIP3    H147931   6.344   8.532   6.379  0.4029 -0.0894 -1.7299
 7912TIP3    H247932   6.461   8.626   6.356  1.0228  0.0302  1.4726
 7913TIP3   OH247933   2.368   3.267   5.206 -0.1376 -0.0544  0.1555
 7913TIP3    H147934   2.317   3.297   5.131 -1.1051 -0.6676  0.5432
 7913TIP3    H247935   2.454   3.307   5.195 -0.5829  0.6824 -0.7333
 7914TIP3   OH247936   1.119   5.414   5.816 -0.7951  0.0553 -0.1715
 7914TIP3    H147937   1.172   5.339   5.788 -1.1974 -0.1472 -0.4068
 7914TIP3    H247938   1.182   5.483   5.835 -0.5004  0.4113 -2.1893
 7915TIP3   OH247939   7.750   7.835   6.515 -0.0592 -0.2450 -0.6418
 7915TIP3    H147940   7.675   7.833   6.575 -0.6873  2.2227 -1.2143
 7915TIP3    H247941   7.821   7.873   6.567 -0.1845  0.5265 -1.0216
 7916TIP3   OH247942   3.482   3.483   5.277  0.3812  0.2004 -0.2664
 7916TIP3    H147943   3.549   3.431   5.232  0.8800  0.4464  0.1782
 7916TIP3    H247944   3.457   3.550   5.214 -2.7959 -2.5310 -2.2232
 7917TIP3   OH247945   3.636   8.506   6.081 -0.1640 -0.3930 -0.0188
 7917TIP3    H147946   3.669   8.595   6.066  0.7241 -0.4611  1.3602
 7917TIP3    H247947   3.598   8.509   6.168  0.1121 -1.4190  0.1510
 7918TIP3   OH247948   1.661   4.769   7.065 -0.3717 -0.3404  0.6644
 7918TIP3    H147949   1.719   4.810   7.129  1.0931 -1.3573  0.0421
 7918TIP3    H247950   1.621   4.842   7.019  1.1199  0.4283  0.5081
 7919TIP3   OH247951   7.171   6.523   5.278  0.1124 -0.1631  0.2694
 7919TIP3    H147952   7.126   6.532   5.362  1.0177 -0.5703  0.8108
 7919TIP3    H247953   7.105   6.547   5.213 -1.5454 -2.6544  0.8800
 7920TIP3   OH247954   1.884   7.643   4.859 -0.4516 -0.1982 -0.7417
 7920TIP3    H147955   1.814   7.677   4.914 -0.1878 -2.0494  0.8518
 7920TIP3    H247956   1.843   7.578   4.803 -0.7179  1.6713 -2.8789
 7921TIP3   OH247957   0.364   3.441   5.139 -0.6642 -0.5170  0.5833
 7921TIP3    H147958   0.333   3.449   5.049 -1.2408 -0.1577  0.8098
 7921TIP3    H247959   0.396   3.351   5.146  0.8096 -0.1095 -0.4198
 7922TIP3   OH247960   2.294   6.687   6.127 -0.1328 -0.1662 -0.0664
 7922TIP3    H147961   2.266   6.740   6.052  2.8463  0.9880 -0.5416
 7922TIP3    H247962   2.377   6.727   6.153 -1.1237 -0.4267  4.0346
 7923TIP3   OH247963   3.024   4.469   5.490  0.1291 -0.1367 -0.0706
 7923TIP3    H147964   3.086   4.509   5.551  0.3519 -1.7939  0.8437
 7923TIP3    H247965   3.070   4.392   5.456 -1.0105 -0.7629 -0.2391
 7924TIP3   OH247966   6.996   2.753   5.752 -0.1859 -0.3271 -0.3540
 7924TIP3    H147967   7.015   2.699   5.676 -0.2058  0.1424 -0.6965
 7924TIP3    H247968   7.012   2.843   5.722 -0.0701 -0.1499  0.2304
 7925TIP3   OH247969   7.860   7.728   4.977  0.4717  0.1283  0.4659
 7925TIP3    H147970   7.849   7.673   4.899  0.6686 -0.7763  1.0598
 7925TIP3    H247971   7.928   7.791   4.953 -2.4531  2.8193 -1.6714
 7926TIP3   OH247972   7.096   3.145   6.079 -0.2435  0.3943  0.0853
 7926TIP3    H147973   7.084   3.141   6.174  0.3033 -0.7056  0.1341
 7926TIP3    H247974   7.028   3.086   6.045  0.6969 -0.6426 -0.0623
 7927TIP3   OH247975   6.239   4.017   6.400  0.1748  0.1583 -0.0721
 7927TIP3    H147976   6.158   3.969   6.381 -0.1635  1.0558 -1.0459
 7927TIP3    H247977   6.297   3.994   6.328  0.0841  1.0112 -0.4299
 7928TIP3   OH247978   8.510   7.691   5.049 -0.3125  0.3046  0.0071
 7928TIP3    H147979   8.483   7.781   5.072 -0.9598 -0.2023  1.3858
 7928TIP3    H247980   8.605   7.692   5.058 -0.2946  0.8968 -0.1602
 7929TIP3   OH247981   2.988   0.780   7.087  0.7038 -0.3776  0.4883
 7929TIP3    H147982   2.898   0.811   7.100  0.0507 -2.2727  0.7631
 7929TIP3    H247983   2.982   0.720   7.013  2.1812  1.1283 -0.9063
 7930TIP3   OH247984   1.648   2.802   5.975  0.6522  0.1279 -0.4212
 7930TIP3    H147985   1.712   2.747   6.020  0.2809 -0.9321 -1.1545
 7930TIP3    H247986   1.573   2.745   5.961 -0.3108  1.2416  0.0617
 7931TIP3   OH247987   7.970   4.478   5.662  0.3008  0.6843  0.4453
 7931TIP3    H147988   7.945   4.496   5.571  1.0473 -0.4608 -0.0210
 7931TIP3    H247989   8.066   4.479   5.660  0.3189  0.9002  1.2779
 7932TIP3   OH247990   8.676   8.964   5.726  0.1802  0.0390 -0.1669
 7932TIP3    H147991   8.607   8.938   5.665  0.4882 -2.0810  0.3126
 7932TIP3    H247992   8.638   8.950   5.813  0.9859 -0.5942  0.1006
 7933TIP3   OH247993   6.245   5.394   5.466  0.4477  0.3311  0.6127
 7933TIP3    H147994   6.324   5.446   5.452  0.1876  0.1666 -1.9054
 7933TIP3    H247995   6.191   5.412   5.389 -0.5474 -2.0334  0.6892
 7934TIP3   OH247996   3.829   1.181   6.413  0.1902 -0.2489 -0.1088
 7934TIP3    H147997   3.920   1.164   6.389  0.6772  0.1170  1.3684
 7934TIP3    H247998   3.802   1.252   6.355  1.0865  0.1256 -0.0926
 7935TIP3   OH247999   0.896   5.172   5.870 -0.6906 -0.0679  0.4706
 7935TIP3    H148000   0.925   5.081   5.883 -1.3122 -0.4981 -0.9435
 7935TIP3    H248001   0.975   5.224   5.884 -0.7081 -0.6397  3.0939
 7936TIP3   OH248002   8.074   5.588   6.680 -0.2516 -0.0564  0.0495
 7936TIP3    H148003   8.059   5.675   6.716 -0.3224 -0.1764  0.3150
 7936TIP3    H248004   8.011   5.580   6.608  0.2701  0.3991 -0.4711
 7937TIP3   OH248005   0.964   6.841   4.799  0.1555 -0.1303  0.2206
 7937TIP3    H148006   1.017   6.813   4.725 -0.1826  0.3452 -0.2124
 7937TIP3    H248007   1.006   6.802   4.876  1.8311  1.1949  0.0411
 7938TIP3   OH248008   3.846   7.883   6.799 -0.0305  0.1861 -0.2770
 7938TIP3    H148009   3.845   7.832   6.718  0.0915  0.7221 -0.6128
 7938TIP3    H248010   3.775   7.947   6.788 -0.4230 -0.1380  0.2945
 7939TIP3   OH248011   7.691   2.124   5.373 -0.3613 -0.2424 -0.4882
 7939TIP3    H148012   7.745   2.203   5.368 -0.1450 -0.4477 -1.6866
 7939TIP3    H248013   7.736   2.060   5.317  0.2245 -1.7133  1.5200
 7940TIP3   OH248014   0.056   7.052   5.176  0.3875 -0.1337 -0.8487
 7940TIP3    H148015   0.130   7.025   5.231  0.2049  1.0876  0.0368
 7940TIP3    H248016   0.095   7.099   5.103  0.4621  1.9120  0.4384
 7941TIP3   OH248017   8.472   7.665   5.501  0.1861 -0.3576  0.0965
 7941TIP3    H148018   8.466   7.759   5.514  0.0622 -0.3774  0.1780
 7941TIP3    H248019   8.399   7.644   5.443  0.2421 -0.3962  0.0402
 7942TIP3   OH248020   0.034   7.789   5.944 -0.1617 -0.6596  0.2153
 7942TIP3    H148021   0.009   7.726   6.012 -0.9375  0.0126  0.5749
 7942TIP3    H248022   0.127   7.774   5.930  0.2649 -0.1520  2.1507
 7943TIP3   OH248023   1.450   8.496   5.806 -0.1448 -0.0496  0.3138
 7943TIP3    H148024   1.365   8.499   5.761 -1.2732 -1.2923  2.2546
 7943TIP3    H248025   1.444   8.563   5.873  1.1851  1.1529 -0.6898
 7944TIP3   OH248026   2.560   1.951   5.365  0.9302  0.2632  0.6087
 7944TIP3    H148027   2.599   2.015   5.306  1.4326 -0.0864  0.5554
 7944TIP3    H248028   2.500   2.001   5.420 -0.0452  0.4962 -0.6329
 7945TIP3   OH248029   3.658   4.497   6.670 -0.3812  0.1361 -0.2238
 7945TIP3    H148030   3.600   4.437   6.716 -1.1809  1.6817  0.8857
 7945TIP3    H248031   3.636   4.584   6.705  0.3853  1.1523 -2.0849
 7946TIP3   OH248032   4.603   0.076   6.211 -0.3787 -0.1191  0.4744
 7946TIP3    H148033   4.509   0.079   6.231 -0.2691  2.3015  0.9893
 7946TIP3    H248034   4.644   0.121   6.285  0.9394  0.9513 -0.8581
 7947TIP3   OH248035   1.760   7.685   5.623  0.0695 -0.4833  0.0022
 7947TIP3    H148036   1.829   7.706   5.687 -1.0566  0.3417  0.9805
 7947TIP3    H248037   1.733   7.596   5.645  1.6115 -1.3023 -1.1646
 7948TIP3   OH248038   6.430   5.209   6.239 -0.1688  0.0278  0.3424
 7948TIP3    H148039   6.404   5.147   6.170  2.3123 -0.4437 -0.2527
 7948TIP3    H248040   6.460   5.153   6.311 -2.1406  0.5364  1.6521
 7949TIP3   OH248041   2.591   0.063   5.316  0.7132  0.1255  0.3614
 7949TIP3    H148042   2.526   0.133   5.317  0.9120  0.3354  1.9368
 7949TIP3    H248043   2.546  -0.012   5.276  0.4653  1.0917 -1.2461
 7950TIP3   OH248044   4.683   5.107   5.693  0.2825  0.6286  0.1912
 7950TIP3    H148045   4.733   5.026   5.701 -0.8405  0.0296  1.5158
 7950TIP3    H248046   4.656   5.109   5.601  0.8168 -0.1808  0.0044
 7951TIP3   OH248047   3.882   6.972   6.148  0.5001  0.2457 -0.0791
 7951TIP3    H148048   3.835   7.018   6.078  0.9507  0.3165 -0.3411
 7951TIP3    H248049   3.915   7.043   6.204  1.9697  0.3040 -0.9799
 7952TIP3   OH248050   6.120   8.941   5.296  0.4420  0.6349 -0.2675
 7952TIP3    H148051   6.033   8.973   5.272 -0.1367 -0.3460  0.4870
 7952TIP3    H248052   6.116   8.928   5.390  1.0293 -0.5295 -0.3884
 7953TIP3   OH248053   6.301   1.827   5.626  0.4073  0.8658 -0.5123
 7953TIP3    H148054   6.318   1.794   5.714 -0.4258  0.1987 -0.5812
 7953TIP3    H248055   6.228   1.888   5.637 -0.0180  0.4203 -0.7925
 7954TIP3   OH248056   1.030   3.109   5.645 -0.1422  0.4970 -0.0502
 7954TIP3    H148057   1.108   3.069   5.606  0.5921  0.9699  0.8777
 7954TIP3    H248058   0.963   3.103   5.577  0.4711 -0.6290 -0.5894
 7955TIP3   OH248059   4.253   2.590   6.874  0.6606  0.4590 -0.2114
 7955TIP3    H148060   4.234   2.519   6.936  1.7880  0.3459  0.0333
 7955TIP3    H248061   4.291   2.659   6.929 -1.0401  1.5484 -0.3337
 7956TIP3   OH248062   3.284   6.872   6.023 -0.5635  0.4840  0.0978
 7956TIP3    H148063   3.210   6.868   6.083  0.0669 -0.4628  0.8461
 7956TIP3    H248064   3.289   6.785   5.984 -0.7596  0.9920 -1.1049
 7957TIP3   OH248065   6.807   8.190   5.704 -0.1259  0.2073  0.1646
 7957TIP3    H148066   6.802   8.104   5.661  1.6574 -0.3602  0.9738
 7957TIP3    H248067   6.717   8.221   5.708 -0.9039 -1.9499  0.4930
 7958TIP3   OH248068   8.738   0.577   7.206  0.8722 -0.4274  0.8762
 7958TIP3    H148069   8.726   0.517   7.132  1.8367 -1.0400  1.1924
 7958TIP3    H248070   8.659   0.566   7.259  0.1550  0.0435 -0.0668
 7959TIP3   OH248071   4.041   5.264   6.910 -0.2406 -0.5336 -0.0297
 7959TIP3    H148072   3.972   5.256   6.975  0.6711  0.7664  1.1889
 7959TIP3    H248073   4.121   5.241   6.957  0.2803 -1.0474 -1.1283
 7960TIP3   OH248074   0.166   1.511   6.742  0.0121 -0.4034 -0.0338
 7960TIP3    H148075   0.150   1.434   6.796 -0.6469 -0.2178  0.0440
 7960TIP3    H248076   0.105   1.577   6.775  1.6583  0.6904  0.9741
 7961TIP3   OH248077   6.627   6.560   6.871  0.5725 -0.0174  0.0041
 7961TIP3    H148078   6.585   6.646   6.878 -1.4129 -0.7894 -1.2920
 7961TIP3    H248079   6.693   6.571   6.802 -0.4980  0.2185 -1.0252
 7962TIP3   OH248080   4.484   0.830   5.661 -0.2172  0.2942 -0.2890
 7962TIP3    H148081   4.555   0.774   5.690  2.3615  2.2927 -2.2329
 7962TIP3    H248082   4.460   0.881   5.739 -0.1911 -1.0262  0.6071
 7963TIP3   OH248083   0.450   8.176   5.716  0.0486  0.2711 -0.2204
 7963TIP3    H148084   0.358   8.199   5.701 -0.3399 -0.9309  0.2138
 7963TIP3    H248085   0.458   8.087   5.681  0.9142  0.1581  0.2577
 7964TIP3   OH248086   0.204   6.622   5.933 -0.3498 -0.2579  0.2270
 7964TIP3    H148087   0.153   6.547   5.965 -1.8810  0.9591  0.7645
 7964TIP3    H248088   0.180   6.694   5.991  1.1735  0.6378 -0.2116
 7965TIP3   OH248089   6.638   2.461   4.918  0.3273  0.4505  0.1890
 7965TIP3    H148090   6.702   2.529   4.898  1.6637 -1.1953 -1.5060
 7965TIP3    H248091   6.675   2.415   4.994  0.0654  0.8209  0.5426
 7966TIP3   OH248092   0.381   6.475   5.006  0.5444 -0.5755  0.4758
 7966TIP3    H148093   0.301   6.428   4.983 -0.0839  0.6091  0.1417
 7966TIP3    H248094   0.418   6.502   4.922  0.3372  0.3998  0.6811
 7967TIP3   OH248095   2.375   1.830   6.177 -0.1518 -0.4319 -0.0236
 7967TIP3    H148096   2.335   1.893   6.238  0.3081 -0.3996  0.2506
 7967TIP3    H248097   2.419   1.767   6.233 -0.8658 -1.1818 -0.2910
 7968TIP3   OH248098   0.661   2.252   4.711 -0.0620  0.2014  0.6456
 7968TIP3    H148099   0.722   2.193   4.756 -1.2897 -0.8477  1.0268
 7968TIP3    H248100   0.588   2.195   4.686 -0.9587  1.4397  0.3616
 7969TIP3   OH248101   5.232   8.210   6.777  0.1293  0.2930  0.2028
 7969TIP3    H148102   5.223   8.209   6.682  1.9681  0.0933 -0.0089
 7969TIP3    H248103   5.277   8.128   6.798 -0.6432  0.1273  1.2988
 7970TIP3   OH248104   1.412   4.766   5.634 -0.0488 -0.1764  0.2340
 7970TIP3    H148105   1.475   4.695   5.638  1.8507  1.4333  0.2906
 7970TIP3    H248106   1.392   4.776   5.541  1.3023  0.5285 -0.0072
 7971TIP3   OH248107   4.865   4.307   5.071  0.2982  0.5014 -0.0229
 7971TIP3    H148108   4.811   4.281   4.996 -0.8252  1.0134  0.5845
 7971TIP3    H248109   4.833   4.252   5.143  1.8574 -0.4986 -0.0575
 7972TIP3   OH248110   9.133   0.629   6.260  0.4636 -0.1662 -0.0094
 7972TIP3    H148111   9.048   0.673   6.253  0.5845 -0.1170 -1.3698
 7972TIP3    H248112   9.115   0.553   6.316 -0.0437  0.8296  1.2471
 7973TIP3   OH248113   2.831   4.073   5.051  0.2475 -0.1274  0.3010
 7973TIP3    H148114   2.773   4.140   5.014  0.3358 -0.7271 -0.9979
 7973TIP3    H248115   2.773   4.017   5.102 -0.3126 -0.5777 -0.7867
 7974TIP3   OH248116   2.625   0.155   6.208  0.5387 -0.4422 -0.6622
 7974TIP3    H148117   2.596   0.244   6.187  0.0746 -0.5316 -0.4108
 7974TIP3    H248118   2.673   0.127   6.130  0.6968  0.0325 -0.7373
 7975TIP3   OH248119   0.424   3.697   5.314 -1.2940  0.3847  0.0006
 7975TIP3    H148120   0.348   3.728   5.363 -1.7209 -0.7025  0.0515
 7975TIP3    H248121   0.396   3.614   5.276  0.1006 -0.4138  0.6468
 7976TIP3   OH248122   8.358   6.568   6.071 -0.3365  0.7741 -0.5267
 7976TIP3    H148123   8.301   6.566   6.147  0.4555  0.4959  0.0667
 7976TIP3    H248124   8.394   6.480   6.064 -0.2880  0.8328 -1.1401
 7977TIP3   OH248125   2.832   6.953   6.463  0.0756 -0.9392 -0.6141
 7977TIP3    H148126   2.926   6.970   6.467 -0.2837  1.0819  1.4920
 7977TIP3    H248127   2.814   6.899   6.540 -0.8676  1.4048  0.9179
 7978TIP3   OH248128   0.456   2.063   5.500 -0.4035 -0.4222  0.4206
 7978TIP3    H148129   0.470   2.158   5.502 -2.0520 -0.1378  0.1348
 7978TIP3    H248130   0.521   2.031   5.438 -0.8103  0.7440 -0.6652
 7979TIP3   OH248131   2.194   5.805   5.119  0.5432 -0.3374  0.1259
 7979TIP3    H148132   2.107   5.767   5.105 -0.3893  1.6637  0.0876
 7979TIP3    H248133   2.208   5.860   5.041  0.0355  2.4634  1.8699
 7980TIP3   OH248134   4.186   1.680   6.482  0.5032 -0.5206  0.3738
 7980TIP3    H148135   4.191   1.621   6.557 -1.3736  0.2364  1.1485
 7980TIP3    H248136   4.195   1.768   6.519 -0.9998 -0.1058 -0.1864
 7981TIP3   OH248137   2.795   9.027   6.140 -0.0754 -0.4431  0.0157
 7981TIP3    H148138   2.711   9.025   6.096 -0.7226  1.9878  1.0022
 7981TIP3    H248139   2.774   9.029   6.233  1.1995 -2.6797  0.4438
 7982TIP3   OH248140   3.067   9.008   6.164  0.1229  0.2625 -0.0099
 7982TIP3    H148141   2.975   9.016   6.188  0.0099  1.3845 -0.6855
 7982TIP3    H248142   3.080   8.916   6.142 -0.8898  0.1351 -0.0824
 7983TIP3   OH248143   4.986   1.445   6.694 -0.4250 -0.8285 -0.2327
 7983TIP3    H148144   4.945   1.507   6.634 -0.9284 -0.5557  0.3771
 7983TIP3    H248145   4.983   1.361   6.648  0.3308 -0.3911 -1.0946
 7984TIP3   OH248146   4.711   3.360   6.015  0.1312 -0.7801  0.2221
 7984TIP3    H148147   4.744   3.447   6.037  0.0111 -0.7036  0.1012
 7984TIP3    H248148   4.620   3.374   5.990 -0.4301 -1.1794  1.9336
 7985TIP3   OH248149   4.214   1.503   6.692  0.1835 -0.0076  0.1468
 7985TIP3    H148150   4.223   1.509   6.787 -1.1895 -1.6178  0.4451
 7985TIP3    H248151   4.266   1.427   6.667  0.2349  0.1822 -0.3417
 7986TIP3   OH248152   8.513   5.213   5.314  0.1585 -0.0208 -0.4551
 7986TIP3    H148153   8.478   5.302   5.320  0.9250  0.2143  1.2172
 7986TIP3    H248154   8.493   5.174   5.399 -0.0233 -1.4050 -1.1144
 7987TIP3   OH248155   0.902   0.980   5.963  0.2573  0.1462 -0.4913
 7987TIP3    H148156   0.844   0.904   5.953  0.3034  0.0540 -0.0848
 7987TIP3    H248157   0.855   1.039   6.021  0.5662  0.0689 -0.1552
 7988TIP3   OH248158   7.903   4.129   6.638 -0.2236  0.5388  0.7315
 7988TIP3    H148159   7.985   4.161   6.599 -0.5935  0.0715 -0.4776
 7988TIP3    H248160   7.840   4.198   6.621 -1.1144 -0.8546 -2.2051
 7989TIP3   OH248161   2.517   2.368   6.562  0.3182 -0.3321 -0.3752
 7989TIP3    H148162   2.593   2.380   6.619  0.5660 -1.2186 -0.4911
 7989TIP3    H248163   2.445   2.411   6.607  1.1145  1.5715 -0.8279
 7990TIP3   OH248164   8.794   4.398   5.911 -0.7255  0.3980 -0.5917
 7990TIP3    H148165   8.815   4.469   5.850  2.4718  0.6810  0.6306
 7990TIP3    H248166   8.769   4.443   5.992 -3.3494  0.0269 -1.1204
 7991TIP3   OH248167   7.766   8.819   5.874  0.2160 -0.3165  0.1835
 7991TIP3    H148168   7.747   8.834   5.967  0.9327  0.1469  0.2664
 7991TIP3    H248169   7.780   8.907   5.838 -0.3464 -0.4708 -0.4342
 7992TIP3   OH248170   3.727   6.603   6.422 -0.4017  0.0288  0.7723
 7992TIP3    H148171   3.641   6.644   6.417 -0.6528 -0.4888  0.7941
 7992TIP3    H248172   3.778   6.644   6.352 -1.9902 -2.7862 -2.2933
 7993TIP3   OH248173   2.329   6.768   4.852  0.2794  0.2802  0.0898
 7993TIP3    H148174   2.375   6.694   4.811  2.3483  1.5646 -0.0772
 7993TIP3    H248175   2.297   6.732   4.935 -2.1842 -1.7947 -1.5947
 7994TIP3   OH248176   3.635   1.601   6.275 -0.0912 -0.0634 -0.4912
 7994TIP3    H148177   3.577   1.617   6.200 -0.8200 -1.0488 -0.1582
 7994TIP3    H248178   3.662   1.688   6.303 -0.5850  0.3634 -1.3003
 7995TIP3   OH248179   1.863   5.430   6.425 -0.4542  0.2533 -0.2619
 7995TIP3    H148180   1.809   5.417   6.347 -0.5506 -0.9890 -0.0007
 7995TIP3    H248181   1.834   5.363   6.487  0.3244  0.5639  0.4612
 7996TIP3   OH248182   5.515   4.975   4.869  0.2147 -0.5123 -0.1268
 7996TIP3    H148183   5.581   4.986   4.801  1.1342 -0.3832  0.7706
 7996TIP3    H248184   5.559   5.000   4.950 -1.0258 -0.1089  0.4560
 7997TIP3   OH248185   3.457   5.394   5.910 -0.0500 -0.1237  0.5300
 7997TIP3    H148186   3.459   5.303   5.937  1.1521 -0.5714 -0.9846
 7997TIP3    H248187   3.392   5.397   5.839 -0.3663  0.2936  0.8256
 7998TIP3   OH248188   4.084   2.773   7.163  0.1449  0.2141  0.5621
 7998TIP3    H148189   4.116   2.816   7.083  0.0658 -0.3334  0.2293
 7998TIP3    H248190   4.161   2.727   7.198 -0.1533 -0.7594 -0.0113
 7999TIP3   OH248191   3.405   0.494   6.352  0.4289 -0.2278  0.0062
 7999TIP3    H148192   3.359   0.423   6.398 -0.5024  0.0420 -0.5011
 7999TIP3    H248193   3.451   0.541   6.422  2.1608 -2.0978  0.2186
 8000TIP3   OH248194   5.681   5.111   5.070 -0.2016  0.4097  0.7051
 8000TIP3    H148195   5.627   5.087   5.145  1.2104 -0.0114  1.6236
 8000TIP3    H248196   5.768   5.077   5.091  0.1495 -0.1004 -1.3180
 8001TIP3   OH248197   6.719   1.023   6.909  0.1705  0.0938 -0.0000
 8001TIP3    H148198   6.695   1.102   6.860  2.1846  0.5558 -0.3088
 8001TIP3    H248199   6.810   1.036   6.933  0.3986 -1.9300  0.4029
 8002TIP3   OH248200   3.836   7.136   6.802 -0.1399 -0.6117 -0.6482
 8002TIP3    H148201   3.910   7.176   6.847 -0.8503 -0.5483  0.5287
 8002TIP3    H248202   3.868   7.051   6.773  0.8783  0.0948 -1.6559
 8003TIP3   OH248203   2.957   2.703   6.076 -0.2330  0.3973 -0.0543
 8003TIP3    H148204   2.876   2.670   6.037  0.3964  0.0508 -1.1023
 8003TIP3    H248205   2.948   2.798   6.075 -1.1077  0.3414  0.9092
 8004TIP3   OH248206   2.084   3.208   6.468 -0.0945  0.4126 -0.0770
 8004TIP3    H148207   2.091   3.126   6.420  1.3047  1.0978 -1.1148
 8004TIP3    H248208   1.990   3.223   6.476 -0.3688 -0.4829 -1.2908
 8005TIP3   OH248209   2.978   2.531   4.902  0.3006 -0.0712  0.0875
 8005TIP3    H148210   2.970   2.609   4.848 -1.7789 -1.2835 -1.5484
 8005TIP3    H248211   2.891   2.520   4.942  0.8394 -0.9965  1.0676
 8006TIP3   OH248212   9.074   5.971   4.795  0.0255  0.2521 -0.1604
 8006TIP3    H148213   8.987   5.945   4.824 -0.0787 -0.0016 -0.6934
 8006TIP3    H248214   9.072   5.959   4.700  0.4158  0.9137 -0.2515
 8007TIP3   OH248215   2.351   5.409   5.919 -0.1734 -0.1537  0.2135
 8007TIP3    H148216   2.389   5.325   5.891 -0.0479 -0.0093 -0.0616
 8007TIP3    H248217   2.290   5.432   5.849 -0.3893 -0.1337  0.4082
 8008TIP3   OH248218   3.612   2.589   7.069  0.6036  0.3776  0.5252
 8008TIP3    H148219   3.699   2.629   7.071  0.6625  0.3399 -0.7108
 8008TIP3    H248220   3.626   2.503   7.029  0.1164  0.0368  1.0658
 8009TIP3   OH248221   2.583   2.879   5.647 -0.1241  0.0588 -0.4433
 8009TIP3    H148222   2.508   2.884   5.588  0.4468  0.9984 -1.1161
 8009TIP3    H248223   2.650   2.934   5.607  1.6764 -2.2787 -0.9099
 8010TIP3   OH248224   2.625   1.415   4.949 -0.7803 -0.0439 -0.7374
 8010TIP3    H148225   2.551   1.378   4.900 -0.3955 -0.6653 -0.8595
 8010TIP3    H248226   2.670   1.339   4.985 -0.5860  0.3680 -0.1006
 8011TIP3   OH248227   6.980   6.767   5.686 -0.1392 -0.1720  0.2392
 8011TIP3    H148228   6.983   6.704   5.758  0.6544 -0.9603 -0.4622
 8011TIP3    H248229   6.958   6.850   5.728  0.1334 -0.6461  1.3627
 8012TIP3   OH248230   8.933   1.932   6.252 -0.1582  0.0567  0.3656
 8012TIP3    H148231   8.871   1.859   6.249 -1.0921  0.8306  0.3758
 8012TIP3    H248232   8.879   2.010   6.241  0.7360  0.8002  1.0652
 8013TIP3   OH248233   3.364   1.088   5.436 -0.3173 -0.3376 -0.4108
 8013TIP3    H148234   3.333   1.014   5.489 -0.0120  0.4661  0.9635
 8013TIP3    H248235   3.418   1.139   5.497  0.3605  0.4384 -1.6305
 8014TIP3   OH248236   4.565   2.575   6.989  0.3110  0.2509 -0.3364
 8014TIP3    H148237   4.559   2.587   6.894 -0.7548 -0.7329 -0.4279
 8014TIP3    H248238   4.561   2.480   7.000 -1.8369  0.4225  0.7863
 8015TIP3   OH248239   2.028   1.089   6.225  0.2571  0.0764  0.0664
 8015TIP3    H148240   1.978   1.112   6.303  0.8995 -0.5914  0.6983
 8015TIP3    H248241   1.970   1.032   6.175 -0.8152  1.8670 -0.8219
 8016TIP3   OH248242   8.781   1.091   6.330  0.3657  0.2069  0.7412
 8016TIP3    H148243   8.773   0.995   6.333  3.0948 -0.1191 -0.1070
 8016TIP3    H248244   8.796   1.111   6.238 -0.8210  1.5775  0.8031
 8017TIP3   OH248245   5.980   6.338   6.563 -0.0872 -0.4889 -0.3238
 8017TIP3    H148246   6.045   6.404   6.539  1.0194 -0.8343  1.5575
 8017TIP3    H248247   5.896   6.379   6.542  0.4500  2.2446  2.1032
 8018TIP3   OH248248   2.510   1.039   5.957 -0.4912 -0.3676 -0.5409
 8018TIP3    H148249   2.595   0.996   5.967 -0.4560 -0.2807 -0.4723
 8018TIP3    H248250   2.446   0.973   5.984 -0.3509  0.3085  1.6484
 8019TIP3   OH248251   6.601   2.535   6.387  0.5843  0.1203 -0.1390
 8019TIP3    H148252   6.610   2.514   6.294 -0.7602  0.7823 -0.4396
 8019TIP3    H248253   6.602   2.630   6.391 -0.4653  0.1191  0.3915
 8020TIP3   OH248254   1.516   7.814   4.653  0.4855 -0.1090  0.2427
 8020TIP3    H148255   1.487   7.783   4.567 -0.2050  1.0899  0.0241
 8020TIP3    H248256   1.469   7.758   4.715  1.0297 -1.0170 -0.1467
 8021TIP3   OH248257   0.280   9.056   6.281  0.5819  0.7372 -0.2269
 8021TIP3    H148258   0.295   9.135   6.334  0.1474  1.0804 -0.6050
 8021TIP3    H248259   0.227   9.087   6.207  0.8445  0.1870 -0.6488
 8022TIP3   OH248260   0.252   0.736   5.008  0.3322  0.0245  0.2542
 8022TIP3    H148261   0.333   0.686   4.994  0.7036  0.2513  1.4749
 8022TIP3    H248262   0.192   0.673   5.048 -0.3638 -0.3333 -1.2567
 8023TIP3   OH248263   3.456   2.271   5.175  0.2268 -0.1418 -0.0604
 8023TIP3    H148264   3.495   2.318   5.101  1.3441 -1.8605 -0.6222
 8023TIP3    H248265   3.414   2.195   5.135  1.1219 -1.2695  1.0533
 8024TIP3   OH248266   8.557   8.523   6.400 -0.3471  0.4254  0.6924
 8024TIP3    H148267   8.618   8.563   6.337 -1.7207  1.5758  0.0201
 8024TIP3    H248268   8.602   8.444   6.430  0.1237 -0.5468 -2.2322
 8025TIP3   OH248269   5.260   7.587   6.065  0.0257 -1.1752 -0.0151
 8025TIP3    H148270   5.263   7.672   6.109 -0.9895 -0.3381 -1.4720
 8025TIP3    H248271   5.335   7.539   6.100  0.1772  0.0214  1.4105
 8026TIP3   OH248272   0.630   7.102   6.344 -0.4614  0.1735 -0.0992
 8026TIP3    H148273   0.698   7.104   6.412  0.2142  0.1056 -0.7643
 8026TIP3    H248274   0.647   7.021   6.296  1.2180  1.8016 -2.4776
 8027TIP3   OH248275   7.877   1.028   6.486 -0.3300  0.0693  0.0855
 8027TIP3    H148276   7.945   0.983   6.436 -0.0845  1.1336 -0.5837
 8027TIP3    H248277   7.806   1.042   6.424 -1.5757 -1.8037  1.0000
 8028TIP3   OH248278   1.390   8.247   5.715  0.0354 -0.0274 -0.1304
 8028TIP3    H148279   1.298   8.231   5.735  0.8350 -2.2222  2.3144
 8028TIP3    H248280   1.408   8.333   5.752 -0.9868  0.3663 -0.5139
 8029TIP3   OH248281   8.214   1.524   5.879 -0.0968  0.2036  0.0847
 8029TIP3    H148282   8.287   1.474   5.917  0.3559  0.1688 -0.8033
 8029TIP3    H248283   8.254   1.574   5.807 -0.5453  1.8081  0.9017
 8030TIP3   OH248284   2.438   7.118   6.896 -0.5253  0.0907  0.2142
 8030TIP3    H148285   2.501   7.055   6.862  0.4693  0.2002  1.7481
 8030TIP3    H248286   2.473   7.203   6.872 -1.9481  0.1133 -1.9907
 8031TIP3   OH248287   2.991   7.807   6.717 -0.4989  0.0731  0.1428
 8031TIP3    H148288   2.994   7.779   6.808 -2.0965 -0.3386  0.0968
 8031TIP3    H248289   3.007   7.902   6.721 -2.2450  0.3664  1.0471
 8032TIP3   OH248290   7.907   8.172   7.237  0.6990  0.1072  0.2847
 8032TIP3    H148291   7.940   8.168   7.147  1.3650 -2.6779  0.5476
 8032TIP3    H248292   7.980   8.205   7.288  1.7091 -1.9562  0.2649
 8033TIP3   OH248293   6.157   6.573   6.218 -0.0299 -0.5903  0.0112
 8033TIP3    H148294   6.243   6.604   6.188  0.2548  0.7866  2.0167
 8033TIP3    H248295   6.175   6.531   6.302 -1.2522 -0.8378  0.1639
 8034TIP3   OH248296   4.128   6.421   5.759  0.0917  0.4891 -0.0904
 8034TIP3    H148297   4.143   6.515   5.751  0.1425  0.4580 -0.3657
 8034TIP3    H248298   4.042   6.413   5.800 -0.6571  0.6448 -1.5577
 8035TIP3   OH248299   8.885   6.212   6.989 -0.0778 -0.0461  0.0847
 8035TIP3    H148300   8.934   6.147   6.939  0.9784  0.1598  0.8402
 8035TIP3    H248301   8.908   6.196   7.080 -0.0519  1.1801  0.3084
 8036TIP3   OH248302   6.348   2.406   6.070 -0.5562  0.1569 -0.0757
 8036TIP3    H148303   6.351   2.445   5.983 -1.4785 -0.8906 -0.6025
 8036TIP3    H248304   6.255   2.397   6.089 -0.3627 -0.3554  0.6925
 8037TIP3   OH248305   5.086   1.412   5.538  0.1875  0.1197 -0.1192
 8037TIP3    H148306   4.995   1.390   5.516 -0.3364 -1.3718  3.0104
 8037TIP3    H248307   5.138   1.349   5.489 -0.6988 -1.0035  0.3287
 8038TIP3   OH248308   4.388   2.981   7.010  0.4138  0.4183  0.2653
 8038TIP3    H148309   4.434   3.044   6.955  0.0638 -0.1651 -0.7176
 8038TIP3    H248310   4.302   3.021   7.026  0.3081  0.3322 -0.0902
 8039TIP3   OH248311   1.754   2.536   6.524 -0.1281  0.3701  0.4301
 8039TIP3    H148312   1.687   2.568   6.585 -0.4155  1.4851 -0.4303
 8039TIP3    H248313   1.732   2.444   6.510 -0.7070  0.3910  1.1621
 8040TIP3   OH248314   2.395   5.854   6.219  0.1738 -0.1009 -0.4138
 8040TIP3    H148315   2.395   5.758   6.209 -0.2188 -0.0826 -0.6257
 8040TIP3    H248316   2.386   5.887   6.129  1.0771  0.1491 -0.4154
 8041TIP3   OH248317   7.530   7.123   4.930 -0.0876  0.1004 -0.2140
 8041TIP3    H148318   7.519   7.050   4.991  1.9835 -0.9257 -0.9700
 8041TIP3    H248319   7.624   7.125   4.912  0.1491  3.6860  0.5998
 8042TIP3   OH248320   0.048   1.847   6.694 -0.1196  0.2867 -0.3192
 8042TIP3    H148321  -0.035   1.864   6.649 -0.2555  0.2558 -0.0831
 8042TIP3    H248322   0.027   1.778   6.757 -0.2540  1.2441  0.7212
 8043TIP3   OH248323   6.241   6.160   5.528 -0.5469 -0.0984  0.8643
 8043TIP3    H148324   6.209   6.247   5.504  0.6448 -0.2593 -1.6178
 8043TIP3    H248325   6.170   6.101   5.503 -0.5139 -0.0057  0.5475
 8044TIP3   OH248326   6.347   4.219   4.896  0.1380 -0.2237  0.0521
 8044TIP3    H148327   6.359   4.143   4.954 -0.4551 -2.0757 -2.0969
 8044TIP3    H248328   6.376   4.294   4.949  2.5146 -2.1138  1.6893
 8045TIP3   OH248329   7.276   6.823   6.696  0.1113 -0.0502 -0.4643
 8045TIP3    H148330   7.227   6.741   6.697 -0.3228  0.1384 -2.4634
 8045TIP3    H248331   7.220   6.885   6.742 -0.4619 -0.4097 -0.6631
 8046TIP3   OH248332   1.479   7.070   6.350 -0.1760 -0.4057  0.0228
 8046TIP3    H148333   1.551   7.009   6.366  0.7454  0.5854 -0.2244
 8046TIP3    H248334   1.461   7.109   6.436  2.0348  1.9363 -0.4320
 8047TIP3   OH248335   7.626   8.382   5.641  0.0264  0.3403  0.2126
 8047TIP3    H148336   7.667   8.465   5.667  0.4891  0.1643  0.0525
 8047TIP3    H248337   7.699   8.328   5.612 -0.2386 -0.2403  0.6180
 8048TIP3   OH248338   7.114   8.529   6.535  0.3595  0.0213  0.0446
 8048TIP3    H148339   7.086   8.485   6.455  0.6403  1.2253 -0.7398
 8048TIP3    H248340   7.120   8.621   6.511  3.3464  0.0576  0.6120
 8049TIP3   OH248341   1.185   3.502   5.974 -0.5989 -0.3642 -0.6200
 8049TIP3    H148342   1.145   3.552   5.903 -2.5210 -2.0435 -0.8072
 8049TIP3    H248343   1.278   3.526   5.971 -0.7728  0.2290 -3.1683
 8050TIP3   OH248344   5.384   4.352   6.474  0.0069 -0.3857 -0.5396
 8050TIP3    H148345   5.290   4.361   6.490  0.2886  1.2323  0.3983
 8050TIP3    H248346   5.423   4.429   6.514  1.5667 -0.0137 -2.6142
 8051TIP3   OH248347   8.680   0.146   6.665 -0.2226  0.1262  0.1298
 8051TIP3    H148348   8.727   0.138   6.748  1.0285 -0.1704 -0.5896
 8051TIP3    H248349   8.748   0.141   6.598 -1.3758 -1.4029 -0.9998
 8052TIP3   OH248350   5.842   7.519   6.446  0.2003 -0.0736  0.4534
 8052TIP3    H148351   5.747   7.524   6.457 -0.2051 -3.7476 -0.1780
 8052TIP3    H248352   5.875   7.519   6.536 -0.5704 -0.5643  0.7539
 8053TIP3   OH248353   8.067   1.627   6.270  0.0512  0.3606 -0.4050
 8053TIP3    H148354   7.998   1.592   6.214  1.5948 -2.4272 -0.7489
 8053TIP3    H248355   8.036   1.610   6.359 -0.6907  1.2558 -0.4767
 8054TIP3   OH248356   6.085   0.019   4.841  0.0028 -0.5151  0.6497
 8054TIP3    H148357   6.048   0.031   4.753 -0.0844 -1.1334  0.6004
 8054TIP3    H248358   6.123  -0.069   4.839  1.0822 -0.0704  0.8364
 8055TIP3   OH248359   8.852   8.789   5.967  0.4270 -0.0019  0.7786
 8055TIP3    H148360   8.824   8.879   5.947 -1.7691 -0.6671  0.6132
 8055TIP3    H248361   8.872   8.752   5.881 -3.6748 -1.1514  0.0818
 8056TIP3   OH248362   4.678   2.335   5.989 -0.1482  0.3187  0.8961
 8056TIP3    H148363   4.731   2.382   6.054  1.9325  0.1265 -0.5353
 8056TIP3    H248364   4.718   2.248   5.984 -1.1863 -0.1396  0.3950
 8057TIP3   OH248365   8.158   6.435   6.785  0.5349  0.6897  0.0620
 8057TIP3    H148366   8.220   6.420   6.715  1.2831  0.8450  0.6792
 8057TIP3    H248367   8.115   6.350   6.797  0.6407  0.5769 -0.3468
 8058TIP3   OH248368   8.210   7.265   5.718 -0.2068  0.0939  0.3682
 8058TIP3    H148369   8.227   7.228   5.804 -0.3067  1.2207  0.8881
 8058TIP3    H248370   8.287   7.318   5.698 -1.5063  2.4520  1.2304
 8059TIP3   OH248371   7.639   7.659   5.111  0.4940 -0.5022  0.1829
 8059TIP3    H148372   7.706   7.679   5.046 -1.1762 -0.3977 -1.6000
 8059TIP3    H248373   7.601   7.576   5.081 -0.7939 -0.0786  0.5838
 8060TIP3   OH248374   0.349   8.402   6.322 -0.9277 -0.3753 -0.0251
 8060TIP3    H148375   0.356   8.322   6.271  0.6468 -0.7218  0.6537
 8060TIP3    H248376   0.404   8.465   6.276 -1.5783  0.0978 -0.1625
 8061TIP3   OH248377   0.019   4.865   5.306 -0.5841 -0.6540  0.2683
 8061TIP3    H148378   0.050   4.895   5.221 -1.9747 -2.8340 -1.1004
 8061TIP3    H248379   0.098   4.834   5.351  0.2535  1.0713  0.0957
 8062TIP3   OH248380   1.778   7.170   6.405 -0.6176  0.4592 -0.6860
 8062TIP3    H148381   1.683   7.158   6.408 -0.4971 -0.4444 -0.1487
 8062TIP3    H248382   1.803   7.144   6.317 -0.6340 -1.2980 -0.2042
 8063TIP3   OH248383   2.059   6.872   4.781 -0.5350  0.3351  0.4316
 8063TIP3    H148384   2.142   6.826   4.794 -1.4809 -1.1413  1.5546
 8063TIP3    H248385   2.085   6.963   4.764  1.3308 -0.2581 -0.1470
 8064TIP3   OH248386   2.296   6.724   5.843  0.3503 -0.2641  0.4603
 8064TIP3    H148387   2.390   6.740   5.834  0.2894 -0.0639  0.1296
 8064TIP3    H248388   2.256   6.811   5.831  0.1136 -0.3848  0.3677
 8065TIP3   OH248389   2.741   1.494   6.977  0.4191 -0.2220  0.2879
 8065TIP3    H148390   2.696   1.414   6.952  1.2982 -0.6466  0.0105
 8065TIP3    H248391   2.824   1.464   7.015  0.1344  0.5090  1.5320
 8066TIP3   OH248392   7.184   8.762   5.509 -0.4018  0.1499  0.0881
 8066TIP3    H148393   7.122   8.834   5.498 -0.5910 -0.0605 -0.2724
 8066TIP3    H248394   7.138   8.698   5.562 -0.5573 -0.0788 -0.3198
 8067TIP3   OH248395   9.016   8.301   7.316  0.2258  0.4737 -0.3687
 8067TIP3    H148396   8.964   8.372   7.354  0.7042  0.5512  0.1371
 8067TIP3    H248397   9.051   8.338   7.235 -2.2869 -0.2613 -1.9170
 8068TIP3   OH248398   4.692   4.026   5.861 -0.5869  0.6409 -0.3470
 8068TIP3    H148399   4.770   4.068   5.898 -0.5074  0.2903 -0.1167
 8068TIP3    H248400   4.668   3.959   5.924  0.3179 -0.8584 -1.5330
 8069TIP3   OH248401   2.696   6.573   5.386 -0.2031  0.0833 -0.1403
 8069TIP3    H148402   2.735   6.659   5.401  0.3347 -0.1201 -0.3543
 8069TIP3    H248403   2.756   6.512   5.427  0.7076 -0.3967 -2.0637
 8070TIP3   OH248404   3.169   6.734   5.626  0.2630 -0.1593 -0.5705
 8070TIP3    H148405   3.090   6.783   5.604  1.6316  2.8480  0.6600
 8070TIP3    H248406   3.149   6.692   5.709 -0.4153 -0.3914 -0.8474
 8071TIP3   OH248407   5.568   3.020   5.578  0.3322  0.6005 -0.2608
 8071TIP3    H148408   5.550   3.034   5.671 -0.7563 -0.9855 -0.1964
 8071TIP3    H248409   5.664   3.021   5.572  0.4237  0.4638  0.9202
 8072TIP3   OH248410   5.633   4.977   5.813 -0.0942  0.4691  0.2538
 8072TIP3    H148411   5.558   4.976   5.872 -0.7451 -2.5470 -0.4408
 8072TIP3    H248412   5.680   4.896   5.832  1.2091  0.7386 -1.5109
 8073TIP3   OH248413   4.843   6.238   5.503 -0.0581  0.1460  0.6705
 8073TIP3    H148414   4.837   6.309   5.566 -0.0430 -0.3229  1.2160
 8073TIP3    H248415   4.752   6.216   5.482 -0.0771  1.4247 -0.8024
 8074TIP3   OH248416   5.110   0.517   6.724 -0.3021  0.4499 -0.1393
 8074TIP3    H148417   5.029   0.562   6.747  1.0376  1.9145  2.1073
 8074TIP3    H248418   5.145   0.567   6.650  0.6542  2.6933  1.6801
 8075TIP3   OH248419   2.506   6.256   5.780  0.1348 -0.9343  0.4153
 8075TIP3    H148420   2.423   6.216   5.806 -0.1344 -1.0324 -0.5807
 8075TIP3    H248421   2.485   6.348   5.764  0.8200 -0.2398  3.0445
 8076TIP3   OH248422   4.788   8.161   5.127  0.5184  0.0527  0.6285
 8076TIP3    H148423   4.822   8.087   5.177  2.3944  0.6740  0.3403
 8076TIP3    H248424   4.864   8.218   5.114 -0.5796  1.3489 -0.3691
 8077TIP3   OH248425   0.350   8.281   5.961 -0.5403  0.4753 -0.5117
 8077TIP3    H148426   0.396   8.267   5.878 -1.3359  0.0766 -0.8897
 8077TIP3    H248427   0.325   8.193   5.989 -1.1073  0.6972 -0.3255
 8078TIP3   OH248428   5.171   5.278   5.737  0.4762  0.1790  0.4988
 8078TIP3    H148429   5.215   5.266   5.822 -0.2345  0.0324  0.8552
 8078TIP3    H248430   5.083   5.307   5.760  0.7989  1.8194 -0.2486
 8079TIP3   OH248431   2.221   2.183   6.327 -0.4163 -0.7654 -0.0549
 8079TIP3    H148432   2.135   2.206   6.361 -0.1401  0.9695 -0.4200
 8079TIP3    H248433   2.241   2.098   6.366 -1.2267 -0.0479  2.0450
 8080TIP3   OH248434   7.219   5.763   5.750  0.0177 -0.5295 -0.4280
 8080TIP3    H148435   7.128   5.788   5.766 -0.7408 -2.5129 -1.3440
 8080TIP3    H248436   7.252   5.733   5.834  0.1327  0.9600  0.0937
 8081TIP3   OH248437   8.062   0.621   5.819 -0.0821  0.7990  0.1647
 8081TIP3    H148438   8.110   0.704   5.828 -0.5675  0.9621  1.6561
 8081TIP3    H248439   7.980   0.636   5.867 -0.4650 -0.3296 -0.1152
 8082TIP3   OH248440   0.940   9.161   6.768  0.2266 -0.2697  0.6393
 8082TIP3    H148441   0.850   9.134   6.786  0.8481 -0.1111  5.4635
 8082TIP3    H248442   0.989   9.079   6.765  0.2355 -0.2589  0.4963
 8083TIP3   OH248443   1.569   1.272   5.116 -0.1373  0.6428  0.0997
 8083TIP3    H148444   1.615   1.335   5.170 -2.3884  1.5633  1.0347
 8083TIP3    H248445   1.487   1.255   5.162  0.1088 -2.5723 -0.3971
 8084TIP3   OH248446   1.847   5.528   6.704  0.5989 -0.3832  0.6367
 8084TIP3    H148447   1.898   5.515   6.784  1.4537 -0.7446  0.0476
 8084TIP3    H248448   1.815   5.441   6.681  3.2541 -0.9815 -1.2828
 8085TIP3   OH248449   7.110   7.012   6.822 -0.4223  0.6737 -0.4484
 8085TIP3    H148450   7.041   6.946   6.822 -1.2589  1.5155 -1.1398
 8085TIP3    H248451   7.090   7.067   6.746  0.6933  1.2702 -0.3299
 8086TIP3   OH248452   1.625   0.633   6.486 -0.2459 -0.2155  0.1758
 8086TIP3    H148453   1.530   0.639   6.474 -0.2994 -2.0214 -0.7014
 8086TIP3    H248454   1.650   0.716   6.526 -2.1680  0.3662  0.2557
 8087TIP3   OH248455   3.553   0.397   5.674 -0.0600 -0.2737 -0.5059
 8087TIP3    H148456   3.621   0.387   5.607 -0.3372  0.7687 -0.9627
 8087TIP3    H248457   3.585   0.346   5.748  0.2070 -1.5153 -1.4535
 8088TIP3   OH248458   8.100   0.148   5.350  0.0358 -0.0888 -0.5346
 8088TIP3    H148459   8.093   0.240   5.376  0.4109 -0.1717 -0.1194
 8088TIP3    H248460   8.021   0.107   5.385 -0.9994  0.3912 -2.1780
 8089TIP3   OH248461   6.934   0.491   5.489 -0.0629  0.0705 -0.4786
 8089TIP3    H148462   6.992   0.538   5.430  0.3568 -2.0619 -1.8811
 8089TIP3    H248463   6.959   0.399   5.479 -0.0785 -0.4601  2.9144
 8090TIP3   OH248464   0.469   2.051   6.206 -0.0986  0.2089 -0.3254
 8090TIP3    H148465   0.545   2.081   6.155 -1.0009  0.5138 -1.5401
 8090TIP3    H248466   0.449   1.965   6.168 -0.1496 -0.0268  0.2339
 8091TIP3   OH248467   8.647   0.554   5.450 -0.0193 -0.0689 -0.3264
 8091TIP3    H148468   8.634   0.489   5.518  0.2617  0.9363  0.7186
 8091TIP3    H248469   8.620   0.637   5.490  3.3315  1.1157 -0.2385
 8092TIP3   OH248470   3.349   7.635   5.653  0.3588  0.1922  0.0575
 8092TIP3    H148471   3.275   7.652   5.594  0.0638  1.5053  0.7725
 8092TIP3    H248472   3.342   7.541   5.672 -0.9291  0.2115 -0.1750
 8093TIP3   OH248473   2.820   0.012   6.905  0.3321 -0.3966  0.1582
 8093TIP3    H148474   2.820  -0.084   6.903  1.1347 -0.4235  1.0128
 8093TIP3    H248475   2.731   0.035   6.931  0.5236 -0.9647  1.4184
 8094TIP3   OH248476   7.136   5.335   5.901  0.0879 -0.5344 -0.6908
 8094TIP3    H148477   7.194   5.335   5.824 -0.5772 -1.4937 -1.2235
 8094TIP3    H248478   7.049   5.318   5.865 -0.4643  0.4327  0.1486
 8095TIP3   OH248479   8.336   6.333   6.606 -0.7154  0.4128  0.9450
 8095TIP3    H148480   8.399   6.307   6.538 -2.2050  0.4575 -0.5099
 8095TIP3    H248481   8.384   6.394   6.661  0.9011 -0.5302  0.6401
 8096TIP3   OH248482   7.139   5.858   6.418  0.2462  0.2948  0.0863
 8096TIP3    H148483   7.076   5.861   6.346  2.0818 -1.4260 -1.7677
 8096TIP3    H248484   7.093   5.814   6.489 -0.4632 -1.7994 -1.5439
 8097TIP3   OH248485   2.107   7.642   5.044 -0.1330  0.0139 -0.1102
 8097TIP3    H148486   2.110   7.731   5.079  0.3358  0.7318 -1.8485
 8097TIP3    H248487   2.028   7.640   4.990  0.0033 -0.5467 -0.2933
 8098TIP3   OH248488   2.140   3.498   5.432  0.6919  0.0669  0.5583
 8098TIP3    H148489   2.225   3.528   5.464  0.5097 -0.7403  1.8878
 8098TIP3    H248490   2.122   3.554   5.357  1.0547  2.2519  1.9903
 8099TIP3   OH248491   8.916   6.616   5.982 -0.4897 -0.1981 -0.5238
 8099TIP3    H148492   8.975   6.691   5.987 -1.6841  0.7130  1.0105
 8099TIP3    H248493   8.966   6.543   6.018  0.0696  0.3003 -0.2747
 8100TIP3   OH248494   8.592   3.214   5.307 -1.3865  0.1183  0.4647
 8100TIP3    H148495   8.636   3.193   5.225 -0.9227 -0.4993  0.8695
 8100TIP3    H248496   8.535   3.288   5.285  0.6331  1.6753  0.1820
 8101TIP3   OH248497   0.844   0.509   5.277  0.3278  0.7692  0.3092
 8101TIP3    H148498   0.782   0.562   5.228  0.6274 -0.7358 -1.8495
 8101TIP3    H248499   0.888   0.570   5.336 -0.1929  2.6411 -1.1737
 8102TIP3   OH248500   4.588   7.046   6.547  0.4679  0.9959  0.1301
 8102TIP3    H148501   4.612   6.969   6.598  0.6866  0.4672 -0.7402
 8102TIP3    H248502   4.495   7.035   6.530  0.6370  0.5552 -0.5706
 8103TIP3   OH248503   3.547   7.237   5.782  0.1894  0.6017  0.1098
 8103TIP3    H148504   3.591   7.215   5.700 -0.2871  1.3905 -0.3633
 8103TIP3    H248505   3.457   7.256   5.757 -0.3443 -0.5788  1.0151
 8104TIP3   OH248506   6.342   2.564   5.840  0.8257 -0.4216  0.2133
 8104TIP3    H148507   6.375   2.651   5.860 -0.6667  0.0781  0.6239
 8104TIP3    H248508   6.303   2.572   5.753  0.4722 -0.6033  0.3502
 8105TIP3   OH248509   4.181   5.699   6.634 -0.4177  0.0777  0.6729
 8105TIP3    H148510   4.162   5.608   6.657  0.0928 -1.0744 -2.7657
 8105TIP3    H248511   4.095   5.741   6.628 -0.8326 -0.8173  0.2061
 8106TIP3   OH248512   3.209   0.201   5.153 -0.3306 -0.2011 -0.3207
 8106TIP3    H148513   3.233   0.268   5.089 -1.1397  0.4852  0.0694
 8106TIP3    H248514   3.126   0.231   5.189  1.3699  0.9593  3.0998
 8107TIP3   OH248515   6.778   0.992   6.267  0.1062  0.5520  0.6608
 8107TIP3    H148516   6.849   0.934   6.297 -1.8547 -1.5847  1.4761
 8107TIP3    H248517   6.718   0.934   6.221  0.4817  2.8976 -3.1710
 8108TIP3   OH248518   0.874   0.724   6.653  0.1306 -0.5441 -0.3936
 8108TIP3    H148519   0.925   0.764   6.583  0.2574 -0.0985 -0.0567
 8108TIP3    H248520   0.892   0.630   6.647  1.5781 -0.3210  0.1748
 8109TIP3   OH248521   7.732   1.964   5.629 -0.1256 -0.4992  0.1308
 8109TIP3    H148522   7.723   1.964   5.534 -1.8400  0.5916  0.2475
 8109TIP3    H248523   7.786   2.041   5.648 -0.2855 -0.3746  0.0780
 8110TIP3   OH248524   0.886   3.307   5.383  0.2594  0.6063 -0.3768
 8110TIP3    H148525   0.818   3.326   5.318  0.5793  1.5743 -0.4411
 8110TIP3    H248526   0.870   3.216   5.408 -2.5011  1.4162  1.2518
 8111TIP3   OH248527   2.544   0.075   6.948 -0.2658  0.1763  0.0899
 8111TIP3    H148528   2.507   0.152   6.905  0.7355 -0.2073 -1.5247
 8111TIP3    H248529   2.518   0.001   6.893  0.9738 -0.3440  0.1621
 8112TIP3   OH248530   0.105   5.812   5.091 -0.5562 -0.5530  0.0258
 8112TIP3    H148531   0.159   5.773   5.023 -2.5528 -2.4128 -0.5796
 8112TIP3    H248532   0.016   5.784   5.071 -1.5152  0.7018  2.1460
 8113TIP3   OH248533   3.510   8.403   6.849  0.1915  0.1411  0.3744
 8113TIP3    H148534   3.604   8.401   6.864 -0.0165  1.9621  2.4909
 8113TIP3    H248535   3.475   8.333   6.904  0.3527 -1.5708 -1.5883
 8114TIP3   OH248536   3.021   6.795   4.992 -0.1441  0.0976 -0.1279
 8114TIP3    H148537   3.033   6.857   4.920 -0.5605  0.0629 -0.2314
 8114TIP3    H248538   3.101   6.803   5.044 -1.0560  2.2765  1.0652
 8115TIP3   OH248539   4.513   5.897   6.316  0.5175  0.2414  0.2689
 8115TIP3    H148540   4.600   5.928   6.338  1.6580 -0.8712 -2.2156
 8115TIP3    H248541   4.503   5.815   6.363  1.0461  0.1100  0.1524
 8116TIP3   OH248542   1.037   1.284   5.307 -0.5284  0.5964  0.6643
 8116TIP3    H148543   0.986   1.232   5.369 -1.6585  0.4820 -0.3342
 8116TIP3    H248544   0.980   1.296   5.232  1.0309  0.1738 -0.6625
 8117TIP3   OH248545   6.091   1.974   6.084  0.1136 -0.4073 -0.1014
 8117TIP3    H148546   6.180   1.976   6.049 -0.3141 -0.5722 -1.2133
 8117TIP3    H248547   6.071   1.881   6.096  0.1993 -0.3601  0.4630
 8118TIP3   OH248548   7.702   1.698   5.394  0.3632 -0.4033 -0.1761
 8118TIP3    H148549   7.701   1.643   5.472  0.7030  1.0330  0.8801
 8118TIP3    H248550   7.610   1.710   5.371  0.1983 -4.6939 -2.9360
 8119TIP3   OH248551   8.025   0.445   5.610  0.4556 -0.0706 -0.3054
 8119TIP3    H148552   8.059   0.517   5.663  0.4006  2.4048 -3.3699
 8119TIP3    H248553   8.100   0.416   5.558 -0.5251  1.0314 -2.4432
 8120TIP3   OH248554   3.250   0.313   6.477 -0.4839  0.5064 -0.2144
 8120TIP3    H148555   3.164   0.348   6.498  0.1562  1.6615  0.6552
 8120TIP3    H248556   3.248   0.222   6.507 -1.1444  0.7572  0.5286
 8121TIP3   OH248557   8.585   0.832   4.864 -0.9539 -0.5564  0.5472
 8121TIP3    H148558   8.492   0.821   4.844 -0.8225 -0.0612 -0.4280
 8121TIP3    H248559   8.620   0.743   4.870 -1.2386 -0.7467 -0.4249
 8122TIP3   OH248560   1.811   3.572  10.833 -0.6127  0.0343 -0.3067
 8122TIP3    H148561   1.772   3.497  10.787 -1.8590 -0.4857  1.4934
 8122TIP3    H248562   1.775   3.649  10.788 -1.4337 -0.4506 -0.5015
 8123TIP3   OH248563   8.400   2.316   6.783 -0.2522  0.6160 -0.0320
 8123TIP3    H148564   8.472   2.370   6.815  0.0419  0.2159 -0.0103
 8123TIP3    H248565   8.390   2.342   6.692 -0.7924  1.4352  0.2472
 8124TIP3   OH248566   7.273   1.094   6.787  0.7552 -0.0699  0.0349
 8124TIP3    H148567   7.300   1.105   6.696  1.1249  1.0488  0.2630
 8124TIP3    H248568   7.346   1.130   6.838 -0.0971  0.7594  0.7185
 8125TIP3   OH248569   2.722   7.441   5.305  0.6039  0.4776  0.0057
 8125TIP3    H148570   2.714   7.414   5.397  0.4306  0.5455  0.0127
 8125TIP3    H248571   2.643   7.405   5.263  0.1871  1.2701  0.0927
 8126TIP3   OH248572   8.413   0.920   5.287  0.7367  0.5913  0.3853
 8126TIP3    H148573   8.408   1.010   5.318  1.4786  0.3275  1.2745
 8126TIP3    H248574   8.438   0.928   5.195  2.1107  1.2524  0.8015
 8127TIP3   OH248575   6.636   5.178   5.591  0.3213  0.1663  0.1497
 8127TIP3    H148576   6.540   5.182   5.584  0.3719  2.9996  0.0017
 8127TIP3    H248577   6.652   5.168   5.685 -0.0968 -0.1504  0.1947
 8128TIP3   OH248578   4.128   7.883   5.710  0.1314  0.3408 -0.6895
 8128TIP3    H148579   4.156   7.798   5.745  0.9401  0.6416 -0.5784
 8128TIP3    H248580   4.035   7.872   5.691 -0.2543  0.0367  1.2017
 8129TIP3   OH248581   1.042   0.894   5.263 -0.4300 -0.6928 -0.3658
 8129TIP3    H148582   0.998   0.823   5.310  0.1250  0.1877  1.6336
 8129TIP3    H248583   1.094   0.938   5.331 -1.6873  2.3765 -1.2044
 8130TIP3   OH248584   3.781   1.628   5.409 -0.1697 -0.0513  0.7759
 8130TIP3    H148585   3.768   1.710   5.362  1.6589  0.8429  1.7217
 8130TIP3    H248586   3.847   1.581   5.358  2.0684  1.0668  2.4810
 8131TIP3   OH248587   3.833   8.728   5.640  0.0963  0.1244 -0.1427
 8131TIP3    H148588   3.871   8.648   5.602 -0.6911  0.3723 -1.5472
 8131TIP3    H248589   3.877   8.799   5.594  0.4786  0.5064  0.7936
 8132TIP3   OH248590   2.014   0.861   4.681 -0.1322  0.5014  0.2360
 8132TIP3    H148591   2.065   0.786   4.712 -1.6975 -0.1343  1.4220
 8132TIP3    H248592   1.924   0.843   4.710 -0.6907  2.4869 -0.0846
 8133TIP3   OH248593   7.937   9.021   4.682 -0.0174  0.6494 -0.2024
 8133TIP3    H148594   7.983   8.982   4.756 -0.5082  0.8370  0.2095
 8133TIP3    H248595   7.849   8.983   4.687 -0.4276  1.6050  0.0538
 8134TIP3   OH248596   3.235   2.877  11.089 -0.3741 -0.2146 -0.2443
 8134TIP3    H148597   3.231   2.810  11.021 -0.7521 -0.1777 -0.2575
 8134TIP3    H248598   3.144   2.888  11.118 -0.6324  1.6898 -1.5976
 8135TIP3   OH248599   5.245   6.555   5.527  0.2111  0.0219  0.3845
 8135TIP3    H148600   5.324   6.509   5.500 -0.6145 -0.2636 -1.7314
 8135TIP3    H248601   5.199   6.492   5.582  1.0453 -0.1129  0.9514
 8136TIP3   OH248602   0.506   6.995   5.905 -0.4525 -0.4323 -0.4285
 8136TIP3    H148603   0.500   6.960   5.993  1.0369  0.2942  0.0003
 8136TIP3    H248604   0.501   6.919   5.848  0.5804 -1.1332  0.3827
 8137TIP3   OH248605   7.381   9.014   5.185 -0.2739  0.6429  0.0230
 8137TIP3    H148606   7.399   8.975   5.099  0.6953  3.3795 -1.1283
 8137TIP3    H248607   7.453   8.984   5.240 -0.1738 -0.0837 -0.4974
 8138TIP3   OH248608   9.106   7.828   5.697 -0.4325 -0.2552  0.0140
 8138TIP3    H148609   9.074   7.896   5.755 -0.6841 -1.0633  0.8435
 8138TIP3    H248610   9.166   7.776   5.751  1.0778  0.2959 -1.0739
 8139TIP3   OH248611   5.321   8.689   6.545 -0.4170  0.7713 -0.1116
 8139TIP3    H148612   5.344   8.780   6.529  0.6325  0.4312 -0.6475
 8139TIP3    H248613   5.258   8.692   6.617 -0.3459  1.9080 -0.0839
 8140TIP3   OH248614   2.432   1.164   4.868 -0.0581 -0.3820 -0.3260
 8140TIP3    H148615   2.512   1.118   4.893 -1.6461 -2.1932  1.7305
 8140TIP3    H248616   2.368   1.095   4.850 -1.6910  1.0028 -0.1555
 8141TIP3   OH248617   2.172   1.254   5.550 -0.9426 -0.1035 -0.1895
 8141TIP3    H148618   2.199   1.234   5.640  0.1006  1.6110 -0.0579
 8141TIP3    H248619   2.083   1.287   5.558 -0.3972  1.3087  0.4430
 8142TIP3   OH248620   8.610   7.401   4.960  0.1331  0.2432  0.3978
 8142TIP3    H148621   8.647   7.320   4.995 -0.3543 -0.6086 -1.0089
 8142TIP3    H248622   8.562   7.439   5.033  1.4855 -0.0220  1.4656
 8143TIP3   OH248623   3.686   5.326   5.668 -0.3524 -0.1275  0.3555
 8143TIP3    H148624   3.618   5.390   5.647 -0.2651  0.1317  0.8633
 8143TIP3    H248625   3.764   5.378   5.687  0.5765 -0.4442 -2.1298
 8144TIP3   OH248626   7.536   7.806   6.938  0.7090  0.2892 -0.3676
 8144TIP3    H148627   7.528   7.807   6.843  2.0797 -1.0996 -0.5393
 8144TIP3    H248628   7.464   7.749   6.967  0.1218  0.9370 -0.5426
 8145TIP3   OH248629   2.054   0.936   5.576 -0.2632 -0.1156 -0.1451
 8145TIP3    H148630   2.052   0.884   5.657 -1.2405  1.8052  1.1337
 8145TIP3    H248631   2.148   0.948   5.558  0.0631 -3.2490 -1.2116
 8146TIP3   OH248632   0.105   0.351   6.396 -0.1963  0.4980 -0.1081
 8146TIP3    H148633   0.012   0.344   6.417 -0.0940  0.3655  0.3238
 8146TIP3    H248634   0.114   0.314   6.309 -0.1058 -2.2472  0.9775
 8147TIP3   OH248635   9.014   2.830   5.725  0.5832  0.1744  0.0739
 8147TIP3    H148636   9.014   2.737   5.705  0.2107  0.2382 -0.2309
 8147TIP3    H248637   9.019   2.873   5.639  1.3591  0.4294  0.2374
 8148TIP3   OH248638   0.483   5.033   5.716 -0.2394 -0.9793 -0.9378
 8148TIP3    H148639   0.404   5.085   5.698  0.9115  0.6992 -1.3974
 8148TIP3    H248640   0.541   5.051   5.642  1.1314 -1.0397  0.0763
 8149TIP3   OH248641   7.165   6.197   6.366 -0.2748  0.1869  0.4700
 8149TIP3    H148642   7.232   6.156   6.422  1.3494  2.0487  0.0095
 8149TIP3    H248643   7.084   6.188   6.416  0.0367 -3.1085  0.5870
 8150TIP3   OH248644   7.081   5.407   6.616  0.2470  0.3579 -0.0814
 8150TIP3    H148645   7.136   5.331   6.635  0.3086  0.3741 -0.1939
 8150TIP3    H248646   6.995   5.370   6.598  0.3813  0.2738 -0.5901
 8151TIP3   OH248647   1.457   6.559   5.053  0.0013 -0.0686 -0.1071
 8151TIP3    H148648   1.386   6.502   5.025  0.3527 -0.5363 -0.0616
 8151TIP3    H248649   1.536   6.515   5.022  0.2775  0.3817 -0.0443
 8152TIP3   OH248650   2.563   9.025   5.559  0.1728  0.1789  0.0069
 8152TIP3    H148651   2.494   9.079   5.598 -0.5566 -0.5773 -0.2135
 8152TIP3    H248652   2.524   8.990   5.479  0.6935 -0.5177  0.0462
 8153TIP3   OH248653   4.765   3.900   6.158 -1.1458  0.2704  0.4107
 8153TIP3    H148654   4.811   3.880   6.240 -0.2409  0.0937 -0.1240
 8153TIP3    H248655   4.685   3.848   6.162 -1.0974  0.2388  1.1650
 8154TIP3   OH248656   6.705   0.625   5.173  0.0334  0.0504 -0.2727
 8154TIP3    H148657   6.763   0.682   5.222  0.6834 -0.9531  0.1427
 8154TIP3    H248658   6.701   0.664   5.086 -1.9566  2.4517  0.7792
 8155TIP3   OH248659   2.095   3.930   5.262 -0.0093  0.1184 -0.5499
 8155TIP3    H148660   2.131   3.984   5.192  0.1875 -0.1590 -0.6705
 8155TIP3    H248661   2.027   3.983   5.302  0.1448  0.4310 -0.6991
 8156TIP3   OH248662   0.505   5.300   5.381 -0.2714 -0.1669  0.4150
 8156TIP3    H148663   0.600   5.307   5.384 -0.0883 -2.2688  1.2424
 8156TIP3    H248664   0.487   5.207   5.398 -2.4016 -0.2230 -1.6046
 8157TIP3   OH248665   7.325   4.602   5.169  0.1738  0.0769 -0.2090
 8157TIP3    H148666   7.308   4.569   5.257  0.9527  1.6138  0.5572
 8157TIP3    H248667   7.361   4.526   5.122  0.5842 -0.5487  1.0528
 8158TIP3   OH248668   5.931   1.255   6.348  0.4719  0.0487 -0.2809
 8158TIP3    H148669   6.012   1.219   6.312 -0.2130 -1.6266 -0.2341
 8158TIP3    H248670   5.868   1.247   6.277  0.1666  0.7218 -0.0924
 8159TIP3   OH248671   3.313   1.725   5.007 -0.0261 -0.6319  0.3936
 8159TIP3    H148672   3.283   1.770   4.928 -1.7019 -1.9419  0.2331
 8159TIP3    H248673   3.282   1.780   5.079 -1.1595 -0.9539  0.1759
 8160TIP3   OH248674   0.676   4.651   4.966 -0.0022  0.2369 -0.3706
 8160TIP3    H148675   0.608   4.587   4.945  0.1959 -0.2077  0.3037
 8160TIP3    H248676   0.708   4.624   5.052  0.5678  0.8347 -0.3895
 8161TIP3   OH248677   8.049   7.634   5.908  0.4562  0.5945  0.3758
 8161TIP3    H148678   7.994   7.622   5.985  2.2518  0.0840  1.6330
 8161TIP3    H248679   8.106   7.708   5.930  1.7356 -0.2589  0.0103
 8162TIP3   OH248680   7.816   9.089   5.750 -0.2848  0.1676  0.5876
 8162TIP3    H148681   7.862   9.109   5.668  1.6239 -1.5278  1.1577
 8162TIP3    H248682   7.854   9.149   5.814  0.0700 -0.2301  0.7519
 8163TIP3   OH248683   3.898   3.141   6.052 -0.5006  0.1753 -0.1987
 8163TIP3    H148684   3.987   3.106   6.050 -0.3510  0.4785  0.9780
 8163TIP3    H248685   3.845   3.072   6.091 -0.5054  0.5937  0.5461
 8164TIP3   OH248686   8.150   1.812   6.476  0.2328 -0.2393 -0.0713
 8164TIP3    H148687   8.057   1.808   6.450  1.2407 -1.1996 -4.3789
 8164TIP3    H248688   8.184   1.726   6.455  2.3923  0.5162  0.1503
 8165TIP3   OH248689   6.033   7.087   5.493 -0.2351 -0.1496  0.1785
 8165TIP3    H148690   6.042   7.180   5.472 -1.9341  0.3528  1.4616
 8165TIP3    H248691   5.984   7.050   5.420  0.0005  0.0780 -0.0944
 8166TIP3   OH248692   4.631   7.663   4.872  0.5200 -0.6925 -0.2628
 8166TIP3    H148693   4.719   7.684   4.904  1.3553  0.1381 -2.8189
 8166TIP3    H248694   4.579   7.741   4.892  0.7445 -0.6082 -0.0028
 8167TIP3   OH248695   2.556   7.022   4.890  0.6393 -0.2829  0.0557
 8167TIP3    H148696   2.502   6.963   4.836  1.6196 -2.4578  1.3131
 8167TIP3    H248697   2.624   7.053   4.831  1.8976 -2.8987 -0.0145
 8168TIP3   OH248698   3.582   5.182   5.310 -0.0738  0.4107  0.2358
 8168TIP3    H148699   3.542   5.105   5.351 -0.0237 -0.0478 -0.5564
 8168TIP3    H248700   3.676   5.168   5.318 -0.0176 -0.6784 -1.7795
 8169TIP3   OH248701   6.195   4.287   5.185 -0.4850  0.3070 -0.4087
 8169TIP3    H148702   6.139   4.209   5.173  1.5714 -1.2438 -0.4405
 8169TIP3    H248703   6.171   4.345   5.113 -1.4226 -0.6947 -0.9334
 8170TIP3   OH248704   2.107   1.897   6.333 -0.1770 -0.2878  0.1894
 8170TIP3    H148705   2.065   1.894   6.247 -1.5747 -1.5071  0.8776
 8170TIP3    H248706   2.097   1.809   6.368  4.0880 -1.0746 -0.0470
 8171TIP3   OH248707   2.525   4.975   5.384  0.1152  0.6933 -0.7121
 8171TIP3    H148708   2.552   5.059   5.346  2.8993  0.6974  0.9608
 8171TIP3    H248709   2.556   4.979   5.474 -2.4549 -0.9621  0.3460
 8172TIP3   OH248710   8.171   0.064   5.709 -0.4278 -0.2435  0.1083
 8172TIP3    H148711   8.183  -0.029   5.728 -0.6316 -0.3091 -0.0818
 8172TIP3    H248712   8.232   0.082   5.637 -2.2579 -0.8559 -1.6810
 8173TIP3   OH248713   5.056   7.950   5.031 -0.1733 -0.0009 -0.3270
 8173TIP3    H148714   5.072   8.044   5.032 -0.9371  0.1526 -1.1834
 8173TIP3    H248715   5.128   7.913   5.083  0.6859  0.9621 -0.7935
 8174TIP3   OH248716   7.491   6.339   6.983  0.0168  0.6781  0.1245
 8174TIP3    H148717   7.443   6.299   6.910 -0.0293 -0.8642  0.9531
 8174TIP3    H248718   7.565   6.280   6.997  0.1495  1.0858  1.1699
 8175TIP3   OH248719   7.047   7.655   6.318 -0.5654  0.2158  0.5942
 8175TIP3    H148720   7.063   7.613   6.234 -2.0802 -1.2336  0.9876
 8175TIP3    H248721   6.968   7.613   6.352 -0.1618  0.9644  2.6189
 8176TIP3   OH248722   0.836   1.132   5.434  0.0697 -0.3462 -0.6038
 8176TIP3    H148723   0.758   1.185   5.448  2.0180  2.9708 -1.0997
 8176TIP3    H248724   0.861   1.102   5.522 -1.5243 -1.2404 -0.4112
 8177TIP3   OH248725   2.048   8.243   5.413 -0.1894 -0.0748 -0.4513
 8177TIP3    H148726   2.036   8.157   5.371 -0.8886  0.4854 -1.4413
 8177TIP3    H248727   2.002   8.304   5.355  1.6463  1.2024 -0.6223
 8178TIP3   OH248728   6.648   2.199   6.322 -0.3394 -0.1063  0.3291
 8178TIP3    H148729   6.706   2.142   6.272 -1.3830 -2.7370  1.8751
 8178TIP3    H248730   6.692   2.209   6.407 -1.0094 -0.1044  0.6817
 8179TIP3   OH248731   8.386   1.028   5.017 -0.0857 -0.8145 -0.7522
 8179TIP3    H148732   8.363   0.956   4.957  0.5706 -0.9748 -0.8161
 8179TIP3    H248733   8.476   1.050   4.995  0.0027 -0.5501 -0.1416
 8180TIP3   OH248734   0.669   8.364   5.021 -0.0904  0.1032  0.0288
 8180TIP3    H148735   0.686   8.442   4.969 -0.4782 -0.4641 -0.9637
 8180TIP3    H248736   0.755   8.325   5.035  0.0997  0.6660  0.4919
 8181TIP3   OH248737   6.453   1.436   6.044  0.0443  0.6664  0.4322
 8181TIP3    H148738   6.382   1.461   5.985  0.6789  0.4638 -0.4398
 8181TIP3    H248739   6.455   1.507   6.109 -2.3924 -0.4301  1.8458
 8182TIP3   OH248740   4.385   1.362   6.354  0.1213  0.1904 -0.7374
 8182TIP3    H148741   4.448   1.410   6.406  0.7700 -1.7990  0.4428
 8182TIP3    H248742   4.304   1.365   6.404 -0.0863  0.8066 -1.1094
 8183TIP3   OH248743   6.382   4.733   5.490 -0.3791  0.2449  0.0165
 8183TIP3    H148744   6.455   4.673   5.507  0.5012  1.0405 -0.7936
 8183TIP3    H248745   6.362   4.771   5.575 -1.2222 -1.4486  0.6324
 8184TIP3   OH248746   5.427   7.477   6.250 -0.0651 -0.2462 -0.3857
 8184TIP3    H148747   5.347   7.496   6.300 -0.4613 -1.4134 -0.5450
 8184TIP3    H248748   5.493   7.459   6.316 -0.9168 -3.1428 -0.1934
 8185TIP3   OH248749   7.261   0.846   6.305  0.1917 -0.6301 -0.1603
 8185TIP3    H148750   7.247   0.928   6.257  0.0257 -0.6779 -0.1951
 8185TIP3    H248751   7.281   0.782   6.237 -2.3484 -1.2341 -0.4363
 8186TIP3   OH248752   8.657   0.794   6.358 -1.1364 -0.5579 -0.3260
 8186TIP3    H148753   8.575   0.751   6.334 -1.6991  0.6146 -0.5843
 8186TIP3    H248754   8.645   0.820   6.449 -1.0679 -0.3575 -0.3737
 8187TIP3   OH248755   1.403   4.631   5.061  0.1275  0.6052 -0.0364
 8187TIP3    H148756   1.312   4.646   5.035 -0.1271  0.5845  0.8330
 8187TIP3    H248757   1.411   4.670   5.148  0.6665 -0.3017  0.3357
 8188TIP3   OH248758   1.215   7.062   4.682  0.3313  0.0621 -0.1647
 8188TIP3    H148759   1.142   7.028   4.629  1.3381 -0.3176 -1.3503
 8188TIP3    H248760   1.251   6.985   4.726 -1.5842  0.5909  2.5754
 8189TIP3   OH248761   0.768   5.045   5.358  0.2795 -0.3851  0.3846
 8189TIP3    H148762   0.805   5.004   5.436  2.3849  0.4055 -0.1364
 8189TIP3    H248763   0.827   5.118   5.338 -1.3725  0.7285 -0.7543
 8190TIP3   OH248764   2.001   0.066   6.784  0.6407  0.5801 -0.1746
 8190TIP3    H148765   1.951  -0.005   6.743  0.5514  0.0183  0.8760
 8190TIP3    H248766   2.040   0.026   6.862  0.6463  1.6715  0.4002
 8191TIP3   OH248767   3.681   2.695   5.429  0.2420 -0.2317  0.1128
 8191TIP3    H148768   3.749   2.628   5.427  1.4116  0.9260 -0.2642
 8191TIP3    H248769   3.656   2.702   5.521  2.2804  0.8826  0.6388
 8192TIP3   OH248770   0.776   2.789   5.867  0.0062  0.1859  0.1978
 8192TIP3    H148771   0.712   2.769   5.798  0.6272 -0.3858 -0.2334
 8192TIP3    H248772   0.820   2.705   5.882 -1.4661 -0.2217  2.7279
 8193TIP3   OH248773   1.494   7.534   5.085  0.2526 -0.1316 -0.4994
 8193TIP3    H148774   1.415   7.580   5.113 -0.2499 -1.5004  0.4463
 8193TIP3    H248775   1.468   7.442   5.082  2.2630 -0.8824  1.7765
 8194TIP3   OH248776   9.198   1.830   6.253 -0.3509  0.6538  0.6516
 8194TIP3    H148777   9.119   1.877   6.225  0.8641  1.8711 -0.9262
 8194TIP3    H248778   9.202   1.753   6.198 -1.1152 -0.1243  1.6520
 8195TIP3   OH248779   9.116   6.415   5.632  0.4802 -0.3182  0.7528
 8195TIP3    H148780   9.170   6.428   5.554  3.1468  0.5732  2.6161
 8195TIP3    H248781   9.070   6.498   5.643  1.7750  0.3588  1.2776
 8196TIP3   OH248782   7.718   3.784   6.604 -0.6383 -0.1355 -0.1338
 8196TIP3    H148783   7.805   3.791   6.644 -1.4965  0.1465  1.8220
 8196TIP3    H248784   7.674   3.865   6.629 -1.6027 -0.4629 -0.7292
 8197TIP3   OH248785   3.696   3.501   6.476  0.5295 -0.3332 -0.7788
 8197TIP3    H148786   3.650   3.417   6.463 -0.3757  0.0182  0.0053
 8197TIP3    H248787   3.629   3.567   6.461  1.5073  0.3297 -2.5170
 8198TIP3   OH248788   8.774   7.665   6.541  0.1159  0.4373 -0.3822
 8198TIP3    H148789   8.806   7.668   6.451  1.3699  0.8537  0.0521
 8198TIP3    H248790   8.841   7.615   6.588 -0.5305  0.2216  0.3234
 8199TIP3   OH248791   6.232   3.902   5.252 -0.4085  0.1264  0.0111
 8199TIP3    H148792   6.290   3.972   5.284  1.0788 -0.5274 -1.1113
 8199TIP3    H248793   6.185   3.873   5.330  0.9895  0.5107  1.0493
 8200TIP3   OH248794   3.822   1.411   5.738 -0.3261 -0.4906  0.2404
 8200TIP3    H148795   3.797   1.336   5.685 -0.3321  1.8267 -3.3608
 8200TIP3    H248796   3.741   1.439   5.780 -0.6925 -1.3894  0.1448
 8201TIP3   OH248797   1.978   1.961   5.517 -0.2067 -0.3608 -0.2719
 8201TIP3    H148798   2.004   1.897   5.451  0.3148 -0.7030  0.2606
 8201TIP3    H248799   2.013   1.927   5.599 -0.9002  0.0293  0.1970
 8202TIP3   OH248800   7.152   6.867   6.407  0.2416 -0.2532 -0.4866
 8202TIP3    H148801   7.241   6.832   6.405  0.4067  0.1617 -0.3883
 8202TIP3    H248802   7.109   6.817   6.477  0.5706 -0.0372 -0.1251
 8203TIP3   OH248803   7.845   3.932   6.358 -0.3584  0.2906 -0.1128
 8203TIP3    H148804   7.850   3.989   6.434  0.5718 -0.5351  0.4658
 8203TIP3    H248805   7.922   3.954   6.305  0.8056 -1.3346  0.8058
 8204TIP3   OH248806   1.718   7.309   4.737  0.0096  0.4805  0.6783
 8204TIP3    H148807   1.737   7.403   4.727  1.0643  0.0164 -2.8516
 8204TIP3    H248808   1.630   7.298   4.700  0.0675 -0.0151  0.6839
 8205TIP3   OH248809   6.911   4.364   5.777  0.3489  0.2954  0.7363
 8205TIP3    H148810   6.824   4.379   5.814 -0.7607 -1.4972 -0.9743
 8205TIP3    H248811   6.952   4.301   5.836 -0.6051 -0.9422  0.1290
 8206TIP3   OH248812   4.884   2.306   5.461  0.3285  0.7991  0.1338
 8206TIP3    H148813   4.879   2.238   5.528  1.2624  0.9633  0.3841
 8206TIP3    H248814   4.966   2.351   5.479  0.4566  1.0232 -0.9586
 8207TIP3   OH248815   7.899   7.688   7.304  0.6784  0.2385 -0.3419
 8207TIP3    H148816   7.866   7.754   7.243 -1.5258  0.8394  1.3482
 8207TIP3    H248817   7.844   7.611   7.289  0.6244  0.1348  0.3331
 8208TIP3   OH248818   8.671   0.787   6.004 -0.1040  0.1653  0.6185
 8208TIP3    H148819   8.738   0.761   5.940  0.1249 -0.3376  1.0532
 8208TIP3    H248820   8.632   0.704   6.032 -0.6075  0.4264  0.6945
 8209TIP3   OH248821   7.758   7.887   7.132  0.0380 -0.1214 -0.3705
 8209TIP3    H148822   7.670   7.859   7.105 -0.3338 -0.3067  0.9532
 8209TIP3    H248823   7.751   7.982   7.142 -0.5528 -0.3022  1.4316
 8210TIP3   OH248824   5.514   3.355   5.077  0.6327  0.0470  0.3126
 8210TIP3    H148825   5.486   3.413   5.006  0.8601 -1.4779 -1.0921
 8210TIP3    H248826   5.435   3.309   5.103  0.5136  0.7425  1.2001
 8211TIP3   OH248827   6.070   4.171   6.047 -0.3048  0.2871  0.4315
 8211TIP3    H148828   6.128   4.193   6.120 -0.3587  0.9100  0.2974
 8211TIP3    H248829   6.009   4.245   6.042  0.1547  0.6137 -0.6953
 8212TIP3   OH248830   2.777   6.833   5.396  0.0111  0.1637 -0.2697
 8212TIP3    H148831   2.777   6.827   5.301 -0.8987  2.3822 -0.4606
 8212TIP3    H248832   2.699   6.884   5.417 -0.0042 -0.5894  1.7076
 8213TIP3   OH248833   0.079   4.624   4.956  0.1891  0.0970 -0.4241
 8213TIP3    H148834   0.073   4.540   4.910 -1.3626  1.0904 -2.2136
 8213TIP3    H248835   0.108   4.685   4.888  0.6863  1.1239  0.6851
 8214TIP3   OH248836   5.612   7.150   6.385  0.2833 -0.5917  0.2956
 8214TIP3    H148837   5.541   7.183   6.440  2.0224 -0.4780  2.5888
 8214TIP3    H248838   5.683   7.130   6.446  3.3855  2.0929 -2.0852
 8215TIP3   OH248839   5.549   0.292   5.126  0.0155  0.4450 -0.5660
 8215TIP3    H148840   5.614   0.354   5.161 -1.7680  2.6270 -0.8952
 8215TIP3    H248841   5.599   0.211   5.111  1.7899  0.7447  2.8576
 8216TIP3   OH248842   3.242   0.206   6.128  0.6282 -0.5787 -0.1524
 8216TIP3    H148843   3.259   0.125   6.176  1.2980 -1.7141 -2.2082
 8216TIP3    H248844   3.154   0.194   6.092 -0.5494  0.9493  2.0005
 8217TIP3   OH248845   3.533   2.486   5.024 -0.1944  0.1742  0.7960
 8217TIP3    H148846   3.613   2.464   5.071 -0.3418 -0.5904  0.6977
 8217TIP3    H248847   3.555   2.564   4.973  0.1357  0.6650  1.6796
 8218TIP3   OH248848   4.949   3.898   5.286 -0.6409 -0.0055 -0.0922
 8218TIP3    H148849   5.020   3.839   5.260  1.9735  2.3819  1.1174
 8218TIP3    H248850   4.949   3.894   5.381 -2.2711 -0.0400 -0.0734
 8219TIP3   OH248851   4.142   0.145   6.664 -0.1624  0.1836  0.1209
 8219TIP3    H148852   4.083   0.072   6.647  0.3960 -0.0916 -0.6582
 8219TIP3    H248853   4.224   0.120   6.624  0.9808 -0.1173  2.4666
 8220TIP3   OH248854   3.200   0.787   5.924  0.1880 -0.0716 -0.1597
 8220TIP3    H148855   3.134   0.728   5.958  0.9059 -0.3032  0.8635
 8220TIP3    H248856   3.283   0.755   5.960  0.6751  1.1133 -0.1699
 8221TIP3   OH248857   0.966   6.842   5.263  0.0112  0.2668 -0.4269
 8221TIP3    H148858   0.894   6.880   5.212  0.9721  0.5369 -1.6529
 8221TIP3    H248859   0.940   6.751   5.278  0.0139 -0.0514 -2.1082
 8222TIP3   OH248860   7.223   6.522   6.365  0.6538 -0.1238 -0.2369
 8222TIP3    H148861   7.273   6.447   6.335  0.6359 -1.3922  2.5721
 8222TIP3    H248862   7.288   6.589   6.384  1.0433 -0.7535  0.6962
 8223TIP3   OH248863   8.091   8.603   7.073 -0.2731 -0.3076 -0.0627
 8223TIP3    H148864   8.163   8.544   7.051 -0.8228 -0.9801 -0.0943
 8223TIP3    H248865   8.014   8.547   7.073 -1.1267  0.7912 -2.0978
 8224TIP3   OH248866   6.417   3.087   5.792 -0.0260  0.1091 -0.1084
 8224TIP3    H148867   6.433   3.117   5.702  0.8021  2.4966  0.7607
 8224TIP3    H248868   6.366   3.158   5.831 -0.7292 -1.0923  1.2066
 8225TIP3   OH248869   3.344   3.034   4.977  0.2697 -0.0830 -0.5066
 8225TIP3    H148870   3.292   2.956   4.960  0.3615 -0.0287 -1.0496
 8225TIP3    H248871   3.307   3.070   5.057 -0.3362 -0.2093 -0.7250
 8226TIP3   OH248872   2.107   0.322   5.758  0.2099 -0.3264 -0.3178
 8226TIP3    H148873   2.182   0.375   5.785  0.1885 -0.9448  1.0781
 8226TIP3    H248874   2.145   0.248   5.711  0.7906 -2.0195  2.5891
 8227TIP3   OH248875   0.075   7.176   5.445  0.5313  0.2738 -0.4328
 8227TIP3    H148876   0.133   7.212   5.512 -1.7274  1.0774  1.2163
 8227TIP3    H248877   0.110   7.088   5.429  1.5516  0.3072  1.3010
 8228TIP3   OH248878   0.584   9.110   6.403 -0.3395 -0.3727  0.4241
 8228TIP3    H148879   0.653   9.169   6.433 -0.0413 -1.5146  2.1322
 8228TIP3    H248880   0.503   9.150   6.435 -0.0676 -1.2755  2.3803
 8229TIP3   OH248881   4.073   4.183   5.570 -0.0776  0.0784 -0.3964
 8229TIP3    H148882   4.114   4.215   5.490  1.0270 -1.9331 -0.7234
 8229TIP3    H248883   4.146   4.170   5.630 -0.7940  0.7051  0.6423
 8230TIP3   OH248884   1.234   0.565   6.067  0.0917  0.1341  0.4160
 8230TIP3    H148885   1.208   0.646   6.111  1.1846  0.2583  0.8698
 8230TIP3    H248886   1.219   0.497   6.132 -2.5926 -0.3335 -0.5761
 8231TIP3   OH248887   6.073   3.431   6.542  0.1758  0.1906  0.3570
 8231TIP3    H148888   6.064   3.482   6.461 -0.7402  0.5203  0.6632
 8231TIP3    H248889   6.073   3.496   6.612  0.0125 -0.1568  0.6852
 8232TIP3   OH248890   8.713   2.456   6.781  0.3042 -0.1864  0.1534
 8232TIP3    H148891   8.753   2.374   6.752  1.0379  0.4303 -0.6618
 8232TIP3    H248892   8.783   2.521   6.771 -0.1490  0.4748  1.1459
 8233TIP3   OH248893   6.245   0.169   5.330 -0.0389  0.1922  0.4087
 8233TIP3    H148894   6.161   0.125   5.345  0.3892 -1.1672 -0.9257
 8233TIP3    H248895   6.288   0.166   5.415 -0.5816 -0.8181  0.6675
 8234TIP3   OH248896   0.998   5.948   5.732 -0.2312 -0.3841  0.4542
 8234TIP3    H148897   0.987   5.983   5.820  0.1335  0.2470  0.2593
 8234TIP3    H248898   1.084   5.978   5.705  0.2182 -1.6924  0.3755
 8235TIP3   OH248899   1.287   3.342   6.416  0.0419  0.3054  0.1011
 8235TIP3    H148900   1.376   3.361   6.386  0.0729 -2.2153 -1.6595
 8235TIP3    H248901   1.231   3.369   6.344 -0.1675 -2.5608 -0.9178
 8236TIP3   OH248902   7.000   5.163   5.613  0.0015 -0.3409  0.1247
 8236TIP3    H148903   6.915   5.207   5.615  0.1935  0.0091  0.7320
 8236TIP3    H248904   7.049   5.210   5.546  0.8331  1.5993  1.9537
 8237TIP3   OH248905   2.742   0.576   5.403 -0.2925  0.4364 -0.1573
 8237TIP3    H148906   2.746   0.481   5.391  0.8564  0.3434  0.8642
 8237TIP3    H248907   2.821   0.609   5.361 -1.3407  1.1199 -1.7202
 8238TIP3   OH248908   4.718   5.950   5.822  0.1950 -0.1312  0.0236
 8238TIP3    H148909   4.717   5.864   5.864 -2.0025 -0.4316 -0.5092
 8238TIP3    H248910   4.753   6.009   5.889 -1.6286 -0.8732  1.7541
 8239TIP3   OH248911   0.334   5.242   4.954  0.0216  0.2239 -0.2030
 8239TIP3    H148912   0.413   5.290   4.931 -0.5874  0.2561 -2.5062
 8239TIP3    H248913   0.358   5.150   4.945  0.4617  0.1233  1.6362
 8240TIP3   OH248914   7.988   5.094   6.016 -0.5744 -0.2445  0.2067
 8240TIP3    H148915   7.997   5.176   5.968 -2.0060  0.4287  1.0231
 8240TIP3    H248916   8.004   5.117   6.107 -0.4636 -0.9774  0.3810
 8241TIP3   OH248917   2.051   2.980   6.302  0.6477 -0.6115 -0.0468
 8241TIP3    H148918   1.983   2.926   6.263  0.6280 -0.4527 -0.2343
 8241TIP3    H248919   2.121   2.981   6.237  0.5192 -0.1541 -0.1842
 8242TIP3   OH248920   6.053   0.680   6.542  0.4864 -0.7504  0.2107
 8242TIP3    H148921   5.958   0.677   6.557  0.3538  0.7045 -0.1753
 8242TIP3    H248922   6.077   0.770   6.563  1.4260 -0.5144 -1.6962
 8243TIP3   OH248923   4.772   4.803   6.644 -0.2940  0.1745 -0.4211
 8243TIP3    H148924   4.844   4.759   6.598 -0.1258 -0.6762  0.6254
 8243TIP3    H248925   4.803   4.893   6.657  1.6706 -0.7556  2.1457
 8244TIP3   OH248926   3.472   5.724   7.025  0.2278 -0.3719 -0.5222
 8244TIP3    H148927   3.486   5.632   7.049 -0.7839 -0.3278  0.3159
 8244TIP3    H248928   3.561   5.760   7.016  0.6531 -1.0516  0.6708
 8245TIP3   OH248929   6.637   4.187   4.825  0.0883 -0.6423  0.5451
 8245TIP3    H148930   6.608   4.220   4.740  0.5940  0.4990  0.7964
 8245TIP3    H248931   6.557   4.159   4.869 -0.1495 -1.5095 -0.4040
 8246TIP3   OH248932   1.848   3.657   5.473 -1.0230  0.2048  0.0119
 8246TIP3    H148933   1.863   3.747   5.499  0.1031 -0.0551  0.3378
 8246TIP3    H248934   1.886   3.650   5.386 -1.8052  0.2337 -0.3393
 8247TIP3   OH248935   2.440   3.157   5.790 -0.0756 -0.0304 -0.7990
 8247TIP3    H148936   2.400   3.070   5.790 -0.0905 -0.0239 -0.6456
 8247TIP3    H248937   2.529   3.142   5.758 -0.0692 -0.1070 -0.7471
 8248TIP3   OH248938   5.384   4.639   5.293  0.5692 -0.3156  0.3119
 8248TIP3    H148939   5.358   4.631   5.201 -1.6256 -1.7366  0.9846
 8248TIP3    H248940   5.331   4.710   5.327  1.8175  0.6219  0.3942
 8249TIP3   OH248941   6.095   8.186   6.378  0.1175  0.1030  0.3759
 8249TIP3    H148942   6.018   8.168   6.325  0.8953 -1.4506 -0.2628
 8249TIP3    H248943   6.083   8.134   6.457  1.4326 -1.8320 -0.6164
 8250TIP3   OH248944   3.494   5.427   6.249 -0.7137 -0.8053  1.0581
 8250TIP3    H148945   3.546   5.377   6.185 -0.0800  0.4343  0.5793
 8250TIP3    H248946   3.468   5.361   6.314  1.1718 -1.5501  1.1313
 8251TIP3   OH248947   3.007   7.137   6.217  0.0326  0.2855 -0.2196
 8251TIP3    H148948   3.088   7.174   6.253 -1.3815  2.5891  0.8510
 8251TIP3    H248949   2.991   7.059   6.270  0.5559  0.9159  0.9156
 8252TIP3   OH248950   2.413   8.573   5.954 -0.1000  0.2224  0.6000
 8252TIP3    H148951   2.372   8.503   6.004 -0.9197  1.6103  1.9755
 8252TIP3    H248952   2.368   8.653   5.982  0.7190  1.3031 -0.9790
 8253TIP3   OH248953   6.290   6.005   6.115 -0.3485 -0.2727 -0.1679
 8253TIP3    H148954   6.383   5.985   6.110  0.0005  1.3850 -0.8491
 8253TIP3    H248955   6.286   6.098   6.135 -1.8904 -0.7614  2.3078
 8254TIP3   OH248956   6.575   3.085   5.267  0.3513 -0.5624  0.7796
 8254TIP3    H148957   6.641   3.153   5.251  0.1329  0.0384  2.3008
 8254TIP3    H248958   6.541   3.065   5.180  1.1850  0.5027  0.1771
 8255TIP3   OH248959   3.233   9.186   6.311  0.4383 -0.0515  0.7815
 8255TIP3    H148960   3.196   9.117   6.257 -1.1885  1.4311 -0.1297
 8255TIP3    H248961   3.308   9.146   6.354  0.0882 -2.0962 -0.3837
 8256TIP3   OH248962   2.347   2.079   5.062  0.0989 -0.4245  0.2522
 8256TIP3    H148963   2.426   2.060   5.011 -1.1869 -1.4113 -1.4664
 8256TIP3    H248964   2.360   2.033   5.145  1.0427 -1.1471 -0.2745
 8257TIP3   OH248965   8.766   5.946   5.984 -0.3681 -0.2285  0.1703
 8257TIP3    H148966   8.844   5.906   6.022 -0.1911  0.1107  0.1722
 8257TIP3    H248967   8.785   5.950   5.890  0.9408  2.5777  0.4150
 8258TIP3   OH248968   1.841   6.483   5.559 -0.0553  0.0216 -0.1501
 8258TIP3    H148969   1.763   6.534   5.535  0.3273  1.1955  0.9804
 8258TIP3    H248970   1.819   6.393   5.536 -1.6014  0.3841 -0.1971
 8259TIP3   OH248971   0.267   1.970   5.115  0.3168  0.9466  0.2814
 8259TIP3    H148972   0.226   1.915   5.048 -0.7237  1.7766  0.2155
 8259TIP3    H248973   0.245   2.060   5.089 -0.4211  1.2803  1.9276
 8260TIP3   OH248974   2.114   7.579   6.025 -0.0747  0.5191  0.0197
 8260TIP3    H148975   2.170   7.657   6.021  0.3182  0.2940  0.8412
 8260TIP3    H248976   2.139   7.527   5.949  0.9279  0.3622  0.4455
 8261TIP3   OH248977   3.994   6.577   5.182  0.4013 -0.2493  0.0785
 8261TIP3    H148978   3.989   6.484   5.203 -0.1123 -0.1851  0.2510
 8261TIP3    H248979   4.020   6.619   5.264  1.4010 -0.3138 -0.1887
 8262TIP3   OH248980   6.596   8.593   6.054  0.0496  0.1346 -0.1460
 8262TIP3    H148981   6.592   8.649   6.131 -0.9332  0.4263 -0.4004
 8262TIP3    H248982   6.666   8.632   6.000 -0.2105  0.7574 -0.0383
 8263TIP3   OH248983   1.372   4.019   5.593 -0.1409  0.0747  0.1203
 8263TIP3    H148984   1.455   4.003   5.547 -0.3632 -1.1895  0.1010
 8263TIP3    H248985   1.396   4.017   5.686  0.0186  0.7905  0.0956
 8264TIP3   OH248986   0.536   4.089   5.011  0.3429 -0.4775  0.1419
 8264TIP3    H148987   0.577   4.102   5.097  0.5547 -1.3125  0.1707
 8264TIP3    H248988   0.513   3.997   5.009  2.0821 -0.9332 -1.4393
 8265TIP3   OH248989   0.220   7.725   5.091 -0.0472 -0.1011  0.7049
 8265TIP3    H148990   0.176   7.673   5.023  2.4202 -0.1970 -0.9356
 8265TIP3    H248991   0.244   7.806   5.048  1.2367  0.0075  1.5593
 8266TIP3   OH248992   6.847   7.341   5.717 -0.6225  0.1722  0.6185
 8266TIP3    H148993   6.780   7.303   5.660 -1.2235  0.4561  1.1245
 8266TIP3    H248994   6.854   7.432   5.688  1.7713 -0.5485 -1.4950
 8267TIP3   OH248995   4.330   4.374   6.214  0.5453  0.5174 -0.6369
 8267TIP3    H148996   4.240   4.388   6.187  0.3250  1.0821  0.3278
 8267TIP3    H248997   4.352   4.287   6.182 -0.4822  0.2062 -0.5219
 8268TIP3   OH248998   5.046   4.167   5.596  0.3886  0.1718  0.2868
 8268TIP3    H148999   5.111   4.194   5.530  0.5050 -2.2932 -0.7446
 8268TIP3    H249000   5.094   4.168   5.679  0.8398  1.3454  0.0285
 8269TIP3   OH249001   4.968   0.896   5.931  0.3408 -0.7616 -0.2292
 8269TIP3    H149002   5.025   0.822   5.951  0.6415 -0.3904  0.3040
 8269TIP3    H249003   4.971   0.951   6.009  0.5234  0.0751 -0.8079
 8270TIP3   OH249004   1.490   4.930   6.907 -0.3023  0.4343  0.0581
 8270TIP3    H149005   1.455   4.861   6.851  2.8027 -0.5888 -0.8245
 8270TIP3    H249006   1.543   4.985   6.848  2.4675 -0.2404  1.7048
 8271TIP3   OH249007   3.594   6.661   5.851  0.4423  0.4763 -0.1915
 8271TIP3    H149008   3.583   6.653   5.946  1.3833  2.4486  0.1316
 8271TIP3    H249009   3.505   6.655   5.816  0.1192 -0.5899  0.7751
 8272TIP3   OH249010   2.025   4.404   6.006 -0.0945 -0.4092 -0.1611
 8272TIP3    H149011   2.029   4.313   6.033  1.0643 -0.0489  1.0057
 8272TIP3    H249012   2.055   4.404   5.915  1.6488 -1.0247  0.3666
 8273TIP3   OH249013   8.829   6.380   6.735 -0.6867  0.6843 -0.3827
 8273TIP3    H149014   8.833   6.314   6.804 -1.7249 -0.2949 -1.2204
 8273TIP3    H249015   8.914   6.374   6.691 -1.3694 -1.4035 -1.5656
 8274TIP3   OH249016   4.445   8.593   5.073  0.1032 -0.0523 -0.0013
 8274TIP3    H149017   4.521   8.577   5.130  0.0125 -0.2470  0.0640
 8274TIP3    H249018   4.427   8.687   5.085  1.0325  0.2563 -0.8792
 8275TIP3   OH249019   1.856   7.082   6.167  0.0535  0.4933 -0.3871
 8275TIP3    H149020   1.837   7.100   6.075 -0.6057 -0.8827 -0.5475
 8275TIP3    H249021   1.941   7.037   6.166  0.0966  0.5727 -0.3132
 8276TIP3   OH249022   2.752   1.392   5.218 -0.4322 -0.0268  0.5423
 8276TIP3    H149023   2.817   1.462   5.222  0.5200 -0.9451  1.5147
 8276TIP3    H249024   2.788   1.329   5.156  0.3190 -1.2048  2.1236
 8277TIP3   OH249025   9.161   3.052   6.029 -0.0436  0.5971 -0.3411
 8277TIP3    H149026   9.082   3.024   5.983 -0.5466 -0.6253  1.1903
 8277TIP3    H249027   9.139   3.137   6.067 -1.2800 -0.4888  1.5095
 8278TIP3   OH249028   6.994   8.128   5.024 -0.9879  0.0740  0.1275
 8278TIP3    H149029   7.076   8.084   5.002 -0.7251 -0.1559  1.4811
 8278TIP3    H249030   6.967   8.088   5.106 -1.5468  1.3670  0.5997
 8279TIP3   OH249031   0.520   5.555   5.533 -0.3261  0.4083 -0.3245
 8279TIP3    H149032   0.597   5.594   5.492 -0.7325  0.6392 -0.8898
 8279TIP3    H249033   0.501   5.478   5.478  0.1967 -0.3311  0.5088
 8280TIP3   OH249034   8.210   0.534   6.143 -0.4738  0.1010 -0.5458
 8280TIP3    H149035   8.266   0.548   6.067 -1.4210  0.7990 -1.1502
 8280TIP3    H249036   8.259   0.474   6.199  0.8816  0.7169 -1.0208
 8281TIP3   OH249037   7.804   3.547   6.698 -0.3182 -0.4853  0.2849
 8281TIP3    H149038   7.783   3.484   6.630 -0.8027 -1.2988  1.1716
 8281TIP3    H249039   7.760   3.627   6.671 -0.6680 -0.8537 -0.2497
 8282TIP3   OH249040   6.517   0.457   6.637  0.3178  0.6719 -0.2194
 8282TIP3    H149041   6.424   0.471   6.655 -0.2356 -2.7029  0.2946
 8282TIP3    H249042   6.562   0.524   6.688 -1.7475  0.1552  2.4816
 8283TIP3   OH249043   4.890   2.137   6.004 -0.1232  0.2545  0.2324
 8283TIP3    H149044   4.861   2.104   6.089 -0.5461  0.3854  0.1415
 8283TIP3    H249045   4.985   2.146   6.013 -0.3811  2.4920  1.4890
 8284TIP3   OH249046   4.757   6.082   6.080 -0.3770  0.1517 -0.3004
 8284TIP3    H149047   4.813   6.118   6.148 -1.6563  0.3912  0.6668
 8284TIP3    H249048   4.748   6.152   6.016  1.2914 -0.2669 -1.0543
 8285TIP3   OH249049   3.489   7.855   6.765 -0.1022 -0.0632  0.1450
 8285TIP3    H149050   3.573   7.880   6.725  0.7694 -3.3958 -0.3700
 8285TIP3    H249051   3.423   7.900   6.713  1.2555  0.2160 -1.3919
 8286TIP3   OH249052   4.004   7.705   6.940  0.2251  0.0607 -0.1928
 8286TIP3    H149053   3.940   7.760   6.894  0.1045 -0.3081 -0.4749
 8286TIP3    H249054   4.089   7.744   6.920  0.0368  1.0108  0.8116
 8287TIP3   OH249055   1.409   8.827   5.759  0.5809 -0.3349 -0.2869
 8287TIP3    H149056   1.473   8.798   5.695  2.4691 -0.8328  1.7351
 8287TIP3    H249057   1.344   8.875   5.707  1.6053 -1.3263 -2.6341
 8288TIP3   OH249058   8.268   0.604   5.535 -0.4940  0.9361 -0.1881
 8288TIP3    H149059   8.335   0.633   5.597 -1.6836 -2.2541  2.9713
 8288TIP3    H249060   8.200   0.672   5.540  0.3550  1.7704  0.3591
 8289TIP3   OH249061   2.097   6.595   6.553 -0.1133 -0.0411 -0.2795
 8289TIP3    H149062   2.167   6.628   6.611  0.6005 -1.5980 -0.2028
 8289TIP3    H249063   2.073   6.511   6.591 -1.8876  0.3539 -0.4654
 8290TIP3   OH249064   3.277   8.572   6.487  0.2733  0.9267  0.2468
 8290TIP3    H149065   3.183   8.566   6.507  0.1190  0.5525 -0.5212
 8290TIP3    H249066   3.317   8.606   6.567 -0.0136 -2.2580  1.9117
 8291TIP3   OH249067   6.409   8.820   5.779 -0.0442 -0.7615  0.3543
 8291TIP3    H149068   6.426   8.849   5.869  0.2668  0.0387  0.0450
 8291TIP3    H249069   6.473   8.867   5.726 -0.3383 -1.1002 -0.3102
 8292TIP3   OH249070   7.353   4.523   5.676 -0.2406 -0.4601  0.7590
 8292TIP3    H149071   7.398   4.478   5.747  0.1833  1.0373  1.4666
 8292TIP3    H249072   7.261   4.498   5.686 -0.3100  0.3004  2.3079
 8293TIP3   OH249073   2.631   7.740   5.023 -0.0918  0.2612  0.2215
 8293TIP3    H149074   2.679   7.763   5.102 -0.4773  0.8110  0.3054
 8293TIP3    H249075   2.611   7.647   5.032  1.7760 -0.2389 -0.2633
 8294TIP3   OH249076   8.120   3.964   4.932  0.5851  0.0507 -0.0825
 8294TIP3    H149077   8.127   3.885   4.879  0.2369  1.2137 -2.0060
 8294TIP3    H249078   8.204   4.008   4.921  1.0443 -0.3593  1.5635
 8295TIP3   OH249079   1.267   5.825   4.901 -0.1733 -0.1301 -0.1102
 8295TIP3    H149080   1.229   5.886   4.964  0.2171  0.4676 -0.4421
 8295TIP3    H249081   1.304   5.754   4.954  0.9052  0.7843  0.4048
 8296TIP3   OH249082   2.698   7.977   6.624 -0.3149  0.8849  0.2408
 8296TIP3    H149083   2.747   8.002   6.545 -0.5573  1.5887  0.3027
 8296TIP3    H249084   2.628   7.920   6.592  0.1912  0.3450  0.0791
 8297TIP3   OH249085   3.488   0.117   6.032  0.0571  0.1192 -0.2378
 8297TIP3    H149086   3.406   0.166   6.039 -1.5906 -2.4370 -0.3864
 8297TIP3    H249087   3.520   0.112   6.121  0.9273  2.4013 -0.3546
 8298TIP3   OH249088   0.743   8.292   6.204 -0.0189  0.1809 -0.2965
 8298TIP3    H149089   0.659   8.249   6.187  0.6433 -1.4090  0.2747
 8298TIP3    H249090   0.805   8.249   6.146  0.3028  1.8920 -1.3095
 8299TIP3   OH249091   8.907   8.203   4.836 -0.0311 -0.3050 -0.4993
 8299TIP3    H149092   8.970   8.135   4.859  1.5147  1.0669 -0.4542
 8299TIP3    H249093   8.840   8.158   4.786  1.8135 -1.5960 -1.9633
 8300TIP3   OH249094   6.938   5.538   6.013  0.4957  0.1707  0.5875
 8300TIP3    H149095   6.990   5.459   6.028  0.2140  0.0397  0.8951
 8300TIP3    H249096   6.856   5.506   5.975 -0.0283  0.2104  1.6538
 8301TIP3   OH249097   0.148   7.603   5.712 -0.7006  0.2393 -0.0162
 8301TIP3    H149098   0.144   7.684   5.661 -1.1402  0.4856  0.4098
 8301TIP3    H249099   0.223   7.615   5.770  0.4919 -0.4887 -1.3485
 8302TIP3   OH249100   0.064   8.695   5.439 -0.1324 -0.4939  0.2199
 8302TIP3    H149101  -0.000   8.690   5.510  1.8769  0.7962  2.2606
 8302TIP3    H249102   0.099   8.606   5.433  1.1682 -0.2030  2.4137
 8303TIP3   OH249103   2.053   1.395   4.947  0.2803  0.2715 -0.7536
 8303TIP3    H149104   2.030   1.328   4.882 -2.8501  1.6454 -1.2416
 8303TIP3    H249105   1.970   1.436   4.970  1.7364  2.2277  1.5308
 8304TIP3   OH249106   0.951   2.224   5.867 -0.7147  0.4450 -0.5969
 8304TIP3    H149107   0.921   2.203   5.778 -2.7860  2.4724 -0.5025
 8304TIP3    H249108   1.015   2.294   5.855 -1.5487  1.2430 -0.4975
 8305TIP3   OH249109   9.130   8.015   4.905 -0.9335 -0.2189 -0.5855
 8305TIP3    H149110   9.194   8.077   4.939 -0.6773 -0.4400 -0.6603
 8305TIP3    H249111   9.083   7.983   4.982 -0.3361 -0.7403 -0.4236
 8306TIP3   OH249112   7.600   8.681   7.437 -0.5440  0.8393 -0.4100
 8306TIP3    H149113   7.526   8.696   7.378 -0.5369  0.0711 -0.6194
 8306TIP3    H249114   7.565   8.621   7.503 -0.9145  2.5624  1.0672
 8307TIP3   OH249115   3.814   1.943   5.316  0.4543 -0.1307 -0.0442
 8307TIP3    H149116   3.867   1.989   5.251  1.7642  0.5522  1.4344
 8307TIP3    H249117   3.866   1.947   5.397 -1.4300 -0.2942  1.2430
 8308TIP3   OH249118   8.712   8.812   5.150  0.2797  0.0328  0.1059
 8308TIP3    H149119   8.654   8.737   5.161 -0.5415  0.7387  0.6129
 8308TIP3    H249120   8.708   8.859   5.233  0.1019  1.1208 -0.4930
 8309TIP3   OH249121   7.594   0.539   5.282 -0.5915 -0.1677  0.3508
 8309TIP3    H149122   7.556   0.510   5.365 -1.3946 -2.7016 -0.7778
 8309TIP3    H249123   7.645   0.464   5.252 -1.8472 -0.0728 -2.3006
 8310TIP3   OH249124   0.959   6.572   5.068  0.0425  0.7406 -0.9992
 8310TIP3    H149125   1.028   6.614   5.119 -0.9432  1.9804 -0.6295
 8310TIP3    H249126   0.878   6.594   5.114 -0.6852  0.0628 -1.9040
 8311TIP3   OH249127   7.326   9.079   6.541  0.3181  0.0660 -0.3039
 8311TIP3    H149128   7.363   9.010   6.485  0.6837  1.3386 -1.7171
 8311TIP3    H249129   7.380   9.156   6.521  0.9454  0.4086  2.4179
 8312TIP3   OH249130   4.150   5.550   6.201  0.4985  0.2463 -0.1021
 8312TIP3    H149131   4.055   5.542   6.201  0.3873  0.8841 -2.4640
 8312TIP3    H249132   4.168   5.630   6.251 -0.3567  1.1255 -1.1686
 8313TIP3   OH249133   2.411   9.210   6.709 -0.3165 -0.5140  0.0845
 8313TIP3    H149134   2.425   9.302   6.686  1.1921 -1.2405 -2.2555
 8313TIP3    H249135   2.327   9.188   6.669 -0.6661 -0.1849  0.6232
 8314TIP3   OH249136   1.583   4.558   5.604  0.1842  1.0616 -0.0600
 8314TIP3    H149137   1.677   4.570   5.596  0.7193 -0.8779  2.4069
 8314TIP3    H249138   1.562   4.487   5.543  1.1819 -1.5777  2.4843
 8315TIP3   OH249139   7.924   0.143   7.110 -0.6240 -0.0911  0.2203
 8315TIP3    H149140   7.924   0.049   7.093  0.0762 -0.0255 -0.1696
 8315TIP3    H249141   7.927   0.150   7.205 -1.0807 -0.4575  0.2660
 8316TIP3   OH249142   1.676   0.844   6.271  0.4360 -0.5838  0.0669
 8316TIP3    H149143   1.688   0.870   6.362  0.8300  0.0962 -0.1686
 8316TIP3    H249144   1.760   0.807   6.245  0.3480 -0.7061 -0.0460
 8317TIP3   OH249145   2.830   7.143   5.845 -0.0282  0.6781  0.3285
 8317TIP3    H149146   2.904   7.192   5.810 -0.8155  1.3942 -0.3546
 8317TIP3    H249147   2.763   7.148   5.777 -1.0896  0.9150  1.3631
 8318TIP3   OH249148   5.442   7.348   5.340  0.3536  0.3292 -0.7480
 8318TIP3    H149149   5.372   7.293   5.375  0.3800  0.9489  0.3295
 8318TIP3    H249150   5.484   7.294   5.272 -1.7639  0.2939 -2.1247
 8319TIP3   OH249151   2.745   3.552   5.236  0.6267 -0.7895 -0.3236
 8319TIP3    H149152   2.763   3.605   5.158 -1.5294 -0.6771 -0.7851
 8319TIP3    H249153   2.793   3.471   5.220  0.8874 -0.4564 -1.3732
 8320TIP3   OH249154   4.279   7.616   5.379 -0.4230 -0.2874 -0.3316
 8320TIP3    H149155   4.258   7.702   5.343  1.1524  0.0780 -0.4439
 8320TIP3    H249156   4.327   7.571   5.309  0.6164 -0.4493  0.4552
 8321TIP3   OH249157   7.842   6.209   5.144  0.6571  0.3564 -0.0668
 8321TIP3    H149158   7.805   6.136   5.095  1.4651  0.2039 -0.4785
 8321TIP3    H249159   7.833   6.184   5.236 -1.7672  1.0850 -0.0561
 8322TIP3   OH249160   5.731   4.441   6.281 -0.5385 -0.1184  0.2036
 8322TIP3    H149161   5.787   4.471   6.209 -0.0032 -0.6152  0.4060
 8322TIP3    H249162   5.712   4.521   6.330 -3.5252  0.8321 -2.1923
 8323TIP3   OH249163   6.354   8.063   6.379  0.4601 -0.0644 -0.1235
 8323TIP3    H149164   6.267   8.096   6.358  0.7774 -0.0057 -1.4150
 8323TIP3    H249165   6.401   8.138   6.415 -0.2357 -0.2795  1.3241
 8324TIP3   OH249166   1.594   7.961   5.347  0.2279 -0.0365  0.6171
 8324TIP3    H149167   1.627   7.912   5.271  1.9478  0.5369  0.9527
 8324TIP3    H249168   1.563   7.894   5.407 -0.1412 -0.5505 -0.1263
 8325TIP3   OH249169   6.795   6.372   6.547 -0.0728 -0.2740 -0.0796
 8325TIP3    H149170   6.802   6.314   6.623  1.1273 -0.4681 -0.3180
 8325TIP3    H249171   6.852   6.446   6.568  1.6958 -1.1581 -1.4977
 8326TIP3   OH249172   1.771   5.878   6.188 -0.1380 -0.0810  0.2914
 8326TIP3    H149173   1.867   5.881   6.187  0.0016  0.1114  3.5234
 8326TIP3    H249174   1.744   5.968   6.204 -0.9481 -0.0366 -1.1293
 8327TIP3   OH249175   1.867   8.114   5.977 -0.4989  0.0494 -0.5701
 8327TIP3    H149176   1.794   8.101   6.037 -1.5421 -0.2294 -1.8677
 8327TIP3    H249177   1.939   8.064   6.016 -0.9632  0.3661  0.7469
 8328TIP3   OH249178   4.057   4.798   6.611 -0.2991  0.3281  0.6199
 8328TIP3    H149179   4.017   4.756   6.688 -1.6135 -0.8267 -0.6410
 8328TIP3    H249180   4.034   4.891   6.621 -0.7264  0.1486  1.4466
 8329TIP3   OH249181   0.962   7.647   5.925 -0.1219  0.1739 -0.0022
 8329TIP3    H149182   0.878   7.629   5.967 -0.7705 -0.5185 -1.5238
 8329TIP3    H249183   0.955   7.737   5.895  0.2504  0.5898  1.1002
 8330TIP3   OH249184   3.803   1.113   5.645 -0.0579 -1.0200 -0.0146
 8330TIP3    H149185   3.725   1.059   5.630  0.2215 -1.3262 -0.3860
 8330TIP3    H249186   3.857   1.061   5.705 -0.2189 -0.7278  0.3869
 8331TIP3   OH249187   7.435   1.151   6.318 -0.4948 -0.1170 -0.2392
 8331TIP3    H149188   7.376   1.131   6.246 -0.2592 -0.0764 -0.4418
 8331TIP3    H249189   7.377   1.163   6.394 -0.6131 -1.9089 -0.0229
 8332TIP3   OH249190   3.342   6.885   6.729  0.4592  0.4299  0.2862
 8332TIP3    H149191   3.413   6.821   6.739  0.6190  0.6512  0.5762
 8332TIP3    H249192   3.266   6.832   6.706  0.9346  0.2862 -1.0322
 8333TIP3   OH249193   5.301   6.591   5.970  0.1312 -0.3536 -0.0077
 8333TIP3    H149194   5.282   6.626   5.883 -1.5560 -1.1564 -0.0032
 8333TIP3    H249195   5.362   6.519   5.955  0.7275  0.2263 -0.3963
 8334TIP3   OH249196   6.437   1.274   6.691 -0.1484 -0.4518  0.4327
 8334TIP3    H149197   6.415   1.188   6.656  0.0788 -0.5177  0.4508
 8334TIP3    H249198   6.356   1.304   6.733 -0.4382 -0.3517 -0.1888
 8335TIP3   OH249199   8.029   2.953   5.362  0.3938  0.3476  0.2213
 8335TIP3    H149200   8.085   2.995   5.427 -0.1891  0.8413  0.4149
 8335TIP3    H249201   8.058   2.862   5.361 -0.5385 -0.0216  2.2409
 8336TIP3   OH249202   7.725   0.572   9.344  0.2124  0.1761  0.1064
 8336TIP3    H149203   7.787   0.504   9.371 -1.4532 -2.0909 -1.3880
 8336TIP3    H249204   7.750   0.593   9.254 -1.2732 -0.9766 -0.6178
 8337TIP3   OH249205   1.861   3.445   5.865  0.2393  0.2034 -0.0790
 8337TIP3    H149206   1.812   3.373   5.826 -0.6194  1.1286 -0.7606
 8337TIP3    H249207   1.794   3.503   5.900  0.8745  1.0653 -0.2549
 8338TIP3   OH249208   6.402   8.107   6.762  0.1759 -0.0167  0.3759
 8338TIP3    H149209   6.490   8.119   6.797 -0.8498  2.3973  2.4920
 8338TIP3    H249210   6.393   8.174   6.695  0.3062 -1.0502 -0.7053
 8339TIP3   OH249211   6.343   0.965   6.268  0.1546 -0.4932  0.0030
 8339TIP3    H149212   6.251   0.942   6.280  0.4050 -0.8233  1.6087
 8339TIP3    H249213   6.354   0.976   6.174 -2.4199  3.2885 -0.0689
 8340TIP3   OH249214   5.704   6.435   6.451  0.1993 -0.3525  0.6283
 8340TIP3    H149215   5.727   6.430   6.359 -0.9149  1.3775  0.2083
 8340TIP3    H249216   5.623   6.385   6.459 -1.1123  1.5776  0.0939
 8341TIP3   OH249217   0.654   1.473   6.343  0.1062 -0.1674  0.0170
 8341TIP3    H149218   0.633   1.380   6.344  0.4879 -0.2562  0.4542
 8341TIP3    H249219   0.743   1.478   6.378  0.8094  0.2080 -1.7195
 8342TIP3   OH249220   0.438   0.217   6.029 -0.3258 -0.2036 -0.0881
 8342TIP3    H149221   0.357   0.179   5.995 -0.3908 -0.3234  0.2031
 8342TIP3    H249222   0.440   0.192   6.121 -0.7959  1.2163  0.3344
 8343TIP3   OH249223   3.798   6.317   6.293 -0.0621 -0.1635  0.3331
 8343TIP3    H149224   3.798   6.383   6.363 -0.3363 -0.8964  1.0475
 8343TIP3    H249225   3.839   6.361   6.219 -1.0424  1.1082  0.5011
 8344TIP3   OH249226   3.400   3.254   5.417 -0.1172 -0.0246 -0.5007
 8344TIP3    H149227   3.397   3.290   5.506  2.0155  0.3671 -0.5390
 8344TIP3    H249228   3.429   3.327   5.363  1.5643 -1.0498 -1.0329
 8345TIP3   OH249229   6.729   2.446   5.369 -0.3072 -0.6162  0.6302
 8345TIP3    H149230   6.782   2.366   5.365  0.6955  0.0895 -1.9134
 8345TIP3    H249231   6.710   2.467   5.277 -2.0683  1.0998  1.3175
 8346TIP3   OH249232   1.368   8.425   5.112  0.4767  0.0586  0.3137
 8346TIP3    H149233   1.395   8.382   5.031 -1.0402  0.5989 -0.5153
 8346TIP3    H249234   1.449   8.464   5.146  0.9409  1.0173 -1.6889
 8347TIP3   OH249235   2.238   7.632   5.701  0.1619 -0.3137 -0.0580
 8347TIP3    H149236   2.333   7.636   5.710  0.5752  0.8428 -3.5075
 8347TIP3    H249237   2.209   7.723   5.711 -0.3133 -0.3391 -1.1247
 8348TIP3   OH249238   6.365   0.754  10.655 -0.0554  0.5558 -0.4738
 8348TIP3    H149239   6.334   0.666  10.674  2.0667  0.1879  1.7663
 8348TIP3    H249240   6.285   0.806  10.647 -1.3175 -1.0217  1.1473
 8349TIP3   OH249241   2.574   8.119   5.377 -0.0759 -0.2766  0.0279
 8349TIP3    H149242   2.499   8.125   5.317  0.1922  0.5084 -0.2398
 8349TIP3    H249243   2.548   8.170   5.454 -0.5796 -1.6071  0.7803
 8350TIP3   OH249244   0.784   8.654   5.118  0.0211  0.0216  0.1624
 8350TIP3    H149245   0.866   8.703   5.122  0.5958 -0.7288 -1.4273
 8350TIP3    H249246   0.720   8.717   5.087  0.0144  0.5682  1.2400
 8351TIP3   OH249247   3.612   4.156   5.432  0.0672  0.4490  0.2684
 8351TIP3    H149248   3.693   4.105   5.435  1.0577  1.9668  2.6582
 8351TIP3    H249249   3.546   4.101   5.474  0.3692  0.0025  0.1620
 8352TIP3   OH249250   6.435   0.884   5.809  0.3979  0.1404  0.3767
 8352TIP3    H149251   6.449   0.864   5.716  0.4202 -2.6538  0.8869
 8352TIP3    H249252   6.523   0.887   5.846  0.3554  0.4510  0.4552
 8353TIP3   OH249253   6.747   7.954   6.423  0.0495 -0.0011 -0.5591
 8353TIP3    H149254   6.840   7.975   6.433  0.4797 -0.5904 -2.8072
 8353TIP3    H249255   6.708   8.034   6.386 -0.4024  0.2859  0.4848
 8354TIP3   OH249256   7.263   3.048   6.444 -0.1788  0.4943 -0.4136
 8354TIP3    H149257   7.331   3.012   6.386 -0.0878 -1.0946  0.6116
 8354TIP3    H249258   7.303   3.125   6.483  0.5550  0.3222 -0.8035
 8355TIP3   OH249259   3.329   2.094   5.963 -0.6236 -0.6140 -0.1014
 8355TIP3    H149260   3.250   2.041   5.954 -1.0460  0.2299 -2.1916
 8355TIP3    H249261   3.299   2.183   5.942  0.6693 -0.1023  0.1707
 8356TIP3   OH249262   8.131   2.289   6.792 -0.3544 -0.1458 -0.3888
 8356TIP3    H149263   8.226   2.294   6.781 -0.3313  1.6788  0.3843
 8356TIP3    H249264   8.114   2.197   6.811  1.4124 -0.2571  0.8232
 8357TIP3   OH249265   1.135   2.146   5.644 -0.4190  0.0519  0.0009
 8357TIP3    H149266   1.148   2.226   5.695  0.1596  0.3137 -0.5388
 8357TIP3    H249267   1.218   2.100   5.651  0.0308  0.5771 -1.5184
 8358TIP3   OH249268   1.839   8.233   4.843  0.1873  0.3324 -0.2399
 8358TIP3    H149269   1.764   8.178   4.820  0.5589 -0.2614 -0.0447
 8358TIP3    H249270   1.886   8.183   4.910  0.7855  0.6776 -0.3963
 8359TIP3   OH249271   0.763   0.964   5.211 -0.3360 -0.0816  0.0523
 8359TIP3    H149272   0.845   1.013   5.207  0.8828 -1.6583  3.1509
 8359TIP3    H249273   0.735   0.971   5.302 -1.6376 -2.6966 -0.0623
 8360TIP3   OH249274   3.380   0.002   5.247 -1.1536 -0.1364  0.6009
 8360TIP3    H149275   3.332   0.074   5.206  0.9017  1.2809  0.5535
 8360TIP3    H249276   3.369   0.016   5.341  0.0337  0.8432  0.6114
 8361TIP3   OH249277   7.254   5.338   5.657 -0.5428  0.1502  0.3488
 8361TIP3    H149278   7.212   5.274   5.600 -0.9295  0.5222  0.2125
 8361TIP3    H249279   7.333   5.364   5.610 -0.8298  0.4105  0.0086
 8362TIP3   OH249280   7.676   4.641   5.612 -0.2039  0.5905 -0.4696
 8362TIP3    H149281   7.696   4.612   5.702  1.2731 -0.1365 -0.9956
 8362TIP3    H249282   7.724   4.723   5.602 -1.2241  1.2243 -0.2662
 8363TIP3   OH249283   8.331   0.993   6.134 -0.7789 -0.0033 -0.5276
 8363TIP3    H149284   8.409   1.047   6.124 -1.7541  1.5950  0.1563
 8363TIP3    H249285   8.360   0.918   6.186  0.5345  0.0053 -1.2216
 8364TIP3   OH249286   1.485   4.254   5.993  0.0543  0.0667  0.2739
 8364TIP3    H149287   1.553   4.258   6.061  1.9549  0.0283 -1.5108
 8364TIP3    H249288   1.426   4.326   6.014  1.7540  1.3700  0.8532
 8365TIP3   OH249289   2.407   4.347   5.177 -0.5196  0.0925  0.5447
 8365TIP3    H149290   2.317   4.380   5.170  0.1279  1.9769  0.3819
 8365TIP3    H249291   2.458   4.424   5.203  0.9323 -1.1261  1.4571
 8366TIP3   OH249292   0.149   4.582   5.416 -0.2799  0.4024  0.7272
 8366TIP3    H149293   0.198   4.656   5.452 -1.1729  2.0640 -1.2527
 8366TIP3    H249294   0.198   4.558   5.337 -1.4314  0.6851 -0.1053
 8367TIP3   OH249295   6.794   4.080   6.001 -0.5576  0.1900  0.2876
 8367TIP3    H149296   6.786   4.148   6.068 -3.6474 -0.5805  0.8364
 8367TIP3    H249297   6.768   3.999   6.044 -1.5346 -0.5178 -1.4905
 8368TIP3   OH249298   1.086   6.293   6.042 -0.0735 -0.4913  0.6473
 8368TIP3    H149299   1.022   6.358   6.071 -0.8827 -0.6959 -0.6199
 8368TIP3    H249300   1.129   6.264   6.123 -0.8384  0.4193  1.3982
 8369TIP3   OH249301   2.418   0.026   6.342  0.5967 -0.3128 -0.8127
 8369TIP3    H149302   2.415  -0.058   6.297 -1.6498  0.9445 -3.3164
 8369TIP3    H249303   2.490   0.073   6.301 -0.3117  0.1705 -1.9128
 8370TIP3   OH249304   2.391   4.795   5.537 -0.1020  0.1815 -0.5236
 8370TIP3    H149305   2.450   4.721   5.552  0.0304  0.6169  1.3205
 8370TIP3    H249306   2.418   4.830   5.452  0.7507 -1.0306 -0.7785
 8371TIP3   OH249307   1.922   6.344   4.810  0.3293  0.5061 -0.5085
 8371TIP3    H149308   1.995   6.375   4.756 -0.4217  0.4144 -1.6195
 8371TIP3    H249309   1.962   6.281   4.870  1.1184  0.1989 -1.3272
 8372TIP3   OH249310   2.654   8.478   6.782  0.4534  0.1314  0.4432
 8372TIP3    H149311   2.616   8.565   6.767 -1.3621 -0.5292  0.9103
 8372TIP3    H249312   2.715   8.491   6.855 -0.7757  0.7987  1.3899
 8373TIP3   OH249313   2.542   6.922   5.563 -0.2000  0.3725  0.4594
 8373TIP3    H149314   2.565   6.916   5.656  0.4669 -3.4449  0.1996
 8373TIP3    H249315   2.482   6.849   5.549 -2.0394  2.1514 -1.7487
 8374TIP3   OH249316   0.618   5.721   5.325 -0.4875 -0.5066  0.4148
 8374TIP3    H149317   0.599   5.808   5.359 -0.8378 -1.1680  2.0105
 8374TIP3    H249318   0.543   5.700   5.269  0.4931  0.9383 -1.5656
 8375TIP3   OH249319   4.805   1.123   5.691  0.4304  0.1133  0.0236
 8375TIP3    H149320   4.751   1.048   5.714  0.5222 -1.3853 -4.0285
 8375TIP3    H249321   4.894   1.089   5.691  0.8714  1.1507  1.2123
 8376TIP3   OH249322   0.779   5.363   6.048  0.3579 -0.0360 -0.1441
 8376TIP3    H149323   0.817   5.316   5.973 -0.8179 -1.1481 -0.0754
 8376TIP3    H249324   0.769   5.453   6.018 -1.5198 -0.7620 -1.8995
 8377TIP3   OH249325   5.182   6.830   6.398  0.5011 -0.5109  0.0297
 8377TIP3    H149326   5.102   6.861   6.440  0.8017 -0.3700  0.5026
 8377TIP3    H249327   5.152   6.767   6.332  0.0185 -0.5955  0.3307
 8378TIP3   OH249328   3.665   4.673   6.192  0.2781  0.0080  0.0666
 8378TIP3    H149329   3.577   4.709   6.182  0.5860  0.9781  0.6304
 8378TIP3    H249330   3.660   4.622   6.273  0.7405  1.8797  1.3717
 8379TIP3   OH249331   3.878   9.019   5.044 -0.1625 -0.1875 -0.1456
 8379TIP3    H149332   3.794   9.020   5.090  0.4544 -2.2217  1.1166
 8379TIP3    H249333   3.867   8.953   4.976 -0.2183  1.0281 -1.3768
 8380TIP3   OH249334   7.185   3.624   5.084  0.3165  0.1456  0.1219
 8380TIP3    H149335   7.202   3.716   5.105  0.4383  0.2993 -0.6130
 8380TIP3    H249336   7.201   3.618   4.990 -1.1823 -0.2876 -0.1286
 8381TIP3   OH249337   3.095   1.173   4.923 -0.1652  0.1628  0.1669
 8381TIP3    H149338   3.166   1.231   4.896 -0.7202  0.2074 -1.3138
 8381TIP3    H249339   3.132   1.085   4.916 -0.1401  0.2050 -0.2590
 8382TIP3   OH249340   8.013   5.859   6.715 -0.0525  0.1355  0.3449
 8382TIP3    H149341   8.061   5.941   6.697 -0.7972  0.4337 -0.3316
 8382TIP3    H249342   7.923   5.879   6.691 -0.0916 -1.1617 -0.6437
 8383TIP3   OH249343   7.047   9.111   5.811 -0.1468 -0.6774 -0.2467
 8383TIP3    H149344   7.103   9.177   5.770  0.0904  0.3004  1.5372
 8383TIP3    H249345   6.962   9.122   5.768  0.6048 -1.2011 -1.9708
 8384TIP3   OH249346   6.627   8.083   6.053  0.5356  0.5282  0.9447
 8384TIP3    H149347   6.567   8.154   6.031  0.4874 -0.3987 -2.4205
 8384TIP3    H249348   6.714   8.122   6.050  0.5132  0.4995 -0.9321
 8385TIP3   OH249349   3.591   7.825   5.654  0.3358 -0.1506  0.9308
 8385TIP3    H149350   3.502   7.860   5.662  0.3389  0.4158 -0.9902
 8385TIP3    H249351   3.579   7.732   5.634  0.0460  0.3026 -1.2959
 8386TIP3   OH249352   8.938   6.023   5.255  0.1183 -0.5241 -0.3400
 8386TIP3    H149353   8.976   6.046   5.170 -0.1722  1.3897 -0.0003
 8386TIP3    H249354   9.009   6.033   5.318  0.0593 -0.8486 -0.2205
 8387TIP3   OH249355   1.533   0.562   5.186  0.4632  0.3603  0.5218
 8387TIP3    H149356   1.621   0.535   5.209  1.1560  1.0658 -1.1157
 8387TIP3    H249357   1.542   0.602   5.099 -1.5771 -0.2566 -0.0505
 8388TIP3   OH249358   5.851   2.682   6.419  0.9374 -0.0759  0.0040
 8388TIP3    H149359   5.783   2.629   6.377  0.9495  0.6887 -1.0062
 8388TIP3    H249360   5.924   2.681   6.357  2.3105 -1.7831  1.5336
 8389TIP3   OH249361   4.572   2.873   5.831 -0.6630 -0.2541 -0.2267
 8389TIP3    H149362   4.508   2.803   5.816 -1.5921  0.8201 -1.6008
 8389TIP3    H249363   4.649   2.828   5.865 -1.9063 -1.6862  0.8442
 8390TIP3   OH249364   1.424   4.022   5.855 -0.5256  0.4550  0.4492
 8390TIP3    H149365   1.444   4.101   5.905  0.7777  1.2682 -1.2736
 8390TIP3    H249366   1.457   3.950   5.909 -3.3694  0.7884  2.9389
 8391TIP3   OH249367   5.808   8.594   6.097  0.3069  0.2706  0.7434
 8391TIP3    H149368   5.754   8.672   6.112  0.4197  0.8080 -1.3138
 8391TIP3    H249369   5.812   8.586   6.001 -1.0923 -3.2245  0.8265
 8392TIP3   OH249370   7.784   5.876   5.514 -0.5171  0.2603  0.4099
 8392TIP3    H149371   7.751   5.810   5.454 -0.8178 -0.3122  1.1898
 8392TIP3    H249372   7.846   5.928   5.462 -1.1838  0.1255 -0.5293
 8393TIP3   OH249373   0.948   0.418   5.623 -0.2314  0.3057  0.8478
 8393TIP3    H149374   1.000   0.440   5.700  0.5995  0.5440  0.2353
 8393TIP3    H249375   0.900   0.498   5.603  0.1749  0.5014  0.6416
 8394TIP3   OH249376   5.207   4.663   5.084 -0.4883  0.6367  0.0099
 8394TIP3    H149377   5.177   4.712   5.160  0.9351 -0.1958  1.1604
 8394TIP3    H249378   5.137   4.673   5.020 -1.2937  2.1617  1.0661
 8395TIP3   OH249379   7.022   3.019   5.688  0.5900 -0.4327  0.1541
 8395TIP3    H149380   7.110   3.046   5.660  0.3374  0.4675  0.1807
 8395TIP3    H249381   6.971   3.100   5.685 -0.2603 -0.9625  0.0662
 8396TIP3   OH249382   8.929   7.947   5.500  0.0254  0.5166  0.0303
 8396TIP3    H149383   8.917   8.009   5.429  0.3371 -0.0055 -0.4929
 8396TIP3    H249384   8.950   8.001   5.577 -1.4164  1.1586  0.0009
 8397TIP3   OH249385   3.564   8.958   5.467  0.4629 -0.0541 -0.1451
 8397TIP3    H149386   3.560   8.877   5.416  0.1103  0.5039 -1.0261
 8397TIP3    H249387   3.473   8.974   5.494  0.7358 -0.6603  1.1824
 8398TIP3   OH249388   7.947   0.918   5.085  0.2790  0.0913 -0.4016
 8398TIP3    H149389   8.007   0.870   5.142  1.0710 -0.2436 -1.4962
 8398TIP3    H249390   7.931   1.000   5.131  1.4846  0.1421 -0.0428
 8399TIP3   OH249391   0.709   1.830   5.417  0.8986 -0.3097  0.1618
 8399TIP3    H149392   0.647   1.888   5.372 -1.3157 -0.7256  2.4474
 8399TIP3    H249393   0.714   1.752   5.361  1.5754  0.8143 -1.4292
 8400TIP3   OH249394   0.818   0.214   5.491 -0.0153  0.2748  0.4441
 8400TIP3    H149395   0.871   0.273   5.544  0.7302 -0.1347  0.1719
 8400TIP3    H249396   0.730   0.222   5.526  0.0050  1.7986  0.2053
 8401TIP3   OH249397   3.054   0.971   6.115  0.4829 -0.2404  0.1164
 8401TIP3    H149398   3.111   0.917   6.060  0.9569  0.1822  0.1790
 8401TIP3    H249399   3.004   0.909   6.168  1.3624 -0.6136  0.5278
 8402TIP3   OH249400   3.631   3.040   5.020 -0.2149 -0.0888 -0.2504
 8402TIP3    H149401   3.647   2.950   5.046  0.3442 -0.0406 -0.4225
 8402TIP3    H249402   3.537   3.044   5.002 -0.5803 -0.2027  1.4630
 8403TIP3   OH249403   3.984   8.586   5.907  0.5760  0.6744 -0.9089
 8403TIP3    H149404   3.962   8.570   5.815  0.5754  1.9498 -1.1508
 8403TIP3    H249405   4.044   8.661   5.905  0.6122  0.6888  0.1224
 8404TIP3   OH249406   5.207   7.793   6.469 -0.6470 -0.6185  0.3366
 8404TIP3    H149407   5.113   7.799   6.453 -0.4045  0.6785 -0.8575
 8404TIP3    H249408   5.247   7.817   6.385  0.7400  0.5045  1.2633
 8405TIP3   OH249409   8.283   0.559   6.561 -0.3221  0.2758  0.2126
 8405TIP3    H149410   8.367   0.549   6.604  0.1622 -0.7679 -0.9045
 8405TIP3    H249411   8.218   0.536   6.627  0.1746  1.9732  1.3658
 8406TIP3   OH249412   9.079   4.944   5.684 -0.6264 -0.4896  0.7470
 8406TIP3    H149413   9.094   5.023   5.736 -0.4967 -0.9413  1.4221
 8406TIP3    H249414   9.039   4.975   5.603  0.4262  0.3781  0.5324
 8407TIP3   OH249415   1.221   6.685   5.143 -0.0684 -0.2737  0.1198
 8407TIP3    H149416   1.218   6.671   5.237  0.1658  1.4260  0.4151
 8407TIP3    H249417   1.313   6.671   5.119 -0.4927 -2.8769 -0.2853
 8408TIP3   OH249418   0.262   4.192   6.594  0.3197 -0.2022  0.1387
 8408TIP3    H149419   0.286   4.202   6.502 -0.6413 -1.4031 -0.2661
 8408TIP3    H249420   0.170   4.168   6.593  0.3764 -0.5680  1.4048
 8409TIP3   OH249421   8.707   8.046   5.026 -0.6561 -0.1078 -0.1078
 8409TIP3    H149422   8.678   7.970   5.077 -1.5606  0.0419 -0.3724
 8409TIP3    H249423   8.779   8.083   5.076 -0.0711 -1.2455 -0.0654
 8410TIP3   OH249424   8.280   8.230   6.729 -0.4300  0.7277 -0.4784
 8410TIP3    H149425   8.289   8.217   6.634 -2.8569  1.6384 -0.9031
 8410TIP3    H249426   8.361   8.195   6.765  0.0432 -0.7998 -2.7754
 8411TIP3   OH249427   3.675   7.637   5.229  0.0929 -0.4588 -0.1690
 8411TIP3    H149428   3.703   7.719   5.188  1.2344 -0.5574  0.3706
 8411TIP3    H249429   3.584   7.652   5.253  0.8030  1.3560  1.6238
 8412TIP3   OH249430   3.513   3.113   5.902 -0.3775  0.2545  0.1118
 8412TIP3    H149431   3.570   3.070   5.838 -0.0176  0.6885  0.1313
 8412TIP3    H249432   3.425   3.085   5.878 -0.2462  0.4042 -0.5787
 8413TIP3   OH249433   8.014   6.920   5.749 -0.2585  0.2133  0.1797
 8413TIP3    H149434   8.100   6.884   5.727 -0.6438  1.1267 -3.3634
 8413TIP3    H249435   7.985   6.868   5.824  1.4720 -3.2286 -1.3147
 8414TIP3   OH249436   3.615   8.112   5.560 -0.3442  0.3181  0.3474
 8414TIP3    H149437   3.623   8.034   5.615 -1.3140  0.0505  0.1278
 8414TIP3    H249438   3.559   8.171   5.611 -0.9467  0.2144 -0.1920
 8415TIP3   OH249439   7.291   4.119   6.027  0.2841 -0.4961  0.9786
 8415TIP3    H149440   7.358   4.052   6.013 -0.0979 -0.5774 -0.6179
 8415TIP3    H249441   7.299   4.142   6.120  2.5564 -0.4678  0.8356
 8416TIP3   OH249442   8.996   4.162   5.156 -0.1329  0.4859 -0.5348
 8416TIP3    H149443   8.972   4.215   5.231 -1.0166  0.6776 -0.9475
 8416TIP3    H249444   8.990   4.221   5.081 -0.6980 -0.0685 -0.9423
 8417TIP3   OH249445   2.487   3.479   6.350 -0.1031 -0.1807 -0.6591
 8417TIP3    H149446   2.523   3.555   6.396 -0.3449 -0.9368  0.8619
 8417TIP3    H249447   2.551   3.409   6.365 -0.8495 -0.8037 -0.2836
 8418TIP3   OH249448   0.622   8.544   6.311 -0.3327  0.2870  0.0117
 8418TIP3    H149449   0.619   8.453   6.280  0.4986  0.1120  0.3943
 8418TIP3    H249450   0.704   8.549   6.361 -1.5417  0.5880  2.0857
 8419TIP3   OH249451   8.841   6.621   5.135 -0.2262 -0.4122  0.0300
 8419TIP3    H149452   8.817   6.530   5.122 -1.4040  0.0437 -1.2286
 8419TIP3    H249453   8.936   6.623   5.119 -0.0362 -1.5235  0.8730
 8420TIP3   OH249454   0.753   4.463   6.035 -0.4100  0.0352  0.2442
 8420TIP3    H149455   0.701   4.481   6.113 -0.8245 -1.8307  0.4429
 8420TIP3    H249456   0.704   4.394   5.989  0.0998  0.7237 -1.3968
 8421TIP3   OH249457   2.143   8.571   5.265  0.5720 -0.0623 -0.0672
 8421TIP3    H149458   2.051   8.547   5.279  0.7879 -1.4826 -0.8700
 8421TIP3    H249459   2.168   8.616   5.346 -0.8986  0.6040  0.0466
 8422TIP3   OH249460   2.005   5.435   6.921 -0.5254 -0.0633  0.0069
 8422TIP3    H149461   2.099   5.448   6.932 -0.5739 -0.2550  0.7116
 8422TIP3    H249462   1.965   5.491   6.988 -0.8668 -0.8599  0.4869
 8423TIP3   OH249463   5.147   8.002   5.805 -0.3308 -0.7196 -0.1151
 8423TIP3    H149464   5.055   8.003   5.831 -0.7232  0.1944 -1.4144
 8423TIP3    H249465   5.145   8.015   5.710  1.1000 -1.8265 -0.3329
 8424TIP3   OH249466   6.152   1.551   5.038 -0.0553 -0.2298  0.6014
 8424TIP3    H149467   6.136   1.586   4.951 -0.5055 -1.4454  0.1766
 8424TIP3    H249468   6.193   1.623   5.086  1.6199  0.0142 -1.0613
 8425TIP3   OH249469   5.614   5.106   6.239  0.3729 -0.4660  0.2441
 8425TIP3    H149470   5.684   5.042   6.229 -0.7765 -1.8773  0.7883
 8425TIP3    H249471   5.543   5.072   6.184 -0.9671 -0.7629  2.0694
 8426TIP3   OH249472   7.281   5.198   6.584 -0.1626  0.1045 -0.1625
 8426TIP3    H149473   7.351   5.246   6.627 -0.2107  1.8011 -1.8316
 8426TIP3    H249474   7.325   5.142   6.520 -0.2873  1.5872 -1.6069
 8427TIP3   OH249475   3.950   8.320   5.791  0.1261  1.1489 -0.1464
 8427TIP3    H149476   3.969   8.367   5.710  1.7510 -1.2730 -1.3003
 8427TIP3    H249477   3.861   8.289   5.781  0.6426  0.0371 -1.5076
 8428TIP3   OH249478   5.779   6.277   5.383 -0.2512 -0.0672 -0.7059
 8428TIP3    H149479   5.755   6.220   5.456  0.6246  0.1500 -0.2344
 8428TIP3    H249480   5.812   6.356   5.424  0.8408 -0.1853 -1.3291
 8429TIP3   OH249481   2.198   8.735   5.473  0.7745 -0.1158  0.5647
 8429TIP3    H149482   2.273   8.793   5.458  1.5783 -1.3525 -0.4953
 8429TIP3    H249483   2.216   8.692   5.556  0.8011  0.2394  0.7419
 8430TIP3   OH249484   7.996   8.383   5.862  0.4885  0.4435 -0.2930
 8430TIP3    H149485   7.946   8.305   5.838  0.4035  0.3317  0.2307
 8430TIP3    H249486   7.931   8.441   5.903  1.0900 -0.4715  2.1409
 8431TIP3   OH249487   1.025   8.742   6.037 -0.1378 -0.1554  0.4801
 8431TIP3    H149488   0.962   8.719   5.970  1.2961 -0.9734 -0.6472
 8431TIP3    H249489   1.022   8.670   6.100  0.5255 -0.8228 -0.2286
 8432TIP3   OH249490   0.738   3.418   5.165 -0.0325  0.7617  0.2291
 8432TIP3    H149491   0.823   3.400   5.125  0.7550 -0.2644  2.2482
 8432TIP3    H249492   0.674   3.388   5.100  1.1359  1.1646 -1.1447
 8433TIP3   OH249493   5.994   6.417   6.883  0.1325  0.3851 -0.2622
 8433TIP3    H149494   5.928   6.382   6.942  1.2106 -1.0249  0.1600
 8433TIP3    H249495   5.944   6.459   6.813 -1.2010  2.8457  1.9867
 8434TIP3   OH249496   1.271   7.959   4.973 -0.1159 -0.4358 -0.3728
 8434TIP3    H149497   1.310   8.035   5.017 -1.0088 -0.2747  0.1692
 8434TIP3    H249498   1.269   7.984   4.881  0.1747 -0.0615 -0.2842
 8435TIP3   OH249499   8.319   0.097   6.830 -0.3080  0.4414 -0.5756
 8435TIP3    H149500   8.241   0.042   6.840  0.3867 -0.8078 -1.7358
 8435TIP3    H249501   8.391   0.035   6.816  0.7326  1.6055 -0.5189
 8436TIP3   OH249502   2.965   1.789   6.090  0.3049  0.0328  0.3787
 8436TIP3    H149503   2.923   1.872   6.113  0.2613  0.4106 -0.9813
 8436TIP3    H249504   2.916   1.723   6.139 -2.9285  0.2807 -2.1787
 8437TIP3   OH249505   8.794   8.347   6.302  0.1122 -0.2252  0.4301
 8437TIP3    H149506   8.861   8.414   6.318  0.4873 -0.6599  0.7263
 8437TIP3    H249507   8.773   8.313   6.389 -0.1537 -0.4172  0.2911
 8438TIP3   OH249508   3.473   1.668   6.071  0.2561 -0.2990 -0.1848
 8438TIP3    H149509   3.452   1.626   5.988  1.0565 -2.1117  0.4792
 8438TIP3    H249510   3.396   1.722   6.091 -0.6564 -1.1692 -1.2626
 8439TIP3   OH249511   8.628   0.449   4.652  0.1425  0.8408  0.1171
 8439TIP3    H149512   8.710   0.498   4.642 -0.0989  1.4903  1.1465
 8439TIP3    H249513   8.652   0.374   4.707  0.0856  0.9434  0.2832
 8440TIP3   OH249514   6.993   0.037   5.384 -0.5157 -0.8296 -0.3286
 8440TIP3    H149515   7.057   0.106   5.366  0.0689 -1.1040  0.6315
 8440TIP3    H249516   7.046  -0.040   5.402 -0.9265 -0.4394  3.2194
 8441TIP3   OH249517   2.696   3.394   5.732 -0.2383  0.2252 -0.2686
 8441TIP3    H149518   2.691   3.388   5.636  1.1568  1.2374 -0.4459
 8441TIP3    H249519   2.786   3.366   5.752 -0.7730 -0.7476  0.8366
 8442TIP3   OH249520   3.908   2.358   5.782 -0.1729 -0.4533 -0.1019
 8442TIP3    H149521   3.873   2.283   5.830 -1.2643  0.6925  0.9756
 8442TIP3    H249522   3.873   2.434   5.828  1.6729  0.7457 -0.5787
 8443TIP3   OH249523   4.075   4.499   6.110  0.0782  0.1255  0.2115
 8443TIP3    H149524   4.133   4.572   6.130  0.3611  0.3467 -1.3058
 8443TIP3    H249525   4.104   4.468   6.024 -0.9552 -0.8572  0.1939
 8444TIP3   OH249526   4.903   6.522   6.512 -0.5033 -0.5274  0.0626
 8444TIP3    H149527   4.956   6.487   6.440 -0.5799 -1.2140  0.3228
 8444TIP3    H249528   4.894   6.447   6.572 -0.7712 -0.0762  0.5886
 8445TIP3   OH249529   7.156   8.556   5.709  0.6875  0.0861  0.6170
 8445TIP3    H149530   7.079   8.508   5.679  1.3382 -0.6243  0.0540
 8445TIP3    H249531   7.197   8.498   5.772  0.9743  0.3048  0.6319
 8446TIP3   OH249532   9.047   2.128   4.893 -0.1135  0.3309 -0.1809
 8446TIP3    H149533   8.960   2.114   4.928 -0.4247  0.3052 -0.9446
 8446TIP3    H249534   9.104   2.134   4.970 -0.8799  1.0060  0.3476
 8447TIP3   OH249535   1.428   6.396   6.001  0.8092  0.2825 -0.4251
 8447TIP3    H149536   1.506   6.346   5.977  1.6768  1.4905 -0.1943
 8447TIP3    H249537   1.372   6.391   5.924  0.4051 -1.8822 -0.0558
 8448TIP3   OH249538   0.049   2.125   5.994 -0.0597  0.0353  0.0635
 8448TIP3    H149539   0.116   2.125   5.926 -0.0004 -2.7332 -0.0011
 8448TIP3    H249540  -0.034   2.118   5.947 -0.1821  0.4471  0.2173
 8449TIP3   OH249541   7.169   0.119   5.721 -0.1104 -0.4403 -0.3150
 8449TIP3    H149542   7.223   0.166   5.657 -0.6511 -0.2312 -0.6274
 8449TIP3    H249543   7.196   0.155   5.806  0.2219 -0.3238 -0.4665
 8450TIP3   OH249544   4.029   8.946   5.280 -0.9296 -0.5480 -0.0797
 8450TIP3    H149545   3.980   9.020   5.245 -1.1321 -0.5087  0.2871
 8450TIP3    H249546   4.119   8.962   5.251 -0.8131  0.2910  0.7184
 8451TIP3   OH249547   2.187   9.103   6.523  0.2381  0.2201 -0.0443
 8451TIP3    H149548   2.125   9.104   6.450  1.1793 -2.2901 -0.9664
 8451TIP3    H249549   2.257   9.163   6.496  0.5911 -0.7008 -1.2677
 8452TIP3   OH249550   7.202   3.361   5.191 -0.2079 -0.6608  0.0785
 8452TIP3    H149551   7.200   3.446   5.147 -3.0915 -0.8140 -0.2894
 8452TIP3    H249552   7.263   3.309   5.138  0.9717  0.8910 -0.1674
 8453TIP3   OH249553   1.332   4.391   5.211 -0.3835  0.0430 -0.0608
 8453TIP3    H149554   1.379   4.460   5.165 -0.0697 -0.0148  0.1696
 8453TIP3    H249555   1.241   4.420   5.212 -0.1142  0.9056  0.8354
 8454TIP3   OH249556   4.832   0.621   5.594  0.7294 -0.4081 -0.3815
 8454TIP3    H149557   4.912   0.612   5.647  0.1105 -2.1537  0.3323
 8454TIP3    H249558   4.762   0.626   5.659  0.0750 -1.1388 -1.0227
 8455TIP3   OH249559   0.145   6.296   4.880  0.3980 -0.4170 -0.1271
 8455TIP3    H149560   0.087   6.228   4.916  0.6156 -1.3252 -1.4268
 8455TIP3    H249561   0.216   6.248   4.838  1.4466  0.6661  0.3356
 8456TIP3   OH249562   1.606   2.640   5.392 -0.1703  0.1355  0.4796
 8456TIP3    H149563   1.563   2.555   5.384  1.1872 -0.5586  0.2912
 8456TIP3    H249564   1.649   2.637   5.478 -1.7014  1.4162  1.3586
 8457TIP3   OH249565   2.528   2.182   5.560  0.3498 -0.9870  0.0005
 8457TIP3    H149566   2.533   2.183   5.656 -0.7334 -1.4431  0.0796
 8457TIP3    H249567   2.600   2.238   5.531  0.5694 -0.6889  1.0861
 8458TIP3   OH249568   1.261   5.057   5.551 -0.2053  0.1075  0.7726
 8458TIP3    H149569   1.333   5.118   5.533 -0.2131 -0.0144  0.3328
 8458TIP3    H249570   1.289   4.975   5.512 -0.9416  0.2697 -0.1188
 8459TIP3   OH249571   2.399   2.467   4.999 -0.4096  0.1806  0.0498
 8459TIP3    H149572   2.477   2.475   5.055 -0.9386 -0.3938  0.8829
 8459TIP3    H249573   2.423   2.401   4.935 -0.4864 -0.5998  0.8076
 8460TIP3   OH249574   5.577   7.501   6.492  0.6102  0.1090  0.0435
 8460TIP3    H149575   5.537   7.567   6.548  2.7056  1.7086 -0.2607
 8460TIP3    H249576   5.607   7.433   6.553 -0.5294 -0.0571  0.4553
 8461TIP3   OH249577   8.480   7.485   6.987 -0.0031 -0.0377  0.0168
 8461TIP3    H149578   8.465   7.505   7.079  1.4195  0.9006  0.0701
 8461TIP3    H249579   8.393   7.490   6.947 -0.2221  3.2771  0.6278
 8462TIP3   OH249580   7.069   2.030   6.132  0.0143  0.3293  0.1491
 8462TIP3    H149581   7.024   1.946   6.143 -1.7699  0.8749 -2.2025
 8462TIP3    H249582   7.063   2.072   6.218 -0.6879 -1.1894  0.8752
 8463TIP3   OH249583   8.055   0.398   4.925  0.0940  0.2629  0.6737
 8463TIP3    H149584   8.018   0.485   4.915  1.3228  0.9553  1.9226
 8463TIP3    H249585   8.146   0.408   4.899  0.1629 -0.7386  0.4929
 8464TIP3   OH249586   3.137   8.611   5.672 -0.0805  0.3600  0.4741
 8464TIP3    H149587   3.043   8.623   5.684 -0.2850  0.3008 -0.8875
 8464TIP3    H249588   3.170   8.591   5.759 -1.8211 -2.8717  0.5432
 8465TIP3   OH249589   7.754   8.533   5.931  0.7264  0.3245 -0.1388
 8465TIP3    H149590   7.693   8.579   5.873  0.7173 -0.5496 -0.8557
 8465TIP3    H249591   7.701   8.511   6.008  1.1645  2.9153  0.9700
 8466TIP3   OH249592   0.914   8.847   6.832 -0.0087  0.2640 -0.8839
 8466TIP3    H149593   0.844   8.903   6.800 -1.1270 -1.5295 -1.7279
 8466TIP3    H249594   0.925   8.872   6.924 -1.3909  0.9397 -0.8856
 8467TIP3   OH249595   4.224   1.048   5.761 -0.5121 -0.4775  0.2136
 8467TIP3    H149596   4.172   1.113   5.808  0.1514  0.3961 -0.2304
 8467TIP3    H249597   4.293   1.023   5.823 -0.3149 -0.1817  0.1147
 8468TIP3   OH249598   6.435   6.835   5.178 -0.2152 -0.0852  0.2471
 8468TIP3    H149599   6.477   6.921   5.183 -0.8689  0.2385  0.2850
 8468TIP3    H249600   6.486   6.780   5.237  0.1729  0.2897  0.2661
 8469TIP3   OH249601   2.550   2.869   5.019 -0.3288  0.0539  0.2879
 8469TIP3    H149602   2.520   2.958   5.039 -0.7821  0.0131 -0.1985
 8469TIP3    H249603   2.471   2.823   4.991 -0.0840 -0.4894  0.4733
 8470TIP3   OH249604   4.169   0.919   6.108  0.6350  0.2632  0.1935
 8470TIP3    H149605   4.091   0.914   6.163  1.0842  0.0004  0.8202
 8470TIP3    H249606   4.184   1.012   6.095 -0.0069  0.3087 -0.2601
 8471TIP3   OH249607   2.798   8.346   6.298  0.0499  0.0516  0.1455
 8471TIP3    H149608   2.800   8.268   6.352  1.7996  0.0868  0.1780
 8471TIP3    H249609   2.842   8.321   6.217  1.4598  1.2193  0.5108
 8472TIP3   OH249610   8.830   5.699   5.575 -0.2594  0.1445 -0.7010
 8472TIP3    H149611   8.781   5.745   5.506 -1.5615 -3.2809 -2.3039
 8472TIP3    H249612   8.856   5.617   5.535  2.9165 -0.1513  1.6248
 8473TIP3   OH249613   6.336   1.067   6.002 -0.4321  0.0092 -0.7889
 8473TIP3    H149614   6.430   1.045   6.005 -0.7904 -1.6532 -0.3400
 8473TIP3    H249615   6.320   1.089   5.910  0.4195  0.4747 -0.8437
 8474TIP3   OH249616   4.402   2.658   5.808 -0.0988 -0.0801 -0.2175
 8474TIP3    H149617   4.325   2.645   5.863  0.3558 -0.4851  0.3336
 8474TIP3    H249618   4.439   2.571   5.797  0.9548  0.2446  0.5383
 8475TIP3   OH249619   4.547   4.834   6.332 -0.2906 -0.2106 -0.7094
 8475TIP3    H149620   4.498   4.784   6.398  0.0551  0.4785  0.0908
 8475TIP3    H249621   4.505   4.812   6.249 -2.4184  0.8474  0.0000
 8476TIP3   OH249622   2.155   2.214   5.683  0.1942  0.4069 -0.1342
 8476TIP3    H149623   2.169   2.129   5.726 -0.0476  0.9148  1.0033
 8476TIP3    H249624   2.196   2.205   5.598  1.7615 -0.2681  0.6471
 8477TIP3   OH249625   4.112   6.633   6.699 -0.6930  0.3588  0.1846
 8477TIP3    H149626   4.120   6.726   6.680 -2.5606  0.1301 -2.2033
 8477TIP3    H249627   4.203   6.603   6.709  0.1946  1.8578 -2.4129
 8478TIP3   OH249628   6.862   4.680   5.708 -0.3724 -0.1024 -0.4708
 8478TIP3    H149629   6.782   4.670   5.759 -0.6554  1.7148 -0.4921
 8478TIP3    H249630   6.851   4.763   5.661  1.3299 -0.0344 -0.8234
 8479TIP3   OH249631   6.200   1.848   6.608 -0.0967 -1.1421 -0.1657
 8479TIP3    H149632   6.256   1.882   6.677 -0.1806 -2.9587  0.8694
 8479TIP3    H249633   6.112   1.880   6.629  0.2050  0.0006 -0.6131
 8480TIP3   OH249634   7.982   1.674   5.877 -0.3359 -0.4052 -0.3768
 8480TIP3    H149635   8.038   1.751   5.879  0.5295 -0.9715 -1.5680
 8480TIP3    H249636   8.042   1.600   5.878 -1.1492 -1.0893  0.6906
 8481TIP3   OH249637   3.139   3.455   6.210  0.4024  0.3044 -0.1201
 8481TIP3    H149638   3.084   3.520   6.168 -1.0804 -0.8709 -0.0611
 8481TIP3    H249639   3.091   3.429   6.289  0.6083 -1.3636 -0.5087
 8482TIP3   OH249640   8.153   4.848   6.465  0.3718  0.2240 -0.0854
 8482TIP3    H149641   8.114   4.806   6.542 -0.3640  1.2575  0.1241
 8482TIP3    H249642   8.216   4.784   6.433 -0.3184 -0.8124  0.5453
 8483TIP3   OH249643   0.840   3.630   6.373 -0.0895  0.4053  0.3841
 8483TIP3    H149644   0.814   3.722   6.367  1.2120  0.8078  0.6585
 8483TIP3    H249645   0.924   3.627   6.328 -0.2935 -0.7373  0.0605
 8484TIP3   OH249646   3.397   7.127   6.586  0.0549  0.5689 -0.1274
 8484TIP3    H149647   3.457   7.088   6.649  0.2357  1.9895  0.6227
 8484TIP3    H249648   3.317   7.146   6.636 -0.1271  0.8977 -0.5269
 8485TIP3   OH249649   3.812   1.049   4.855  0.0971 -0.0512  0.4455
 8485TIP3    H149650   3.884   1.049   4.792 -0.7166 -0.2710 -0.5144
 8485TIP3    H249651   3.833   0.978   4.916  0.3351 -0.6025 -0.2594
 8486TIP3   OH249652   1.887   3.951   5.522 -0.1914  0.3504  0.1790
 8486TIP3    H149653   1.890   3.997   5.606  2.0150  0.2211  0.2179
 8486TIP3    H249654   1.967   3.899   5.520 -1.0633 -1.0146 -1.2665
 8487TIP3   OH249655   0.892   8.256   7.048 -0.4786 -0.1150 -0.2585
 8487TIP3    H149656   0.859   8.195   7.114 -1.4674 -0.6608 -1.2439
 8487TIP3    H249657   0.835   8.332   7.055  1.0114  0.9566  1.2652
 8488TIP3   OH249658   5.242   0.287   6.800 -0.2399  0.2453  0.0184
 8488TIP3    H149659   5.303   0.285   6.725 -0.8206  0.8219 -0.4764
 8488TIP3    H249660   5.190   0.366   6.787  0.2980  0.8898  1.5725
 8489TIP3   OH249661   8.255   8.560   7.315 -0.2176 -0.1588  0.5533
 8489TIP3    H149662   8.343   8.596   7.323 -0.4576  0.6657 -0.3185
 8489TIP3    H249663   8.257   8.510   7.234 -1.0223  1.3581 -0.4483
 8490TIP3   OH249664   2.570   8.508   6.199 -0.0519 -0.4860 -0.2631
 8490TIP3    H149665   2.635   8.465   6.255  0.0852 -0.7753 -0.6408
 8490TIP3    H249666   2.600   8.599   6.194  0.0869 -0.5213 -0.0877
 8491TIP3   OH249667   1.999   2.634   6.363 -0.1978 -0.0996 -0.2481
 8491TIP3    H149668   1.905   2.627   6.378 -0.4172  4.2201  1.7966
 8491TIP3    H249669   2.007   2.671   6.275 -0.6621  1.7182  0.4225
 8492TIP3   OH249670   5.113   3.799   6.536  0.9192  0.1090  0.6313
 8492TIP3    H149671   5.053   3.873   6.540 -0.8493 -1.1308 -1.0808
 8492TIP3    H249672   5.188   3.831   6.486  0.4115  0.8679  0.3500
 8493TIP3   OH249673   2.420   2.450   5.569 -0.3096 -0.3715  0.4827
 8493TIP3    H149674   2.391   2.412   5.652  2.8754  0.3158  2.0728
 8493TIP3    H249675   2.451   2.376   5.518 -0.6107 -0.6131  0.6496
 8494TIP3   OH249676   6.797   0.296   6.463  0.1734  0.1059  0.3403
 8494TIP3    H149677   6.765   0.375   6.508  0.0117 -0.6014  1.5009
 8494TIP3    H249678   6.815   0.234   6.534  2.8203 -0.0199 -0.3364
 8495TIP3   OH249679   0.099   8.184   7.052  0.1244 -0.6279  0.3386
 8495TIP3    H149680   0.047   8.106   7.072  0.4431 -1.2283 -1.0383
 8495TIP3    H249681   0.190   8.154   7.060  0.2608 -0.0400  1.0660
 8496TIP3   OH249682   1.011   7.715   5.035 -0.5893  0.0399  0.4813
 8496TIP3    H149683   0.988   7.780   5.101  1.1115  0.4399  0.7266
 8496TIP3    H249684   1.035   7.767   4.958 -1.9550 -0.4055 -0.2654
 8497TIP3   OH249685   2.377   2.053   4.754 -0.4441 -0.0970 -0.1983
 8497TIP3    H149686   2.342   1.975   4.712 -0.7761 -0.4346  0.6691
 8497TIP3    H249687   2.317   2.069   4.827 -1.8945  2.4561 -1.7951
 8498TIP3   OH249688   7.483   7.570   5.506 -0.3959 -0.1298 -0.1035
 8498TIP3    H149689   7.561   7.591   5.558  0.1023  1.3563 -1.3615
 8498TIP3    H249690   7.431   7.650   5.508  0.5684  0.7193 -3.4133
 8499TIP3   OH249691   6.809   5.415   6.450 -0.0858  0.2811 -0.5059
 8499TIP3    H149692   6.807   5.335   6.503  1.1343  0.7228  0.2456
 8499TIP3    H249693   6.749   5.397   6.377  0.0288 -1.2514 -0.2559
 8500TIP3   OH249694   3.904   6.693   6.027  0.8018  0.4280 -0.2614
 8500TIP3    H149695   3.820   6.700   6.073  1.1920  2.5917  0.2708
 8500TIP3    H249696   3.945   6.779   6.040  3.1099 -0.5667 -0.5102
 8501TIP3   OH249697   4.206   9.015   6.037 -0.0903 -0.1934  0.1498
 8501TIP3    H149698   4.152   9.087   6.070  0.0535  0.5744 -1.2106
 8501TIP3    H249699   4.271   9.001   6.105 -0.7965  0.2264  0.9249
 8502TIP3   OH249700   4.922   7.503   5.494 -0.3381  0.2789 -0.6000
 8502TIP3    H149701   4.898   7.533   5.581 -1.5044 -2.2682  0.0489
 8502TIP3    H249702   4.980   7.571   5.460 -1.1112  2.1051  1.5165
 8503TIP3   OH249703   1.934   2.432   5.447  0.1490  0.0823  0.3052
 8503TIP3    H149704   1.912   2.410   5.357 -2.1918  1.7518  0.3846
 8503TIP3    H249705   1.913   2.353   5.497 -0.8132 -0.0807 -0.3368
 8504TIP3   OH249706   5.635   5.367   4.998 -0.0079  0.0105  0.0814
 8504TIP3    H149707   5.662   5.293   5.053  0.6716  1.8782  2.4146
 8504TIP3    H249708   5.540   5.361   4.994 -0.1037 -0.0275  1.7568
 8505TIP3   OH249709   1.304   7.325   5.109 -0.4307  0.3550 -0.1039
 8505TIP3    H149710   1.241   7.396   5.122  0.1183  0.8961 -0.3850
 8505TIP3    H249711   1.306   7.279   5.193 -2.3620 -0.6256 -0.5434
 8506TIP3   OH249712   1.956   7.997   6.636 -0.0967  0.1672  0.1316
 8506TIP3    H149713   2.035   8.047   6.614  0.0524 -0.4602 -0.8028
 8506TIP3    H249714   1.884   8.051   6.602  0.0471 -0.1145 -0.6410
 8507TIP3   OH249715   0.171   2.274   4.750  0.0770 -0.0188  0.0227
 8507TIP3    H149716   0.134   2.362   4.754 -0.5018 -0.2745  0.4233
 8507TIP3    H249717   0.223   2.274   4.670  4.2301  2.2622  2.4099
 8508TIP3   OH249718   1.603   8.714   5.582  0.3627 -0.5151  0.2730
 8508TIP3    H149719   1.639   8.628   5.560 -0.4854 -0.8566  0.2033
 8508TIP3    H249720   1.671   8.755   5.636  0.8517 -1.1502  0.1467
 8509TIP3   OH249721   4.261   9.111   5.237  0.2854 -0.4010 -0.6942
 8509TIP3    H149722   4.322   9.178   5.207  1.2120 -0.4077  1.0744
 8509TIP3    H249723   4.199   9.157   5.293 -1.4325 -0.3869 -2.4893
 8510TIP3   OH249724   4.438   5.530   5.543  0.5158  0.5266  0.0463
 8510TIP3    H149725   4.345   5.532   5.565  0.8567  1.3555  1.5349
 8510TIP3    H249726   4.483   5.517   5.626  1.7178 -0.8414 -0.7638
 8511TIP3   OH249727   1.713   7.232   5.072  0.1682  0.2568  0.0876
 8511TIP3    H149728   1.644   7.188   5.023  1.5629  0.5115 -2.2479
 8511TIP3    H249729   1.687   7.324   5.074 -0.5371  0.0516  1.0364
 8512TIP3   OH249730   2.309   9.169   4.875  0.5906 -0.1222 -0.6204
 8512TIP3    H149731   2.232   9.225   4.881 -0.4342 -1.5590 -0.0521
 8512TIP3    H249732   2.277   9.086   4.841  1.7095 -1.0266  0.4248
 8513TIP3   OH249733   0.556   3.239   5.428 -0.3684  0.0807  0.0645
 8513TIP3    H149734   0.650   3.226   5.426 -0.1417  1.5817 -0.3106
 8513TIP3    H249735   0.541   3.295   5.504 -0.9823 -0.2793  0.2152
 8514TIP3   OH249736   3.726   4.609   5.385  0.3451  1.4211  0.2689
 8514TIP3    H149737   3.659   4.636   5.322  0.6990  2.1784  0.2047
 8514TIP3    H249738   3.677   4.571   5.457  0.0090 -1.9571 -1.5486
 8515TIP3   OH249739   2.669   8.759   6.188  0.3690 -0.2391 -0.0218
 8515TIP3    H149740   2.625   8.841   6.163  1.8356  0.4517 -0.4151
 8515TIP3    H249741   2.722   8.782   6.264 -1.0229 -1.4180  1.3821
 8516TIP3   OH249742   1.812   3.756   5.815 -0.2497 -0.4376 -0.1033
 8516TIP3    H149743   1.806   3.718   5.902 -0.4636 -0.2492 -0.0339
 8516TIP3    H249744   1.845   3.685   5.760  1.7071 -0.0458  0.4738
 8517TIP3   OH249745   8.893   3.633   5.044  0.6091 -0.0850 -0.0342
 8517TIP3    H149746   8.966   3.578   5.017  0.4996 -0.2028 -0.0929
 8517TIP3    H249747   8.930   3.691   5.111  0.8504  0.1196 -0.3408
 8518TIP3   OH249748   5.845   3.973   5.751 -0.2100 -0.1954  0.4731
 8518TIP3    H149749   5.838   3.880   5.773  1.1333 -0.6628 -0.9213
 8518TIP3    H249750   5.932   3.999   5.782  1.7309 -0.8532 -3.8071
 8519TIP3   OH249751   2.256   7.332   5.723 -0.2789 -0.1030  0.2330
 8519TIP3    H149752   2.171   7.341   5.764 -0.4063  0.3679 -0.1234
 8519TIP3    H249753   2.251   7.249   5.674 -1.2876  0.9308 -1.5176
 8520TIP3   OH249754   1.215   6.109   4.812 -0.0172 -0.2187 -0.3009
 8520TIP3    H149755   1.165   6.063   4.744  1.3513  0.3065 -1.7316
 8520TIP3    H249756   1.281   6.045   4.840  0.8498  0.2972 -1.1179
 8521TIP3   OH249757   6.171   6.767   5.130  0.5798  0.5928  0.5234
 8521TIP3    H149758   6.255   6.807   5.154 -0.4609  4.3417 -1.3306
 8521TIP3    H249759   6.157   6.792   5.039 -2.1551 -0.6551  0.5000
 8522TIP3   OH249760   6.351   3.561   5.511  0.3302 -0.1216  0.0198
 8522TIP3    H149761   6.302   3.479   5.519 -2.0580  1.0782 -1.1469
 8522TIP3    H249762   6.298   3.614   5.451  0.9684  2.8541  1.8929
 8523TIP3   OH249763   3.228   5.101   5.588  0.7501 -0.1630 -0.1181
 8523TIP3    H149764   3.173   5.120   5.512  0.8715 -1.1036 -0.4494
 8523TIP3    H249765   3.167   5.094   5.661  0.5594  0.0394 -0.2557
 8524TIP3   OH249766   3.591   3.142   7.009 -0.2319  0.4547  0.1453
 8524TIP3    H149767   3.600   3.050   7.035  0.8837  0.8932  1.4439
 8524TIP3    H249768   3.584   3.139   6.913  1.4231 -0.9027  0.0136
 8525TIP3   OH249769   5.349   7.308   7.198  0.2368  0.6724 -0.4979
 8525TIP3    H149770   5.271   7.255   7.215  1.1031 -0.1443  1.0752
 8525TIP3    H249771   5.402   7.253   7.140 -0.4249  1.3262 -1.7632
 8526TIP3   OH249772   0.131   7.356   5.225  0.5347 -0.5458  0.0792
 8526TIP3    H149773   0.046   7.388   5.196  0.8029 -0.8965 -1.1940
 8526TIP3    H249774   0.114   7.311   5.307 -0.3925 -0.0337  0.1743
 8527TIP3   OH249775   4.254   0.719   5.864 -0.3841  0.0626  0.0935
 8527TIP3    H149776   4.233   0.803   5.903 -0.5811 -0.0921  0.3275
 8527TIP3    H249777   4.308   0.740   5.787  0.3122  0.3514  0.6476
 8528TIP3   OH249778   7.020   2.632   5.507 -0.1966 -0.3228  0.3006
 8528TIP3    H149779   7.054   2.582   5.433  1.7154 -1.3923  1.7802
 8528TIP3    H249780   6.925   2.629   5.497 -0.0259 -1.5648 -1.3746
 8529TIP3   OH249781   4.186   8.452   6.226 -0.0027 -0.1741 -1.0247
 8529TIP3    H149782   4.198   8.367   6.267  0.8917  0.9221  1.1353
 8529TIP3    H249783   4.106   8.443   6.175  1.1386 -2.9004 -2.5918
 8530TIP3   OH249784   6.590   2.448   6.664 -0.5283 -0.2118 -0.1404
 8530TIP3    H149785   6.553   2.529   6.699  2.0225  1.3967 -0.8972
 8530TIP3    H249786   6.589   2.461   6.569  1.9286  0.0031 -0.2073
 8531TIP3   OH249787   9.115   8.393   7.066 -0.0552 -0.6066  0.0674
 8531TIP3    H149788   9.143   8.484   7.057 -0.5948 -0.4146  0.3197
 8531TIP3    H249789   9.189   8.342   7.032  0.1301 -0.0673 -0.3481
 8532TIP3   OH249790   3.418   4.321   5.777 -0.0077  0.2143 -0.2341
 8532TIP3    H149791   3.475   4.379   5.828 -0.6013  0.6584 -0.0619
 8532TIP3    H249792   3.424   4.236   5.821 -1.1838  0.7998  1.1232
 8533TIP3   OH249793   1.698   6.819   6.181  0.2279 -0.2820  0.2486
 8533TIP3    H149794   1.614   6.841   6.221 -0.0293 -1.6210  0.4649
 8533TIP3    H249795   1.763   6.862   6.237 -0.2854  0.6261  0.1723
 8534TIP3   OH249796   5.874   9.045   5.239 -0.1730 -0.4310 -0.0700
 8534TIP3    H149797   5.878   9.054   5.143  0.6798 -0.1074 -0.0126
 8534TIP3    H249798   5.808   8.977   5.254 -2.5324  1.5693 -0.7731
 8535TIP3   OH249799   3.032   0.083   6.010 -0.7146  0.0922 -0.0982
 8535TIP3    H149800   3.045  -0.004   6.048 -2.3035 -1.0244 -1.8968
 8535TIP3    H249801   3.053   0.071   5.917  0.6150  2.0772 -0.1229
 8536TIP3   OH249802   6.437   0.167   5.852  0.2594  0.7450  0.4484
 8536TIP3    H149803   6.485   0.087   5.874  0.0699 -0.0477 -1.7093
 8536TIP3    H249804   6.492   0.211   5.788 -0.6896  1.1546 -0.1153
 8537TIP3   OH249805   1.151   8.700   5.148  0.5299 -0.7621  0.2219
 8537TIP3    H149806   1.183   8.743   5.227  2.0392  1.1291 -1.3296
 8537TIP3    H249807   1.186   8.611   5.153  1.8273 -0.2221  0.9772
 8538TIP3   OH249808   8.346   9.079   4.429  0.5239  0.1685  0.3018
 8538TIP3    H149809   8.441   9.076   4.442  0.7738 -0.4450 -1.3826
 8538TIP3    H249810   8.321   8.988   4.412 -0.3404  0.3395  0.6006
 8539TIP3   OH249811   8.578   2.475   6.428 -0.0271  0.1340  0.2876
 8539TIP3    H149812   8.522   2.486   6.505 -0.7031 -0.0785 -0.1609
 8539TIP3    H249813   8.605   2.383   6.432  0.8300  0.3953  0.8497
 8540TIP3   OH249814   0.868   0.617   6.154 -0.2285 -0.0577  0.2798
 8540TIP3    H149815   0.863   0.558   6.079  0.3965 -0.4678  0.5530
 8540TIP3    H249816   0.821   0.696   6.126 -1.2846 -0.7672 -0.0037
 8541TIP3   OH249817   1.660   7.583   4.722 -0.4315  0.0661 -0.1469
 8541TIP3    H149818   1.668   7.670   4.683 -3.6060  0.3314 -0.5315
 8541TIP3    H249819   1.569   7.578   4.751  0.1403 -2.4561  1.6260
 8542TIP3   OH249820   2.333   0.239   5.604 -0.5248  0.4768  0.2131
 8542TIP3    H149821   2.383   0.282   5.535 -0.4576  2.1694  1.2486
 8542TIP3    H249822   2.385   0.162   5.628  0.7830  1.3181  0.1618
 8543TIP3   OH249823   7.041   3.399   6.044  0.1314  0.1533  0.8777
 8543TIP3    H149824   7.040   3.412   5.949 -0.0971  0.3246  0.9006
 8543TIP3    H249825   7.054   3.305   6.056 -2.0779 -0.2455  0.6279
 8544TIP3   OH249826   7.126   6.387   4.977 -0.2637  0.0000  0.5901
 8544TIP3    H149827   7.195   6.444   5.010 -0.4806  0.3975  0.3596
 8544TIP3    H249828   7.050   6.444   4.967  0.1839  0.2879 -2.0210
 8545TIP3   OH249829   3.800   5.583   5.697  0.2317  0.5302  0.0671
 8545TIP3    H149830   3.819   5.644   5.626  2.1866  1.1747  1.0756
 8545TIP3    H249831   3.737   5.630   5.752 -2.2078 -0.4190 -1.7234
 8546TIP3   OH249832   1.204   6.929   5.423 -0.7212 -0.6951 -0.0818
 8546TIP3    H149833   1.209   7.024   5.415 -1.0609 -0.8398 -2.5816
 8546TIP3    H249834   1.113   6.908   5.400 -0.5167 -1.6755 -0.0057
 8547TIP3   OH249835   5.932   1.628   6.334  0.2104 -0.5170  0.0084
 8547TIP3    H149836   6.003   1.675   6.290 -2.5498  2.3195 -1.8513
 8547TIP3    H249837   5.912   1.681   6.411  1.0831 -2.2283  1.4936
 8548TIP3   OH249838   9.001   0.018   4.848 -0.3426 -0.5623  0.2128
 8548TIP3    H149839   8.985  -0.064   4.802 -0.0383 -0.0292 -0.8820
 8548TIP3    H249840   9.041  -0.008   4.931 -1.0529 -1.5521  0.2550
 8549TIP3   OH249841   4.840   4.879   6.278  0.1792 -0.4399 -0.1507
 8549TIP3    H149842   4.853   4.955   6.334 -1.1087  1.7767 -2.6555
 8549TIP3    H249843   4.759   4.839   6.311  0.1507  0.0488  0.3865
 8550TIP3   OH249844   6.301   1.529  10.131 -0.1242  0.1403  0.0297
 8550TIP3    H149845   6.289   1.443  10.092  0.4900 -0.4903  1.1590
 8550TIP3    H249846   6.212   1.559  10.151 -0.3240 -0.3989 -0.0265
 8551TIP3   OH249847   2.106   5.579   5.454  1.1136 -0.3071  0.0971
 8551TIP3    H149848   2.063   5.517   5.395  1.9313 -2.1028  1.2964
 8551TIP3    H249849   2.190   5.598   5.413  1.3534 -0.9384  0.2851
 8552TIP3   OH249850   8.270   7.635   4.952 -0.0211 -0.3063  0.3343
 8552TIP3    H149851   8.225   7.584   5.020  1.6332 -1.1286  0.8409
 8552TIP3    H249852   8.353   7.660   4.992  0.7570 -0.3407 -1.2256
 8553TIP3   OH249853   7.592   1.475   7.032  0.5646 -0.0867 -0.2106
 8553TIP3    H149854   7.502   1.447   7.053  0.6292 -0.2915 -0.2030
 8553TIP3    H249855   7.645   1.396   7.046  0.7691  0.0770 -0.0583
 8554TIP3   OH249856   8.979   8.977   4.794  0.1745 -0.4469 -0.0386
 8554TIP3    H149857   8.985   8.909   4.862  0.3235  1.2355  1.7368
 8554TIP3    H249858   8.897   8.958   4.749 -0.4484 -1.0553  1.2744
 8555TIP3   OH249859   5.986   6.964   5.228  0.4471 -0.0613 -0.2023
 8555TIP3    H149860   5.991   7.040   5.170  1.1842 -0.4105 -0.6188
 8555TIP3    H249861   6.066   6.914   5.208  1.2407  0.2993  1.7901
 8556TIP3   OH249862   8.573   6.502   6.711 -0.2277  0.1125 -0.0125
 8556TIP3    H149863   8.656   6.455   6.718 -0.5895 -0.4174  0.9005
 8556TIP3    H249864   8.559   6.540   6.797 -1.8139 -1.3571  0.4425
 8557TIP3   OH249865   8.439   0.590   7.047  0.5240 -0.0639 -0.0319
 8557TIP3    H149866   8.500   0.659   7.019  3.9330 -2.6456  0.3674
 8557TIP3    H249867   8.426   0.606   7.141 -0.0048  0.8987 -0.2597
 8558TIP3   OH249868   6.223   3.282   5.483 -0.6365 -0.3040 -0.4733
 8558TIP3    H149869   6.221   3.311   5.392 -1.9085  0.0931 -0.3440
 8558TIP3    H249870   6.213   3.187   5.478 -0.1892 -0.3401 -0.7590
 8559TIP3   OH249871   4.863   4.595   5.089 -0.3277  0.1576  0.3052
 8559TIP3    H149872   4.862   4.501   5.070  1.0836  0.0311  0.7068
 8559TIP3    H249873   4.774   4.625   5.071 -1.2176 -1.5450  1.6218
 8560TIP3   OH249874   6.248   1.764   5.197 -0.1352 -0.3881 -0.5329
 8560TIP3    H149875   6.276   1.848   5.158 -0.1233  0.3430  0.9849
 8560TIP3    H249876   6.166   1.784   5.242  0.5182 -0.8675  0.9321
 8561TIP3   OH249877   4.891   2.013   6.254 -0.1674  0.0248  0.3691
 8561TIP3    H149878   4.846   1.955   6.314 -0.9108  0.4543  0.2360
 8561TIP3    H249879   4.910   2.092   6.305  0.1739 -0.0408  0.3454
 8562TIP3   OH249880   6.971   2.154  10.361 -0.4165  0.0271  0.4047
 8562TIP3    H149881   7.045   2.177  10.305 -0.1235  0.7221  1.0703
 8562TIP3    H249882   6.978   2.212  10.436 -2.2171  0.8420  0.0152
 8563TIP3   OH249883   6.317   4.145   5.382  0.3772 -0.4783  0.1678
 8563TIP3    H149884   6.291   4.194   5.460  0.2390 -1.0244  0.4668
 8563TIP3    H249885   6.282   4.196   5.309  0.0418 -0.2455  0.4874
 8564TIP3   OH249886   6.686   2.688   5.161 -0.6140 -0.3046  0.0486
 8564TIP3    H149887   6.594   2.699   5.185 -0.4755  0.9658  0.0539
 8564TIP3    H249888   6.717   2.777   5.140  0.2734 -0.8761 -1.2019
 8565TIP3   OH249889   6.224   4.274   6.279  0.1499  0.3686 -0.1199
 8565TIP3    H149890   6.202   4.347   6.336  4.7456  0.7104  1.6305
 8565TIP3    H249891   6.222   4.197   6.336  0.7444  0.0448 -0.5193
 8566TIP3   OH249892   6.922   4.873   5.525 -0.0311 -0.2951  0.3505
 8566TIP3    H149893   7.016   4.877   5.541 -0.4550 -0.2246  3.3631
 8566TIP3    H249894   6.905   4.943   5.462  1.7936  0.4107  0.5904
 8567TIP3   OH249895   3.212   1.186   5.710 -0.3365  0.1941  1.0686
 8567TIP3    H149896   3.256   1.116   5.758  0.0741 -0.4566 -0.2036
 8567TIP3    H249897   3.282   1.243   5.679 -0.7228  1.7735  2.9134
 8568TIP3   OH249898   2.946   7.753   6.205 -0.6255  0.0837  0.4407
 8568TIP3    H149899   3.034   7.772   6.172 -1.9092  0.9048 -2.8544
 8568TIP3    H249900   2.937   7.808   6.283  1.7025  0.0109  0.8210
 8569TIP3   OH249901   1.288   0.519   5.304 -0.4357  0.5097 -0.2942
 8569TIP3    H149902   1.373   0.522   5.261 -0.1119 -0.2408  0.2769
 8569TIP3    H249903   1.308   0.511   5.397 -1.1330  1.2837 -0.0580
 8570TIP3   OH249904   0.293   1.818   6.297 -0.1935  0.2162  0.0626
 8570TIP3    H149905   0.246   1.755   6.351  1.0943  0.2252  1.2574
 8570TIP3    H249906   0.364   1.767   6.257 -0.0773  0.5794 -0.1959
 8571TIP3   OH249907   4.237   7.290   6.672 -0.7601 -0.3139  0.4392
 8571TIP3    H149908   4.184   7.265   6.747 -1.2262  3.7331  1.7047
 8571TIP3    H249909   4.193   7.368   6.636  2.2414  0.9846 -0.7706
 8572TIP3   OH249910   6.420   3.914   6.208  0.0041 -0.1686  0.5376
 8572TIP3    H149911   6.475   3.867   6.270  2.2701  2.8419  1.0275
 8572TIP3    H249912   6.440   3.876   6.123  1.7329 -0.1479  0.9134
 8573TIP3   OH249913   2.408   8.038   6.235  0.6526  0.3099  0.3988
 8573TIP3    H149914   2.419   8.071   6.324  0.6233  0.1249  0.4703
 8573TIP3    H249915   2.496   8.043   6.196  0.1959  3.2138 -0.5480
 8574TIP3   OH249916   6.070   5.716   5.287 -1.0265  0.3505 -0.2682
 8574TIP3    H149917   6.077   5.621   5.299 -1.4950  0.3410 -0.0791
 8574TIP3    H249918   6.013   5.727   5.211 -3.6342  0.5190  1.6012
 8575TIP3   OH249919   8.331   9.007   6.102  0.0163 -0.5708  0.2488
 8575TIP3    H149920   8.289   9.067   6.040 -1.4247 -1.9265 -0.1372
 8575TIP3    H249921   8.347   9.061   6.179  2.1767  1.2649 -1.3217
 8576TIP3   OH249922   5.964   8.384   6.188  0.1183  0.2523 -0.1905
 8576TIP3    H149923   5.891   8.433   6.150 -0.7975 -0.4438  0.6022
 8576TIP3    H249924   5.985   8.317   6.124 -1.0421 -0.5622  0.2386
 8577TIP3   OH249925   7.845   8.497   5.433  0.2523 -0.4757  0.2637
 8577TIP3    H149926   7.910   8.472   5.499 -0.9343 -2.7416  0.6454
 8577TIP3    H249927   7.866   8.443   5.357  0.7526  1.1233 -0.7850
 8578TIP3   OH249928   2.434   8.131   4.855  0.2454 -0.0395 -0.1722
 8578TIP3    H149929   2.439   8.040   4.827  0.5874  0.4995 -1.9899
 8578TIP3    H249930   2.518   8.147   4.898  0.7844 -0.1887 -1.1491
 8579TIP3   OH249931   9.023   8.639   4.741 -0.1196  0.1284  0.3877
 8579TIP3    H149932   9.033   8.694   4.818 -2.3103  2.2115 -0.7058
 8579TIP3    H249933   9.046   8.696   4.667  1.0662 -1.5433 -0.6052
 8580TIP3   OH249934   5.753   2.747   5.819 -1.0268  0.0882  0.6376
 8580TIP3    H149935   5.806   2.738   5.898  0.9764 -0.2003 -0.6595
 8580TIP3    H249936   5.760   2.839   5.796 -0.9454  0.0185  0.3781
 8581TIP3   OH249937   7.479   1.948   5.406 -0.2113 -0.2225  0.0541
 8581TIP3    H149938   7.392   1.981   5.383  0.4771  2.1448  0.5665
 8581TIP3    H249939   7.539   2.018   5.379  1.3229 -0.8411  1.6754
 8582TIP3   OH249940   1.566   3.343   6.241  0.5425  0.2604  0.1661
 8582TIP3    H149941   1.620   3.420   6.259  1.2765  0.5346 -2.7770
 8582TIP3    H249942   1.621   3.268   6.263 -0.4076  0.4121  3.7097
 8583TIP3   OH249943   5.374   2.509   5.786 -0.0494  0.6525  0.1189
 8583TIP3    H149944   5.450   2.540   5.835  1.6446 -1.1211 -1.2320
 8583TIP3    H249945   5.318   2.466   5.851  0.3012  1.5750  1.0513
 8584TIP3   OH249946   0.135   3.222   5.899  0.0443 -0.4660 -0.6038
 8584TIP3    H149947   0.072   3.219   5.971  1.6528 -1.8394  0.8443
 8584TIP3    H249948   0.082   3.234   5.821 -1.9928 -1.3604  0.5651
 8585TIP3   OH249949   7.927   3.322   5.867  0.0393  0.2272  0.3311
 8585TIP3    H149950   7.980   3.359   5.797 -1.3406  0.4561 -0.6291
 8585TIP3    H249951   7.869   3.394   5.894 -2.0316 -0.8862 -0.9206
 8586TIP3   OH249952   7.295   8.370   6.676  0.0422 -0.0116  0.1340
 8586TIP3    H149953   7.385   8.381   6.646  0.3408  1.1066  1.3668
 8586TIP3    H249954   7.243   8.419   6.613  0.4165  0.3378  0.0909
 8587TIP3   OH249955   8.679   4.783   5.929  0.1110 -0.1270 -0.1172
 8587TIP3    H149956   8.605   4.828   5.889 -0.0797 -1.6533 -1.5463
 8587TIP3    H249957   8.713   4.726   5.861  2.4210  0.2649  0.6078
 8588TIP3   OH249958   3.564   3.534   5.546 -0.0063  0.3259 -0.4844
 8588TIP3    H149959   3.524   3.543   5.460 -1.3232  0.9598  0.1611
 8588TIP3    H249960   3.545   3.444   5.572 -0.4923  0.4448 -0.4295
 8589TIP3   OH249961   0.783   5.991   5.575 -0.0223 -0.7327 -0.9650
 8589TIP3    H149962   0.831   6.020   5.498 -0.1212  1.6697 -0.2132
 8589TIP3    H249963   0.849   5.991   5.645 -0.2847 -1.2798 -0.7095
 8590TIP3   OH249964   5.798   5.848   5.707  0.7595  0.3651 -0.0910
 8590TIP3    H149965   5.849   5.906   5.651 -0.2838  0.4222 -1.0206
 8590TIP3    H249966   5.733   5.906   5.748  0.1068 -0.0278 -0.5477
 8591TIP3   OH249967   0.120   7.973   6.319  0.5464  0.2692  0.8092
 8591TIP3    H149968   0.195   7.982   6.377  1.0351  0.8446  0.0933
 8591TIP3    H249969   0.081   7.889   6.344  1.4634 -0.0727  1.1360
 8592TIP3   OH249970   8.372   1.076   6.808 -0.0779 -0.3238 -0.5616
 8592TIP3    H149971   8.323   1.002   6.772 -0.6764  0.0691 -0.5644
 8592TIP3    H249972   8.463   1.046   6.809 -0.3706 -1.2290 -0.1266
 8593TIP3   OH249973   4.229   4.710   6.211  0.2889 -0.1832 -0.0792
 8593TIP3    H149974   4.309   4.687   6.163  0.3604 -0.6176  0.2526
 8593TIP3    H249975   4.255   4.782   6.269  0.7682 -1.2157  1.0092
 8594TIP3   OH249976   2.777   8.013   6.896 -0.5009 -0.5851  0.5758
 8594TIP3    H149977   2.836   7.938   6.899  1.8198  1.0471 -0.9263
 8594TIP3    H249978   2.756   8.024   6.803 -1.4000  0.2059  0.8481
 8595TIP3   OH249979   0.065   5.748   5.361  0.0902  0.4590  0.7364
 8595TIP3    H149980   0.157   5.732   5.384  0.2060  2.0444  1.5466
 8595TIP3    H249981   0.067   5.771   5.269  0.2258 -1.3885  0.2319
 8596TIP3   OH249982   4.357   3.261   6.197  0.0841  0.6492 -0.1550
 8596TIP3    H149983   4.362   3.315   6.276  0.7573  0.5291 -0.1082
 8596TIP3    H249984   4.370   3.322   6.125 -0.1238  0.6969 -0.1528
 8597TIP3   OH249985   8.551   8.053   6.536  0.0055  0.1057 -0.1019
 8597TIP3    H149986   8.558   8.088   6.625  0.2283  2.0703 -0.8653
 8597TIP3    H249987   8.483   7.985   6.544  0.7279 -0.4744  1.7500
 8598TIP3   OH249988   5.105   6.118   5.508 -0.4355 -0.1736 -0.2721
 8598TIP3    H149989   5.145   6.171   5.577  1.9884  0.0592 -1.7503
 8598TIP3    H249990   5.018   6.156   5.496  1.0601  3.3964 -1.0802
 8599TIP3   OH249991   0.459   6.415   4.633 -0.2536  0.1042  0.2018
 8599TIP3    H149992   0.473   6.433   4.540 -1.7906 -1.1268 -0.3275
 8599TIP3    H249993   0.474   6.498   4.677  1.6305  0.4539 -0.9880
 8600TIP3   OH249994   5.087   9.091   5.446  0.6886  0.3346  0.0862
 8600TIP3    H149995   5.112   9.143   5.522  0.3198  0.5843  0.0423
 8600TIP3    H249996   5.015   9.140   5.406  1.1920  0.4521 -0.6982
 8601TIP3   OH249997   0.142   1.688   5.188  0.0841  0.4405 -0.2591
 8601TIP3    H149998   0.164   1.726   5.102 -3.0661 -0.1873 -1.4567
 8601TIP3    H249999   0.141   1.594   5.173  2.3270  0.0976  1.2870
 8602TIP3   OH250000   8.105   5.379   5.527  0.1937 -0.1380 -0.1935
 8602TIP3    H150001   8.169   5.331   5.578 -1.2392 -0.7049  1.1628
 8602TIP3    H250002   8.043   5.313   5.497 -0.1909  0.4835 -0.8101
 8603TIP3   OH250003   4.136   3.113   7.062 -0.0048 -0.2320 -0.3088
 8603TIP3    H150004   4.155   3.204   7.039  0.6122 -0.1319  0.5294
 8603TIP3    H250005   4.047   3.116   7.097  0.4821  0.3128  0.9703
 8604TIP3   OH250006   7.555   4.421   5.517  0.3463 -0.7780 -0.0646
 8604TIP3    H150007   7.498   4.464   5.581  0.3129 -0.6984 -0.1467
 8604TIP3    H250008   7.639   4.465   5.526  0.4616 -1.0446  0.2130
 8605TIP3   OH250009   2.726   2.436   6.718  0.2486  0.0275  0.6858
 8605TIP3    H150010   2.792   2.465   6.655  0.1069  0.2493  0.6373
 8605TIP3    H250011   2.697   2.517   6.761 -0.8614  0.0865 -0.1401
 8606TIP3   OH250012   6.245   4.481   5.407 -0.5964  0.4682  0.0761
 8606TIP3    H150013   6.273   4.569   5.431  0.7668  0.1056 -0.1200
 8606TIP3    H250014   6.250   4.480   5.311 -3.3932  1.0542 -0.1674
 8607TIP3   OH250015   3.792   5.369   6.666 -0.0306  0.0505  0.2805
 8607TIP3    H150016   3.780   5.296   6.606 -1.7358  0.2774  0.2939
 8607TIP3    H250017   3.887   5.382   6.670  0.2024 -1.0630 -1.0211
 8608TIP3   OH250018   1.032   5.897   4.738  1.0045 -0.6523  0.1691
 8608TIP3    H150019   1.115   5.867   4.775  1.9233  2.3766  0.8714
 8608TIP3    H250020   0.992   5.949   4.808 -1.9131 -2.5887  0.0916
 8609TIP3   OH250021   1.140   0.576   5.085  0.0278  0.5298 -0.3916
 8609TIP3    H150022   1.180   0.549   5.168  1.0092  0.6466 -0.8098
 8609TIP3    H250023   1.110   0.495   5.045  0.3540  0.3758 -0.3259
 8610TIP3   OH250024   2.581   2.756   5.944  0.2188  0.3524 -0.1199
 8610TIP3    H150025   2.553   2.740   5.854  0.4841  0.2267 -0.1803
 8610TIP3    H250026   2.597   2.669   5.980  2.8174  0.4807 -0.8135
 8611TIP3   OH250027   8.050   8.073   5.618 -0.0580  0.1356 -0.0041
 8611TIP3    H150028   8.138   8.041   5.637  0.0052 -0.0767 -0.6299
 8611TIP3    H250029   7.999   7.994   5.601 -0.6031  0.1964  1.2884
 8612TIP3   OH250030   5.907   6.084   6.048  0.1793 -0.0180 -0.7691
 8612TIP3    H150031   5.933   6.164   6.093  3.2264 -0.0747 -2.2169
 8612TIP3    H250032   5.983   6.059   5.996 -0.8376 -3.5897 -0.8159
 8613TIP3   OH250033   6.773   6.356   6.277  0.0699  0.3010  0.9629
 8613TIP3    H150034   6.731   6.441   6.268  0.5721  0.5470  0.9134
 8613TIP3    H250035   6.797   6.350   6.370 -1.5496 -0.5473  1.3609
 8614TIP3   OH250036   7.574   8.083   6.999 -0.0812 -0.2190 -0.2991
 8614TIP3    H150037   7.492   8.126   6.976 -1.2796 -1.2738  1.7118
 8614TIP3    H250038   7.557   7.990   6.985  0.9414 -0.4228 -0.2876
 8615TIP3   OH250039   7.692   8.958   6.663 -0.4336  0.7392 -0.0348
 8615TIP3    H150040   7.775   8.912   6.654  0.1017  1.6473  0.1380
 8615TIP3    H250041   7.716   9.047   6.688 -1.4654  0.9861  0.1351
 8616TIP3   OH250042   1.724   0.423   5.345 -0.6992 -0.1619  0.3004
 8616TIP3    H150043   1.819   0.421   5.348 -0.6652  1.2294  1.9355
 8616TIP3    H250044   1.697   0.332   5.331  0.8446 -0.7708  1.1118
 8617TIP3   OH250045   3.042   6.886   5.418 -0.2177 -0.7184  0.0087
 8617TIP3    H150046   3.050   6.963   5.475  1.2265 -1.0393  0.2844
 8617TIP3    H250047   2.954   6.854   5.434 -0.6582  0.5620  0.2997
 8618TIP3   OH250048   1.699   1.847   6.533  0.1045 -0.0919 -0.3257
 8618TIP3    H150049   1.608   1.846   6.505 -0.0478 -1.3914  0.1266
 8618TIP3    H250050   1.736   1.765   6.499  1.4746  1.0143 -1.6114
 8619TIP3   OH250051   6.628   5.205   5.214 -0.9115 -0.0667 -0.6451
 8619TIP3    H150052   6.632   5.149   5.137  0.1423 -0.8063 -0.0745
 8619TIP3    H250053   6.536   5.203   5.241 -0.6540 -2.8714  0.3165
 8620TIP3   OH250054   0.257   4.426   5.792  0.4843  0.1126  0.3317
 8620TIP3    H150055   0.272   4.520   5.797 -1.3388  0.3874  1.8187
 8620TIP3    H250056   0.264   4.396   5.883 -1.6969 -0.6620  0.3048
 8621TIP3   OH250057   3.819   7.897   5.194 -0.0802 -0.2746 -0.0258
 8621TIP3    H150058   3.770   7.978   5.207  0.5511  0.1442 -0.2074
 8621TIP3    H250059   3.909   7.920   5.215  0.2877 -0.6403 -1.1078
 8622TIP3   OH250060   7.685   0.965   5.009  0.1633  0.1262  0.3557
 8622TIP3    H150061   7.775   0.943   4.987 -0.0222 -1.1981  0.8412
 8622TIP3    H250062   7.640   0.881   5.012 -1.4410  0.8636 -1.3035
 8623TIP3   OH250063   5.965   8.561   5.820 -0.0359 -0.7830 -0.0678
 8623TIP3    H150064   6.011   8.644   5.813 -0.8783 -0.2380  0.7742
 8623TIP3    H250065   6.035   8.495   5.815  0.5502 -0.0968 -1.7104
 8624TIP3   OH250066   6.952   2.618   5.168  0.1390  0.2230 -0.2058
 8624TIP3    H150067   6.973   2.706   5.136 -2.1103  0.0336 -2.5553
 8624TIP3    H250068   6.856   2.617   5.172  0.0298 -2.4430 -1.4203
 8625TIP3   OH250069   7.569   4.950   6.052 -0.4869 -0.4647  0.1140
 8625TIP3    H150070   7.546   4.862   6.080  1.9342 -1.1438  0.1373
 8625TIP3    H250071   7.653   4.968   6.094 -0.6178  1.6176 -0.3981
 8626TIP3   OH250072   4.090   4.431   5.849  0.2588 -0.3537 -0.0099
 8626TIP3    H150073   4.162   4.466   5.796  0.3382 -1.0295 -0.3589
 8626TIP3    H250074   4.100   4.336   5.844 -1.4630 -0.5218 -1.2388
 8627TIP3   OH250075   8.168   5.723   5.928  0.4980 -0.3231  0.3224
 8627TIP3    H150076   8.115   5.711   5.849  0.9151 -3.1621  0.3751
 8627TIP3    H250077   8.160   5.816   5.948 -2.5018 -0.1843 -1.0089
 8628TIP3   OH250078   7.217   1.382   6.198 -0.4317 -0.1384  0.0864
 8628TIP3    H150079   7.244   1.426   6.118 -0.6939 -0.7733 -0.3585
 8628TIP3    H250080   7.192   1.454   6.257  0.6512  0.3745 -0.0595
 8629TIP3   OH250081   6.570   3.765   5.142 -0.0820 -0.8921  0.0373
 8629TIP3    H150082   6.592   3.698   5.206  1.1957  0.1765  0.7741
 8629TIP3    H250083   6.618   3.843   5.171 -2.4848  0.7150 -0.0714
 8630TIP3   OH250084   8.711   6.224   6.428 -0.6213  0.8928  0.1630
 8630TIP3    H150085   8.732   6.291   6.493  0.9871 -0.6001  1.2516
 8630TIP3    H250086   8.737   6.142   6.469 -0.0352 -0.1606 -2.1680
 8631TIP3   OH250087   7.005   0.944   6.799 -0.1555  0.4039 -0.1535
 8631TIP3    H150088   7.086   0.995   6.786  0.1311 -0.2030 -0.7771
 8631TIP3    H250089   6.945   0.976   6.732 -0.8222  1.5933  0.9597
 8632TIP3   OH250090   0.322   1.823   6.887 -0.9800  0.5434  0.4101
 8632TIP3    H150091   0.367   1.902   6.919 -2.2117  1.6530 -0.5207
 8632TIP3    H250092   0.374   1.751   6.922  0.7636  1.7594  0.4625
 8633TIP3   OH250093   2.776   0.906   5.992 -0.0526  0.1451 -0.3417
 8633TIP3    H150094   2.815   0.927   5.907 -0.2445 -0.0211 -0.4721
 8633TIP3    H250095   2.844   0.856   6.037  0.0044  0.1277 -0.4444
 8634TIP3   OH250096   5.532   7.112   5.233 -0.1300 -0.1832 -0.6731
 8634TIP3    H150097   5.582   7.031   5.246 -0.9892 -0.5080  0.9194
 8634TIP3    H250098   5.464   7.089   5.169 -0.5994 -0.8613  0.0464
 8635TIP3   OH250099   4.176   7.917   6.625 -0.0781 -0.2838  0.3930
 8635TIP3    H150100   4.119   7.953   6.694 -1.2770 -0.4067 -0.4991
 8635TIP3    H250101   4.254   7.972   6.627 -1.0055  1.0780  0.4289
 8636TIP3   OH250102   8.752   8.543   4.730 -0.6642 -0.5994  0.1730
 8636TIP3    H150103   8.695   8.595   4.673 -1.2699 -0.3378  1.0029
 8636TIP3    H250104   8.836   8.589   4.727 -1.3571  0.8174  1.3747
 8637TIP3   OH250105   5.451   6.913   5.491 -0.7760  0.1158  0.1738
 8637TIP3    H150106   5.410   6.910   5.404 -0.6700  0.2182  0.1212
 8637TIP3    H250107   5.382   6.948   5.548 -0.6730  0.5453  0.0356
 8638TIP3   OH250108   9.073   6.918   5.370 -0.3437 -0.6234  0.7811
 8638TIP3    H150109   9.153   6.921   5.422 -0.3767 -0.2506  0.8211
 8638TIP3    H250110   9.098   6.955   5.285 -0.6952  0.4120  1.1149
 8639TIP3   OH250111   3.540   3.712   6.419  0.1346 -0.0669  0.3101
 8639TIP3    H150112   3.597   3.784   6.445 -0.8706  0.3241  1.5684
 8639TIP3    H250113   3.453   3.738   6.449 -0.1506 -2.1109  1.5094
 8640TIP3   OH250114   8.541   2.542   5.236 -0.3817  0.4202  0.0874
 8640TIP3    H150115   8.447   2.549   5.215 -0.0164  1.8599 -1.2818
 8640TIP3    H250116   8.584   2.531   5.151  0.7652  0.8002  0.6028
 8641TIP3   OH250117   2.241   2.521   6.248 -0.3784 -0.6398 -0.2420
 8641TIP3    H150118   2.238   2.427   6.227 -2.2434 -0.8604  0.8006
 8641TIP3    H250119   2.150   2.547   6.256  0.0667  0.4535  2.7954
 8642TIP3   OH250120   0.401   5.505   5.773  0.8996 -0.6585 -0.2561
 8642TIP3    H150121   0.456   5.525   5.848  0.1280 -1.2570  0.4805
 8642TIP3    H250122   0.456   5.526   5.697  1.3957  0.7357  0.4568
 8643TIP3   OH250123   8.826   7.525   4.855  0.0283  0.3068  0.1050
 8643TIP3    H150124   8.733   7.503   4.864  0.2337 -1.4096 -1.4198
 8643TIP3    H250125   8.861   7.516   4.944 -1.0152 -0.3276  0.4760
 8644TIP3   OH250126   6.528   8.482   6.656 -0.1828 -0.7432  0.3379
 8644TIP3    H150127   6.472   8.534   6.713 -0.1725  0.4142 -0.6642
 8644TIP3    H250128   6.514   8.519   6.569  1.5481 -0.9247 -0.0542
 8645TIP3   OH250129   4.581   5.437   5.178 -0.4381  0.4342 -0.6746
 8645TIP3    H150130   4.625   5.483   5.249  0.3547 -0.7083 -0.3831
 8645TIP3    H250131   4.568   5.503   5.110  0.8930  1.0325 -0.3873
 8646TIP3   OH250132   0.473   0.271   6.296 -0.2390 -0.2671  0.1195
 8646TIP3    H150133   0.496   0.275   6.389  1.3764 -0.7446 -0.2161
 8646TIP3    H250134   0.442   0.359   6.275 -0.2995 -0.0545  1.0190
 8647TIP3   OH250135   2.002   8.453   4.802  0.0545  0.5816 -0.3898
 8647TIP3    H150136   1.952   8.371   4.798  0.2457  0.4997 -2.7115
 8647TIP3    H250137   2.090   8.427   4.826 -0.6429  0.5841  2.4928
 8648TIP3   OH250138   5.489   7.065   5.971  0.0332 -0.2074  0.3180
 8648TIP3    H150139   5.556   7.010   5.929  0.9739  1.3897 -0.3508
 8648TIP3    H250140   5.420   7.074   5.906  0.6876  0.8260 -0.2499
 8649TIP3   OH250141   6.278   3.606   5.188  0.6958  0.2961 -0.1964
 8649TIP3    H150142   6.339   3.591   5.116  1.7707  1.5866  0.4146
 8649TIP3    H250143   6.259   3.700   5.186 -0.4238  0.1064  0.3019
 8650TIP3   OH250144   8.024   2.089   6.569  0.6235 -0.5536 -0.6965
 8650TIP3    H150145   8.030   2.068   6.662 -1.0603 -0.0355 -0.4293
 8650TIP3    H250146   7.960   2.027   6.534  0.6977 -0.2679 -1.3587
 8651TIP3   OH250147   6.253   6.525   6.961 -0.5040  0.2055  0.0917
 8651TIP3    H150148   6.157   6.527   6.970 -0.4433 -2.0480  2.3211
 8651TIP3    H250149   6.281   6.613   6.987 -1.9507  1.1573 -1.3267
 8652TIP3   OH250150   7.799   7.182   4.823  0.2763 -0.2721 -0.1741
 8652TIP3    H150151   7.880   7.191   4.874 -0.0359  1.0859  0.1239
 8652TIP3    H250152   7.796   7.089   4.799  1.5286 -0.5002  0.4527
 8653TIP3   OH250153   3.426   7.716   5.297  0.1658 -0.3356  0.0347
 8653TIP3    H150154   3.345   7.674   5.269 -0.1699  0.4575 -0.2117
 8653TIP3    H250155   3.400   7.806   5.318  1.2192  0.3220 -1.3401
 8654TIP3   OH250156   1.543   1.932   5.793  0.1978 -0.1104 -0.2942
 8654TIP3    H150157   1.622   1.901   5.748 -0.0985  0.3684 -1.1809
 8654TIP3    H250158   1.502   1.992   5.731 -0.4939  0.2003  0.4381
 8655TIP3   OH250159   1.874   8.711   5.734 -0.7276  0.0972  0.2081
 8655TIP3    H150160   1.913   8.627   5.712 -2.3409 -0.1024 -2.1994
 8655TIP3    H250161   1.845   8.701   5.825 -0.2268 -1.6700  0.2096
 8656TIP3   OH250162   1.305   3.601   5.129 -0.2652 -0.0054 -0.6851
 8656TIP3    H150163   1.222   3.609   5.082 -0.2388  0.3161 -0.6809
 8656TIP3    H250164   1.282   3.612   5.221 -0.5362 -2.1160 -0.4530
 8657TIP3   OH250165   4.533   5.397   6.123  0.0514 -0.6879 -0.0110
 8657TIP3    H150166   4.524   5.302   6.123  0.8457 -0.7685  0.1924
 8657TIP3    H250167   4.444   5.430   6.134  0.0141 -1.4433  2.4167
 8658TIP3   OH250168   8.011   8.113   7.003  0.5040  0.3189  0.2884
 8658TIP3    H150169   7.945   8.134   6.938 -0.5007  0.7096  1.3922
 8658TIP3    H250170   8.074   8.057   6.958  1.2157  2.5534 -1.7196
 8659TIP3   OH250171   2.343   8.345   6.596 -1.0739 -0.5370 -0.4466
 8659TIP3    H150172   2.367   8.435   6.619 -0.9479 -0.8847  0.9112
 8659TIP3    H250173   2.394   8.291   6.657  0.1973 -1.6397 -2.3667
 8660TIP3   OH250174   8.676   4.160   5.293  0.1340 -0.1074 -0.2289
 8660TIP3    H150175   8.650   4.070   5.270 -0.6352 -0.3660  1.4961
 8660TIP3    H250176   8.634   4.214   5.226 -1.4088 -0.8681  0.0698
 8661TIP3   OH250177   8.586   6.038   6.166  0.2216 -0.6176  0.6066
 8661TIP3    H150178   8.638   5.999   6.096 -0.0358 -1.2634  0.7718
 8661TIP3    H250179   8.572   5.967   6.228 -0.7780 -0.4375  0.6118
 8662TIP3   OH250180   6.695   1.633   6.144 -0.4478 -0.4365  0.0150
 8662TIP3    H150181   6.646   1.693   6.199  1.8312 -0.5002  2.3410
 8662TIP3    H250182   6.729   1.687   6.072 -0.6346  0.4605  0.5911
 8663TIP3   OH250183   5.711   1.637   5.414 -0.4624 -0.1493  0.5515
 8663TIP3    H150184   5.778   1.574   5.443 -0.3494 -0.0208  0.5723
 8663TIP3    H250185   5.648   1.584   5.366 -1.0150 -0.4819  1.6167
 8664TIP3   OH250186   7.592   7.963   6.040 -0.0740  0.1527 -0.5244
 8664TIP3    H150187   7.665   7.987   5.984 -0.4075  1.9716 -0.2342
 8664TIP3    H250188   7.585   7.868   6.032  2.4076 -0.0836 -0.4233
 8665TIP3   OH250189   4.639   0.264   5.250 -0.4645 -0.1057  0.3295
 8665TIP3    H150190   4.675   0.322   5.316 -1.8383  1.4077 -0.1670
 8665TIP3    H250191   4.715   0.230   5.203  0.3980  1.0169  0.8659
 8666TIP3   OH250192   5.211   7.520   6.410 -0.4998 -0.1864  0.2783
 8666TIP3    H150193   5.243   7.609   6.423 -0.3457  0.4896 -3.5340
 8666TIP3    H250194   5.117   7.526   6.428 -0.4075  0.5973  0.5508
 8667TIP3   OH250195   0.619   7.600   4.751 -0.3798  0.3699 -0.0528
 8667TIP3    H150196   0.561   7.536   4.709 -1.7877  0.4419  1.6761
 8667TIP3    H250197   0.569   7.632   4.826  1.7850  0.6869  1.3336
 8668TIP3   OH250198   0.886   8.720   5.790  0.3555  0.2329  0.6658
 8668TIP3    H150199   0.905   8.748   5.700  2.1416  0.4769  1.0962
 8668TIP3    H250200   0.836   8.793   5.827 -0.4074  0.1275 -0.1158
 8669TIP3   OH250201   0.504   1.054   5.063 -0.1165  0.2130  0.8272
 8669TIP3    H150202   0.434   1.042   5.127  1.0004 -0.1903  2.0183
 8669TIP3    H250203   0.583   1.021   5.107  1.1643  2.2486  0.2062
 8670TIP3   OH250204   2.854   1.696   5.554  0.5166 -0.2527  0.1484
 8670TIP3    H150205   2.777   1.689   5.498  0.0154 -0.0577  0.8017
 8670TIP3    H250206   2.897   1.611   5.546  0.0325 -0.4920  0.0657
 8671TIP3   OH250207   2.609   1.005   6.298 -0.4719  0.1717 -0.6885
 8671TIP3    H150208   2.666   1.017   6.374  0.0544 -2.5996 -0.5464
 8671TIP3    H250209   2.668   0.982   6.227 -1.2476 -0.9998 -0.9772
 8672TIP3   OH250210   0.584   5.836   4.802 -0.2520  0.0763  0.6546
 8672TIP3    H150211   0.662   5.785   4.824  0.5595  0.2670 -1.5154
 8672TIP3    H250212   0.602   5.924   4.837  1.3588  0.5931 -1.2813
 8673TIP3   OH250213   4.469   3.744   5.360 -0.0551  0.2622 -0.2153
 8673TIP3    H150214   4.531   3.718   5.291 -0.7277  2.8454 -1.9357
 8673TIP3    H250215   4.524   3.763   5.436  0.8775 -0.9800 -0.5458
 8674TIP3   OH250216   7.148   8.553   6.844  0.1383 -0.3444  0.3339
 8674TIP3    H150217   7.168   8.627   6.787  0.5735  0.1984  1.1510
 8674TIP3    H250218   7.198   8.480   6.808 -0.4403 -0.2832 -0.5906
 8675TIP3   OH250219   6.261   8.954   6.351  0.1035  0.2068  0.2880
 8675TIP3    H150220   6.167   8.943   6.339  0.0557  1.3399 -0.6441
 8675TIP3    H250221   6.276   9.047   6.334  1.5066 -0.1227 -0.4475
 8676TIP3   OH250222   7.272   8.353   5.829  0.4980 -0.3440 -0.1891
 8676TIP3    H150223   7.228   8.274   5.797  1.2893 -0.3232 -1.3720
 8676TIP3    H250224   7.361   8.324   5.849  0.9649  0.3626 -1.1767
 8677TIP3   OH250225   8.425   1.423   6.049 -0.2306 -0.3396 -0.9245
 8677TIP3    H150226   8.387   1.464   6.127  2.0146  0.1124  0.0027
 8677TIP3    H250227   8.515   1.456   6.046  0.6575 -2.6436 -2.0231
 8678TIP3   OH250228   3.477   3.381   5.985 -0.2626 -0.2400 -0.4820
 8678TIP3    H150229   3.515   3.298   5.957  0.1876  0.5627 -2.4717
 8678TIP3    H250230   3.390   3.358   6.018  0.8908 -1.8003  1.6954
 8679TIP3   OH250231   1.835   3.356   5.170 -0.5052  0.2067  0.2432
 8679TIP3    H150232   1.855   3.448   5.154 -2.2164  0.7800  1.1081
 8679TIP3    H250233   1.910   3.323   5.219 -0.2345  1.3682  0.6414
 8680TIP3   OH250234   6.783   1.932   6.391 -0.1299  0.3570 -0.1870
 8680TIP3    H150235   6.866   1.923   6.343 -0.0298 -0.0079  0.0513
 8680TIP3    H250236   6.809   1.943   6.482 -0.3655 -1.0397  0.0770
 8681TIP3   OH250237   5.905   6.485   6.076  0.6844 -0.1242 -0.8528
 8681TIP3    H150238   5.836   6.427   6.107 -0.1944  0.6642 -1.2945
 8681TIP3    H250239   5.917   6.548   6.147  3.1280 -1.9980  0.5764
 8682TIP3   OH250240   8.079   4.216   5.550 -0.0601  0.5760  0.3371
 8682TIP3    H150241   8.108   4.306   5.561 -0.6645  0.7760  0.2899
 8682TIP3    H250242   8.144   4.164   5.598 -0.0334  1.0712  0.8415
 8683TIP3   OH250243   9.135   3.102   5.459 -0.2326  0.0195 -0.8261
 8683TIP3    H150244   9.044   3.131   5.449 -0.0295  0.6133 -0.9897
 8683TIP3    H250245   9.131   3.008   5.445 -0.9220 -0.0579 -0.1993
 8684TIP3   OH250246   8.583   8.744   4.611 -0.3069 -0.0996  0.1926
 8684TIP3    H150247   8.534   8.756   4.530 -1.3210  0.0507  0.8166
 8684TIP3    H250248   8.621   8.830   4.629  1.5844 -0.5869 -1.1396
 8685TIP3   OH250249   5.006   3.817   5.804  0.2941  0.2578  0.2339
 8685TIP3    H150250   5.076   3.761   5.770 -0.7854 -1.3779  0.5870
 8685TIP3    H250251   5.040   3.849   5.888  0.8733  0.0362  0.0919
 8686TIP3   OH250252   7.973   6.653   6.376 -0.1419 -0.3178  0.4524
 8686TIP3    H150253   8.003   6.741   6.352  0.1928 -0.2342  1.1525
 8686TIP3    H250254   7.907   6.631   6.311 -1.1559  0.9758  1.0052
 8687TIP3   OH250255   8.335   1.126   6.404 -0.2081 -0.0888 -0.0781
 8687TIP3    H150256   8.425   1.142   6.431  0.2187  1.8347 -2.3249
 8687TIP3    H250257   8.283   1.191   6.453 -0.0247  0.4490 -0.5860
 8688TIP3   OH250258   1.603   0.916   5.837  0.1164 -0.0659  0.2681
 8688TIP3    H150259   1.552   0.891   5.913 -0.7971  1.8419  0.3388
 8688TIP3    H250260   1.671   0.974   5.871 -0.2464  0.7366 -0.3374
 8689TIP3   OH250261   8.354   7.329   4.846  0.0142  0.5964 -0.0001
 8689TIP3    H150262   8.312   7.407   4.883 -0.1517  1.7857 -2.4539
 8689TIP3    H250263   8.441   7.361   4.819  0.0206 -0.1020 -0.8379
 8690TIP3   OH250264   1.057   3.892   6.000 -0.3830  0.0466  0.3505
 8690TIP3    H150265   1.075   3.959   5.934 -1.4308 -2.1585 -2.3965
 8690TIP3    H250266   0.965   3.905   6.023 -0.9228 -1.0142 -1.0363
 8691TIP3   OH250267   1.432   8.300   5.428  0.5267 -0.6515 -0.2786
 8691TIP3    H150268   1.342   8.290   5.394  0.2891  1.2288 -0.2694
 8691TIP3    H250269   1.426   8.273   5.520  0.0829 -0.9653 -0.3939
 8692TIP3   OH250270   8.072   7.991   5.944 -0.3392 -0.0368  0.9080
 8692TIP3    H150271   8.125   8.071   5.946  0.0651 -0.2820  0.1973
 8692TIP3    H250272   8.124   7.928   5.895 -1.1964 -0.3470  0.3623
 8693TIP3   OH250273   8.521   7.925   5.524 -0.7022  0.1112  0.0672
 8693TIP3    H150274   8.588   7.934   5.591  1.1661 -3.0518 -1.1723
 8693TIP3    H250275   8.507   8.014   5.492  1.9796  1.0511  1.2404
 8694TIP3   OH250276   6.217   8.370   5.727  0.0335 -0.2736 -0.2398
 8694TIP3    H150277   6.259   8.288   5.752  0.0965  0.0460  0.7533
 8694TIP3    H250278   6.284   8.437   5.742 -0.1897  0.0203 -0.5290
 8695TIP3   OH250279   0.983   8.102   6.181 -0.1186  0.2459 -0.0206
 8695TIP3    H150280   0.951   8.015   6.203 -1.6812  1.1882  1.7648
 8695TIP3    H250281   1.004   8.098   6.088  0.0645 -2.0682  0.0645
 8696TIP3   OH250282   4.508   1.931   6.555 -0.2125 -0.4845  0.6073
 8696TIP3    H150283   4.560   1.878   6.616  1.5231  0.3176 -0.1071
 8696TIP3    H250284   4.566   1.946   6.481 -1.9162 -0.5560 -0.8148
 8697TIP3   OH250285   2.055   6.284   5.075 -0.0724  0.6489  0.7450
 8697TIP3    H150286   2.082   6.214   5.133  3.7651  0.1305 -1.3377
 8697TIP3    H250287   2.122   6.352   5.086  0.1936  0.9991 -2.0920
 8698TIP3   OH250288   2.347   3.049   6.496  0.5398  0.3421  0.0555
 8698TIP3    H150289   2.374   3.121   6.553 -2.8626  1.1557  0.8966
 8698TIP3    H250290   2.354   3.085   6.408  1.4943  0.7047  0.2663
 8699TIP3   OH250291   3.588   4.804   5.916  0.1328  0.6649  0.2127
 8699TIP3    H150292   3.621   4.797   5.827 -1.6106  2.2083 -0.6436
 8699TIP3    H250293   3.648   4.864   5.960  1.5056 -0.7919  0.3863
 8700TIP3   OH250294   7.716   4.279   6.519 -0.7399  0.1372  0.3371
 8700TIP3    H150295   7.641   4.264   6.461 -0.3494  1.2854 -0.5162
 8700TIP3    H250296   7.747   4.366   6.495  1.2075 -0.5261  0.2824
 8701TIP3   OH250297   6.863   6.496   4.968  0.0338  0.3305 -0.1525
 8701TIP3    H150298   6.828   6.464   4.885  0.1599  1.6455 -0.7287
 8701TIP3    H250299   6.830   6.434   5.033 -0.1894 -0.6387 -1.1468
 8702TIP3   OH250300   0.054   5.615   5.976  0.3189 -0.6712  0.1356
 8702TIP3    H150301   0.030   5.693   6.027  2.9249 -0.2326  0.8421
 8702TIP3    H250302   0.085   5.650   5.893  0.3656 -1.0421 -0.0016
 8703TIP3   OH250303   4.576   1.740   5.659  0.2821 -0.1692 -0.0439
 8703TIP3    H150304   4.612   1.820   5.621 -0.5101  0.5224  0.6223
 8703TIP3    H250305   4.647   1.677   5.652  1.0270  0.6704 -0.3244
 8704TIP3   OH250306   2.063   2.786   5.906  0.0804  0.3529 -0.1490
 8704TIP3    H150307   2.135   2.800   5.968  0.7806  1.4074 -1.1487
 8704TIP3    H250308   2.091   2.712   5.853 -0.3783 -0.3527  0.5845
 8705TIP3   OH250309   1.935   0.454   5.134  0.1807  0.1913 -0.2266
 8705TIP3    H150310   1.895   0.371   5.108  0.2879  0.6763 -2.0702
 8705TIP3    H250311   1.958   0.442   5.226  0.4958 -1.9410 -0.5395
 8706TIP3   OH250312   9.072   3.552   5.995  0.0465 -0.0448 -0.0201
 8706TIP3    H150313   9.091   3.514   5.910  2.2169  0.3948  0.2017
 8706TIP3    H250314   9.118   3.496   6.057 -1.1726 -0.1297  0.8488
 8707TIP3   OH250315   7.662   1.122   6.026  0.1668 -0.3275  0.5458
 8707TIP3    H150316   7.739   1.162   5.986 -0.2507 -1.3670 -1.4400
 8707TIP3    H250317   7.588   1.159   5.977 -0.5128 -0.3509  1.5270
 8708TIP3   OH250318   7.758   7.922   5.610 -0.0100 -0.1326 -0.2884
 8708TIP3    H150319   7.826   7.855   5.619 -0.1214 -0.1822  0.2028
 8708TIP3    H250320   7.764   7.950   5.519  1.2161  0.4405 -0.0447
 8709TIP3   OH250321   1.783   3.159   6.269  0.1864  0.4417 -0.2945
 8709TIP3    H150322   1.796   3.181   6.361  0.5243  0.4904 -0.3505
 8709TIP3    H250323   1.794   3.064   6.264 -3.5846 -0.1792  0.3407
 8710TIP3   OH250324   7.587   1.415   6.241 -0.2667  0.6589 -0.4328
 8710TIP3    H150325   7.569   1.422   6.147  0.7012  0.0931 -0.6765
 8710TIP3    H250326   7.565   1.324   6.263  0.9742  0.3309 -0.4650
 8711TIP3   OH250327   0.932   0.850   6.404  0.1399 -0.0770 -0.3663
 8711TIP3    H150328   0.858   0.879   6.352  0.2639  0.8807 -0.0288
 8711TIP3    H250329   0.967   0.930   6.443  2.2187 -0.2892 -1.6353
 8712TIP3   OH250330   2.525   0.159   5.844  0.4590  0.3541 -0.0173
 8712TIP3    H150331   2.565   0.233   5.798  0.6592  0.2802  0.0373
 8712TIP3    H250332   2.596   0.124   5.898  0.1335  0.6719  0.6304
 8713TIP3   OH250333   1.856   2.883   5.586 -0.2698 -0.2970  0.2860
 8713TIP3    H150334   1.912   2.860   5.512 -1.0546 -0.1642 -0.3641
 8713TIP3    H250335   1.845   2.978   5.579 -2.1580 -0.5429 -0.7809
 8714TIP3   OH250336   2.334   8.430   6.303 -0.3987  0.0966 -0.6438
 8714TIP3    H150337   2.343   8.488   6.379  0.7911 -0.9771  0.0734
 8714TIP3    H250338   2.416   8.441   6.254 -0.0373 -1.1667 -0.3467
 8715TIP3   OH250339   0.212   1.780   4.908 -0.7632 -0.0132 -0.2550
 8715TIP3    H150340   0.212   1.692   4.870  0.8441  0.2640 -0.9617
 8715TIP3    H250341   0.171   1.835   4.841  1.0276  0.2753 -1.1700
 8716TIP3   OH250342   1.863   6.509   5.957  0.1694  0.0881 -0.2527
 8716TIP3    H150343   1.875   6.603   5.942 -1.7469  0.6145  1.1079
 8716TIP3    H250344   1.787   6.486   5.903 -0.6387 -0.1979  0.9801
 8717TIP3   OH250345   0.477   6.641   6.371 -0.1435 -0.2352 -0.0739
 8717TIP3    H150346   0.407   6.705   6.358 -0.6650 -1.1642 -2.3138
 8717TIP3    H250347   0.552   6.693   6.400 -1.2079  1.0326  0.5290
 8718TIP3   OH250348   8.888   0.488   5.945  0.1379 -0.6095 -0.0097
 8718TIP3    H150349   8.927   0.573   5.926  0.4741 -0.5363  0.9775
 8718TIP3    H250350   8.811   0.484   5.888 -0.8166  1.0533  1.1091
 8719TIP3   OH250351   5.024   2.579   5.891 -0.1580  0.0781  0.8374
 8719TIP3    H150352   5.091   2.516   5.915  0.2672  0.0650 -0.2898
 8719TIP3    H250353   5.056   2.663   5.925 -1.1317 -0.3813  3.0876
 8720TIP3   OH250354   8.474   0.502   7.342 -0.0484 -0.2338 -0.0364
 8720TIP3    H150355   8.477   0.434   7.409  0.0319  1.7023  2.0614
 8720TIP3    H250356   8.386   0.497   7.306 -0.0822 -1.3558  0.1744
 8721TIP3   OH250357   4.508   7.348   6.157  0.2399  0.2483  0.5913
 8721TIP3    H150358   4.546   7.289   6.223  0.9866  0.3988  0.3045
 8721TIP3    H250359   4.527   7.306   6.073 -0.8652 -0.0314  0.4660
 8722TIP3   OH250360   3.238   1.886   5.239 -0.2533  0.6951 -0.1604
 8722TIP3    H150361   3.193   1.937   5.306 -1.4087 -0.1848 -0.2284
 8722TIP3    H250362   3.273   1.951   5.178 -0.2750  1.4521  0.6237
 8723TIP3   OH250363   1.073   1.847   5.500  0.4266 -0.4699  0.0814
 8723TIP3    H150364   1.062   1.930   5.453  2.1409 -1.0160 -1.3832
 8723TIP3    H250365   0.994   1.798   5.480 -0.7722  0.8899  1.2359
 8724TIP3   OH250366   5.604   2.916   6.222 -0.3194  0.2385  0.3194
 8724TIP3    H150367   5.575   2.971   6.149 -0.5689  2.0670  1.7142
 8724TIP3    H250368   5.524   2.876   6.256 -0.3167  0.0643  0.1213
 8725TIP3   OH250369   9.121   6.133   4.998 -0.5182  0.0273  0.4847
 8725TIP3    H150370   9.121   6.075   4.921 -0.6551 -0.2904  0.7251
 8725TIP3    H250371   9.054   6.198   4.979 -0.8996 -0.3453  0.5580
 8726TIP3   OH250372   3.167   7.122   4.863  0.8862  0.2875 -0.1472
 8726TIP3    H150373   3.170   7.175   4.784  2.4972  0.2388 -0.1432
 8726TIP3    H250374   3.251   7.076   4.865  0.0422 -1.3410  0.4878
 8727TIP3   OH250375   5.621   5.685   6.241  0.1635  0.0833 -0.6428
 8727TIP3    H150376   5.529   5.695   6.217 -0.2656  0.5835  1.0467
 8727TIP3    H250377   5.664   5.761   6.202 -0.2228  0.0920 -1.0632
 8728TIP3   OH250378   1.104   0.609   6.385  0.1987 -0.2967 -0.2088
 8728TIP3    H150379   1.056   0.527   6.368 -0.6793 -0.3329  2.0469
 8728TIP3    H250380   1.037   0.677   6.383  0.4658 -0.0014  0.4788
 8729TIP3   OH250381   2.478   0.256   6.740  0.2783  0.2783 -0.2931
 8729TIP3    H150382   2.383   0.250   6.750  0.4659 -2.1070  0.7689
 8729TIP3    H250383   2.492   0.340   6.696 -2.3048  0.6829 -0.5232
 8730TIP3   OH250384   0.234   7.357   5.583 -0.6763  0.2929  0.1615
 8730TIP3    H150385   0.261   7.315   5.665  2.3145  2.0746  0.2229
 8730TIP3    H250386   0.195   7.439   5.610  0.3566  0.9033 -0.1462
 8731TIP3   OH250387   5.561   7.441   5.553 -0.1289  1.0395 -0.3453
 8731TIP3    H150388   5.650   7.410   5.536 -0.8242 -0.5879 -1.3083
 8731TIP3    H250389   5.512   7.419   5.473 -2.5914 -3.0431  1.9312
 8732TIP3   OH250390   7.714   6.659   6.233 -0.3683  0.4550 -0.2319
 8732TIP3    H150391   7.672   6.616   6.159  1.8899  1.4994 -2.2602
 8732TIP3    H250392   7.643   6.707   6.277 -1.5479  1.0874 -2.6926
 8733TIP3   OH250393   6.822   3.223   5.535  0.0799  0.2345 -0.5554
 8733TIP3    H150394   6.851   3.265   5.454  1.7937 -1.8568 -1.1415
 8733TIP3    H250395   6.818   3.130   5.513 -0.2364 -0.2982  1.5506
 8734TIP3   OH250396   7.116   1.273   7.181  0.0582 -0.5381 -0.1770
 8734TIP3    H150397   7.048   1.238   7.122  0.8072 -0.0640 -1.3509
 8734TIP3    H250398   7.143   1.197   7.233 -1.0940 -0.8206  0.0431
 8735TIP3   OH250399   5.654   4.135   5.110  0.1320  0.7240 -0.0865
 8735TIP3    H150400   5.676   4.115   5.019  1.4933  0.6059  0.2460
 8735TIP3    H250401   5.600   4.214   5.105  0.9324  1.2436 -0.9554
 8736TIP3   OH250402   2.201   3.964   6.102 -0.1750 -0.5099 -0.2475
 8736TIP3    H150403   2.226   3.943   6.012  0.4394  0.2286 -0.2585
 8736TIP3    H250404   2.118   4.012   6.093  0.2517  0.2088 -0.4891
 8737TIP3   OH250405   2.222   8.323   5.171 -0.2141 -0.9114  0.2440
 8737TIP3    H150406   2.197   8.290   5.085  2.1712 -1.5975 -0.2549
 8737TIP3    H250407   2.179   8.408   5.178  1.5963  0.4214 -2.7949
 8738TIP3   OH250408   0.055   2.266   5.588 -0.2753 -0.0133 -0.5789
 8738TIP3    H150409  -0.029   2.222   5.577 -0.8065  0.7822  0.1647
 8738TIP3    H250410   0.064   2.322   5.511 -0.2982 -0.2838 -0.7815
 8739TIP3   OH250411   2.433   8.839   6.495  0.0937 -0.3384 -0.2051
 8739TIP3    H150412   2.357   8.783   6.513 -1.1682  0.8948 -1.4783
 8739TIP3    H250413   2.419   8.871   6.406  0.7650  2.0083  0.4651
 8740TIP3   OH250414   5.304   6.721   6.702 -0.4101  0.6904  0.4088
 8740TIP3    H150415   5.349   6.707   6.785  1.0001 -0.3185 -0.4888
 8740TIP3    H250416   5.359   6.783   6.654  0.2175 -0.7269 -0.7943
 8741TIP3   OH250417   4.726   5.575   5.364 -0.2794  0.0361 -0.4609
 8741TIP3    H150418   4.670   5.636   5.412  0.5910 -0.3302  1.0962
 8741TIP3    H250419   4.807   5.625   5.349  0.2193 -0.5146  0.3136
 8742TIP3   OH250420   8.338   5.915   5.496  0.2544 -0.3858  0.1009
 8742TIP3    H150421   8.285   5.960   5.430  1.5997 -0.9100 -1.3941
 8742TIP3    H250422   8.285   5.840   5.522  0.2006 -0.8775 -1.3290
 8743TIP3   OH250423   4.645   7.623   6.333  0.1052  0.4449 -0.2037
 8743TIP3    H150424   4.607   7.640   6.246 -0.9326  1.2472  0.3851
 8743TIP3    H250425   4.734   7.594   6.314 -0.5557 -0.8143 -1.6110
 8744TIP3   OH250426   0.950   7.819   6.261 -0.5765 -0.0453  0.1271
 8744TIP3    H150427   1.012   7.759   6.220  0.9683  0.5584  1.4914
 8744TIP3    H250428   0.887   7.761   6.304 -0.6599 -0.6663 -0.8071
 8745TIP3   OH250429   0.515   9.078   5.576  0.1645  0.1067 -0.4392
 8745TIP3    H150430   0.597   9.125   5.593 -0.2059  0.4203  0.5551
 8745TIP3    H250431   0.507   9.078   5.481  1.5410 -0.3183 -0.5878
 8746TIP3   OH250432   9.090   3.518   5.268  0.1409  0.3721 -0.1993
 8746TIP3    H150433   9.060   3.515   5.359 -0.6222  1.9900 -0.3579
 8746TIP3    H250434   9.131   3.433   5.253 -1.0379 -0.4868  1.2099
 8747TIP3   OH250435   2.906   1.137   6.963 -0.5906 -0.1554  0.2683
 8747TIP3    H150436   2.905   1.105   6.872  0.8104  0.4740  0.0092
 8747TIP3    H250437   2.998   1.159   6.979 -0.9737  0.5581  1.5594
 8748TIP3   OH250438   1.766   2.116   4.970  0.0560  0.3252  0.7216
 8748TIP3    H150439   1.845   2.105   5.023 -0.2406  2.2649  1.6498
 8748TIP3    H250440   1.724   2.194   5.005 -1.4496  0.2703 -0.8144
 8749TIP3   OH250441   2.794   4.965   6.230  0.4768 -0.3526  0.2506
 8749TIP3    H150442   2.742   5.002   6.159 -0.4866 -1.5381  0.2946
 8749TIP3    H250443   2.739   4.975   6.308 -0.1247 -2.4033  0.1512
 8750TIP3   OH250444   7.836   8.220   5.569  0.1638 -0.2325 -0.2106
 8750TIP3    H150445   7.804   8.183   5.487 -0.0079 -1.3883  0.3619
 8750TIP3    H250446   7.919   8.176   5.584  0.0018 -0.3212  0.4369
 8751TIP3   OH250447   5.302   5.389   5.526 -0.0535  0.3198 -0.2881
 8751TIP3    H150448   5.243   5.359   5.595  0.2305 -1.0094 -0.5962
 8751TIP3    H250449   5.246   5.434   5.463 -0.3873  1.0872  0.5394
 8752TIP3   OH250450   0.657   5.552   5.088  0.5296 -0.1265  0.1699
 8752TIP3    H150451   0.727   5.548   5.154 -0.6223  0.6792  1.4953
 8752TIP3    H250452   0.577   5.539   5.138 -0.3026 -0.8908 -1.3061
 8753TIP3   OH250453   4.748   3.477   5.661  0.2590 -0.2665 -0.5651
 8753TIP3    H150454   4.773   3.506   5.573  0.4721  1.7624  0.1172
 8753TIP3    H250455   4.652   3.467   5.656  0.3202 -0.6244 -1.1393
 8754TIP3   OH250456   9.152   0.953   5.232  0.0665  0.3347  0.4112
 8754TIP3    H150457   9.090   1.021   5.259  0.3101  1.0782 -0.8155
 8754TIP3    H250458   9.179   0.911   5.314 -1.1359  0.7951  1.0665
 8755TIP3   OH250459   8.178   9.185   4.665 -0.5860  0.1014 -0.0444
 8755TIP3    H150460   8.238   9.163   4.593 -0.5923  1.3613 -0.4611
 8755TIP3    H250461   8.098   9.136   4.645  0.0529 -1.0704  0.1589
 8756TIP3   OH250462   4.899   5.177   6.272  0.0011  0.1185  0.2273
 8756TIP3    H150463   4.956   5.229   6.215 -0.3768 -0.8986 -1.1604
 8756TIP3    H250464   4.818   5.168   6.222 -0.0731 -1.4440  0.5659
 8757TIP3   OH250465   4.014   8.490   5.596 -0.1316  0.2496 -0.3514
 8757TIP3    H150466   4.029   8.455   5.508 -0.6175 -0.4841 -0.1511
 8757TIP3    H250467   4.102   8.506   5.630  0.0467  1.0919 -1.1791
 8758TIP3   OH250468   0.609   3.158   4.802  0.4317 -0.3799 -0.0391
 8758TIP3    H150469   0.690   3.110   4.821  0.6508  0.4129  1.1506
 8758TIP3    H250470   0.543   3.089   4.789  0.9025 -1.0260  0.8570
 8759TIP3   OH250471   3.126   7.497   6.252  0.5446 -0.1314  0.0597
 8759TIP3    H150472   3.207   7.446   6.251  0.7463  0.1840  0.0824
 8759TIP3    H250473   3.063   7.442   6.206  0.4349 -0.9211  1.1408
 8760TIP3   OH250474   1.445   5.197   5.218 -0.6458  0.1108 -0.1337
 8760TIP3    H150475   1.393   5.127   5.178 -1.6111 -1.6055  3.6351
 8760TIP3    H250476   1.536   5.175   5.197 -0.6882 -3.8298  2.7225
 8761TIP3   OH250477   3.058   1.431   5.822  0.3382 -0.5077 -0.0081
 8761TIP3    H150478   2.992   1.373   5.861  0.6170  0.3063  1.7669
 8761TIP3    H250479   3.112   1.373   5.769  0.0671 -1.7399  1.0063
 8762TIP3   OH250480   3.599   4.435   5.555  0.5517  0.1329 -0.0978
 8762TIP3    H150481   3.679   4.425   5.606  0.3606  0.0430  0.1867
 8762TIP3    H250482   3.578   4.346   5.526  0.6121  0.1711 -0.2594
 8763TIP3   OH250483   1.006   6.094   5.394 -0.0910 -0.6796  0.2946
 8763TIP3    H150484   1.073   6.147   5.436 -0.2932 -0.2200  0.0398
 8763TIP3    H250485   0.938   6.156   5.368  0.1596 -0.9119 -0.9766
 8764TIP3   OH250486   2.249   7.931   9.930 -0.0107 -0.5203 -0.3752
 8764TIP3    H150487   2.220   7.876   9.858 -1.2511 -0.6300  0.1861
 8764TIP3    H250488   2.170   7.947   9.982  0.5121  1.0047 -0.0046
 8765TIP3   OH250489   6.054   7.119   6.668  0.4117 -0.0863 -0.3803
 8765TIP3    H150490   6.064   7.214   6.669 -1.7230  0.2026 -0.5423
 8765TIP3    H250491   6.015   7.098   6.753  0.0478 -0.6947 -0.6917
 8766TIP3   OH250492   0.453   0.494   5.272 -0.3318 -0.3429  0.3461
 8766TIP3    H150493   0.457   0.487   5.177 -2.0722 -0.1822  0.2385
 8766TIP3    H250494   0.470   0.587   5.289 -1.5696 -0.0368  0.0496
 8767TIP3   OH250495   4.323   4.783   5.778  0.2465  0.5282  0.2163
 8767TIP3    H150496   4.244   4.815   5.822  0.0531  0.4564 -0.0808
 8767TIP3    H250497   4.312   4.688   5.777  1.5797  0.2740  2.5840
 8768TIP3   OH250498   8.542   3.109   6.127  0.4245 -0.0207 -0.0179
 8768TIP3    H150499   8.529   3.180   6.064  1.0430  1.9192  1.8815
 8768TIP3    H250500   8.566   3.154   6.208 -0.5855 -2.3625  1.6951
 8769TIP3   OH250501   7.041   9.107   5.020 -0.0674 -0.3434 -0.5758
 8769TIP3    H150502   6.957   9.152   5.027  0.6236  1.0091 -0.6539
 8769TIP3    H250503   7.102   9.175   4.991  1.1564 -1.1731 -0.0228
 8770TIP3   OH250504   3.119   3.107   6.289  0.2444 -0.1930 -0.3456
 8770TIP3    H150505   3.083   3.186   6.330 -1.1336 -1.4145  0.9411
 8770TIP3    H250506   3.155   3.057   6.362 -0.3638 -1.4842 -0.8981
 8771TIP3   OH250507   3.768   6.174   5.611  0.0139  0.6724 -0.3359
 8771TIP3    H150508   3.850   6.135   5.581  0.4449 -0.8803  2.4786
 8771TIP3    H250509   3.700   6.125   5.565  0.6294 -0.6669  0.1415
 8772TIP3   OH250510   1.003   7.854   6.562 -0.5043  0.6352 -0.0636
 8772TIP3    H150511   1.051   7.803   6.497  0.4034  1.5730 -0.1643
 8772TIP3    H250512   1.070   7.908   6.604 -1.1100  0.2465  1.4798
 8773TIP3   OH250513   7.604   8.658   5.736  0.5239 -0.0975  0.1301
 8773TIP3    H150514   7.652   8.729   5.778 -1.6672  0.6395  1.5893
 8773TIP3    H250515   7.566   8.697   5.657  1.3315 -0.3630 -0.4016
 8774TIP3   OH250516   0.658   6.836   4.833 -0.5109 -0.3059 -0.3443
 8774TIP3    H150517   0.628   6.927   4.829  0.0903  0.0088  1.4225
 8774TIP3    H250518   0.752   6.842   4.818 -0.5459 -0.6893 -0.7080
 8775TIP3   OH250519   6.011   3.140   5.889 -0.5874 -0.4094 -0.2489
 8775TIP3    H150520   6.071   3.207   5.924  0.0547 -1.4969  0.8277
 8775TIP3    H250521   5.950   3.189   5.835 -0.5194  1.1540  0.9883
 8776TIP3   OH250522   6.911   9.090  10.529  0.3498 -0.0686 -0.7093
 8776TIP3    H150523   6.889   9.005  10.491  1.2412  0.0328 -1.4725
 8776TIP3    H250524   6.988   9.119  10.481 -0.3276  1.4873 -0.9054
 8777TIP3   OH250525   9.088   4.857   5.952  0.4826 -0.6356 -0.5901
 8777TIP3    H150526   9.081   4.838   5.859 -0.1789 -0.3953 -0.5938
 8777TIP3    H250527   9.040   4.939   5.964  1.8208  0.1461 -0.2855
 8778TIP3   OH250528   6.689   7.190   5.564 -0.5792 -0.4346 -0.2052
 8778TIP3    H150529   6.603   7.148   5.551 -0.7583 -0.0997 -0.1208
 8778TIP3    H250530   6.720   7.208   5.476 -0.2201 -1.2920 -0.2689
 8779TIP3   OH250531   4.478   4.137   6.111  0.2682  0.4295  0.4164
 8779TIP3    H150532   4.549   4.094   6.159  0.5110  1.1359  0.7109
 8779TIP3    H250533   4.412   4.068   6.098  1.3868 -0.4689 -0.6588
 8780TIP3   OH250534   3.901   0.640   6.774 -0.0278  0.2798  0.4294
 8780TIP3    H150535   3.919   0.703   6.843  0.2701 -0.1742  0.7719
 8780TIP3    H250536   3.983   0.631   6.727  0.3895 -0.9812  1.3270
 8781TIP3   OH250537   5.854   1.448   5.547  0.4510 -0.2057  0.0596
 8781TIP3    H150538   5.934   1.475   5.502  1.4444  0.1282  1.8956
 8781TIP3    H250539   5.884   1.419   5.633 -1.5009  1.0358  1.2449
 8782TIP3   OH250540   0.121   0.200   5.506  0.2668  0.0328 -0.4149
 8782TIP3    H150541   0.152   0.164   5.589  0.9808  0.5120 -0.4610
 8782TIP3    H250542   0.060   0.269   5.530  2.4578  2.0005 -0.1773
 8783TIP3   OH250543   6.428   4.452   5.071  0.7017  0.3685  0.4003
 8783TIP3    H150544   6.446   4.398   5.147 -0.5544 -2.4724 -1.1817
 8783TIP3    H250545   6.513   4.468   5.032  1.1041 -0.4864  0.8971
 8784TIP3   OH250546   2.684   8.623   5.944  0.2186 -0.0167  0.1923
 8784TIP3    H150547   2.691   8.659   6.033  0.3338  1.5451 -0.4237
 8784TIP3    H250548   2.601   8.576   5.944  0.6296 -0.8022  1.3790
 8785TIP3   OH250549   0.144   4.904   5.068 -0.4157 -1.0042 -0.0812
 8785TIP3    H150550   0.072   4.902   5.005 -0.5707  0.7355  0.0020
 8785TIP3    H250551   0.191   4.822   5.052 -2.1496 -2.0030 -0.4138
 8786TIP3   OH250552   0.899   5.581   6.896  0.1845  0.3288  0.0004
 8786TIP3    H150553   0.807   5.608   6.889  0.5980  1.5978 -0.9907
 8786TIP3    H250554   0.948   5.661   6.875  1.5154 -0.7164 -0.9641
 8787TIP3   OH250555   6.933   4.202   5.510 -0.5634 -0.1096 -0.5240
 8787TIP3    H150556   6.891   4.278   5.549 -1.0976 -0.7238  0.1368
 8787TIP3    H250557   6.860   4.146   5.483 -0.1774 -0.5250 -0.7157
 8788TIP3   OH250558   2.794   0.857   5.074  0.1999 -0.3737 -0.0256
 8788TIP3    H150559   2.877   0.873   5.119  0.0916  0.4580 -0.1099
 8788TIP3    H250560   2.790   0.762   5.065  0.9294 -0.4521  0.3828
 8789TIP3   OH250561   4.877   4.922   5.556  0.4674 -0.2718  0.3752
 8789TIP3    H150562   4.914   4.892   5.639  2.1931 -0.1179 -0.2881
 8789TIP3    H250563   4.837   4.843   5.518  0.6786 -0.6096  0.8443
 8790TIP3   OH250564   0.433   7.634   5.443 -0.1958 -0.2661  0.2437
 8790TIP3    H150565   0.391   7.560   5.399 -0.5540  0.2972 -0.3618
 8790TIP3    H250566   0.510   7.653   5.388  1.5693 -2.0072  1.9182
 8791TIP3   OH250567   7.482   8.315   5.261  0.2554  0.1730 -0.0125
 8791TIP3    H150568   7.495   8.389   5.201  3.1372 -0.2344 -0.0255
 8791TIP3    H250569   7.447   8.354   5.341 -1.7294  0.9998 -1.2106
 8792TIP3   OH250570   7.014   1.641   6.059 -0.1180 -0.2752 -0.4997
 8792TIP3    H150571   6.935   1.663   6.012 -1.1702 -1.9505  0.3765
 8792TIP3    H250572   7.037   1.553   6.029 -0.5403 -1.1926  1.6298
 8793TIP3   OH250573   8.780   4.726   6.736  0.5713  0.0355 -0.1808
 8793TIP3    H150574   8.721   4.654   6.715  0.1840  0.7393 -1.6278
 8793TIP3    H250575   8.722   4.800   6.757  0.9416 -0.3554  2.6497
 8794TIP3   OH250576   0.550   1.924   4.961 -0.0950  0.3714  0.1736
 8794TIP3    H150577   0.567   1.850   5.019  1.3445  0.1280 -0.5318
 8794TIP3    H250578   0.464   1.956   4.988 -0.5208 -1.2365  0.8249
 8795TIP3   OH250579   0.417   5.506   5.227 -0.4202 -0.2457 -0.1583
 8795TIP3    H150580   0.427   5.417   5.261  0.0761 -0.2653 -0.3531
 8795TIP3    H250581   0.325   5.510   5.199 -1.4734  0.3879  2.9305
 8796TIP3   OH250582   8.164   4.551   6.312  0.3082  0.4204 -0.2996
 8796TIP3    H150583   8.240   4.608   6.306  0.6817 -0.0755 -0.3403
 8796TIP3    H250584   8.154   4.534   6.405 -0.7326  1.7705 -0.1274
 8797TIP3   OH250585   3.292   1.605   7.058  0.2118  0.2018  0.8420
 8797TIP3    H150586   3.257   1.691   7.081  0.4519 -0.0815  2.3034
 8797TIP3    H250587   3.331   1.572   7.138  0.8689 -0.9272  0.0845
 8798TIP3   OH250588   7.697   8.126   6.673 -0.7721  0.5047 -0.6243
 8798TIP3    H150589   7.636   8.067   6.630 -0.1817  0.5344 -1.5305
 8798TIP3    H250590   7.783   8.095   6.646 -0.3535  0.2596  0.8999
 8799TIP3   OH250591   1.685   6.664   4.624  0.2506  0.3108  0.2619
 8799TIP3    H150592   1.638   6.742   4.652 -2.1042 -0.5484 -1.0650
 8799TIP3    H250593   1.743   6.695   4.554  0.0683  1.0268  0.4242
 8800TIP3   OH250594   1.865   4.047   5.797 -0.4071 -0.2847 -0.8325
 8800TIP3    H150595   1.798   4.113   5.779 -0.4071 -0.2741 -0.7938
 8800TIP3    H250596   1.820   3.964   5.783 -0.3411 -0.2742 -1.1195
 8801TIP3   OH250597   1.691   4.175   6.175  0.2205  0.1698 -0.0335
 8801TIP3    H150598   1.748   4.180   6.252  0.1765  0.1865 -0.0021
 8801TIP3    H250599   1.648   4.090   6.183 -1.6747  1.1713  1.2874
 8802TIP3   OH250600   6.856   8.868   6.741  0.6455 -0.5970  0.2172
 8802TIP3    H150601   6.774   8.918   6.740 -0.6149 -2.5111  1.8564
 8802TIP3    H250602   6.864   8.834   6.651 -0.0531  0.0471 -0.1019
 8803TIP3   OH250603   8.620   0.131   6.194  0.4500 -0.3508  0.1261
 8803TIP3    H150604   8.559   0.148   6.123 -0.6988 -2.5232  0.5033
 8803TIP3    H250605   8.612   0.037   6.210 -0.0988  0.1899  3.7917
 8804TIP3   OH250606   7.206   1.687   6.656  0.0894 -0.0164  0.0369
 8804TIP3    H150607   7.257   1.766   6.674 -0.8294  0.4697  0.6240
 8804TIP3    H250608   7.134   1.691   6.720 -0.4052 -0.9170 -0.4549
 8805TIP3   OH250609   7.276   1.084   7.352  0.2281  0.3438 -0.6267
 8805TIP3    H150610   7.343   1.021   7.379  0.8348  0.5074 -1.7087
 8805TIP3    H250611   7.311   1.169   7.378 -0.4594  0.2936  0.5640
 8806TIP3   OH250612   7.520   9.079   5.752 -0.1495  0.2846  0.1516
 8806TIP3    H150613   7.605   9.040   5.735  1.1445  2.6576  0.6224
 8806TIP3    H250614   7.507   9.141   5.680 -0.5462  1.3224  1.0886
 8807TIP3   OH250615   7.209   6.057   5.554 -0.1353 -0.6118 -0.1353
 8807TIP3    H150616   7.199   6.072   5.649  1.3003 -1.2693  0.1477
 8807TIP3    H250617   7.176   6.138   5.514  2.4339  1.1848  1.1014
 8808TIP3   OH250618   3.413   1.540   5.395  0.2931 -0.6327  0.6048
 8808TIP3    H150619   3.405   1.489   5.314  0.4045 -1.7610  1.2800
 8808TIP3    H250620   3.334   1.594   5.396 -0.6222 -1.9122  0.6085
 8809TIP3   OH250621   6.499   8.785   6.304 -0.0957 -0.4422  0.7281
 8809TIP3    H150622   6.570   8.847   6.321  0.5084 -0.6950 -0.6910
 8809TIP3    H250623   6.419   8.837   6.307  0.2918  0.1554  0.7650
 8810TIP3   OH250624   1.927   2.396   6.055  0.1366  0.3948  0.3583
 8810TIP3    H150625   2.018   2.367   6.060 -0.1221 -0.5584 -0.3639
 8810TIP3    H250626   1.883   2.346   6.124  0.0689  0.5289  0.4121
 8811TIP3   OH250627   0.461   2.342   4.875  0.0983 -0.6309  0.4747
 8811TIP3    H150628   0.385   2.401   4.867  0.9009  0.4384  0.5160
 8811TIP3    H250629   0.512   2.358   4.796  1.2877  0.1389  1.3669
 8812TIP3   OH250630   3.485   0.291   5.114 -0.3383  0.3311  0.0477
 8812TIP3    H150631   3.402   0.317   5.074 -0.1397  0.9024  0.0039
 8812TIP3    H250632   3.518   0.221   5.058  0.6245  2.0597 -1.6434
 8813TIP3   OH250633   1.225   6.262   5.354 -0.4914 -0.3746  0.1185
 8813TIP3    H150634   1.299   6.203   5.369 -1.2162 -1.3843 -0.1661
 8813TIP3    H250635   1.220   6.271   5.259  0.5595  1.4138  0.1947
 8814TIP3   OH250636   0.136   2.147   6.719 -0.3791  0.0603 -0.7567
 8814TIP3    H150637   0.055   2.163   6.766  0.5634  0.0860  0.9194
 8814TIP3    H250638   0.155   2.055   6.733  1.1156  0.5709  0.9762
 8815TIP3   OH250639   3.913   0.222   5.474 -0.3335  0.3340  0.4068
 8815TIP3    H150640   3.917   0.213   5.569  1.7693 -1.1115  0.2604
 8815TIP3    H250641   3.902   0.316   5.459 -0.5614  0.6029  2.0596
 8816TIP3   OH250642   7.574   3.387   5.874 -0.4012  0.8725 -0.2634
 8816TIP3    H150643   7.520   3.438   5.814 -0.7742 -0.3172 -0.9782
 8816TIP3    H250644   7.664   3.409   5.850 -0.4837 -0.8571 -2.4979
 8817TIP3   OH250645   4.450   5.352   6.532  0.6890 -0.2107 -0.1174
 8817TIP3    H150646   4.358   5.377   6.522  0.4953 -0.6590  0.5046
 8817TIP3    H250647   4.471   5.305   6.451  0.8351  1.2314 -0.9609
 8818TIP3   OH250648   7.027   5.935   6.706  0.2582  0.2923 -0.3024
 8818TIP3    H150649   6.961   5.954   6.773 -1.0824  0.0771 -1.5089
 8818TIP3    H250650   7.015   5.841   6.688  2.2121 -0.2185  0.7936
 8819TIP3   OH250651   1.383   8.571   6.547 -0.1251 -0.1808  0.8889
 8819TIP3    H150652   1.444   8.579   6.474 -1.2971 -0.5276 -0.1671
 8819TIP3    H250653   1.379   8.658   6.585  1.5113 -0.2964  1.4148
 8820TIP3   OH250654   2.600   7.259   5.033 -0.0846 -0.6773 -0.1938
 8820TIP3    H150655   2.557   7.180   5.002  0.0098  0.1325 -2.6252
 8820TIP3    H250656   2.691   7.233   5.048  0.3673 -0.7629 -2.6088
 8821TIP3   OH250657   0.736   8.566   4.816  0.1843 -0.0903  0.1893
 8821TIP3    H150658   0.720   8.523   4.732 -2.4869  0.0119  0.5452
 8821TIP3    H250659   0.716   8.658   4.800 -0.4708 -0.0908  0.9380
 8822TIP3   OH250660   7.169   0.216   6.539  0.4326 -0.0940  0.5466
 8822TIP3    H150661   7.131   0.249   6.457  0.1919 -1.1469  0.2211
 8822TIP3    H250662   7.262   0.239   6.533  0.3300  0.2457  0.1869
 8823TIP3   OH250663   3.255   1.006   5.198  0.1459  0.0869  0.2349
 8823TIP3    H150664   3.258   1.027   5.291  0.8823  3.8991 -0.4968
 8823TIP3    H250665   3.341   1.031   5.165 -0.9631  1.3549 -1.8789
 8824TIP3   OH250666   7.473   5.308   6.776  0.4450 -0.1810 -0.2329
 8824TIP3    H150667   7.537   5.247   6.813  0.3195 -0.0895  0.1435
 8824TIP3    H250668   7.506   5.394   6.801  0.9733 -0.0578 -1.3242
 8825TIP3   OH250669   7.259   7.570   4.977 -0.2223  0.5638  0.0266
 8825TIP3    H150670   7.249   7.475   4.973 -1.3539  0.7034 -1.8087
 8825TIP3    H250671   7.202   7.597   5.050 -1.5747 -0.0113 -0.7747
 8826TIP3   OH250672   8.793   7.926   5.967 -0.0304  0.5892 -0.1081
 8826TIP3    H150673   8.884   7.934   5.998  0.5352 -1.8015 -0.9519
 8826TIP3    H250674   8.740   7.944   6.045  1.2695 -1.0142  1.2503
 8827TIP3   OH250675   8.022   3.700   4.913  0.2196  0.0467  0.1793
 8827TIP3    H150676   8.002   3.612   4.945 -0.1422  0.3575  0.8378
 8827TIP3    H250677   7.936   3.741   4.900  0.3843  0.7517  1.1680
 8828TIP3   OH250678   0.059   8.080   5.373 -0.5480  0.6853 -0.0983
 8828TIP3    H150679   0.024   8.144   5.435 -3.1929 -0.9446  0.2856
 8828TIP3    H250680   0.030   8.111   5.288 -1.3769  0.3234  0.0373
 8829TIP3   OH250681   2.289   0.873   5.134 -0.2451 -0.6148  0.1234
 8829TIP3    H150682   2.341   0.806   5.088  1.1404 -0.2252  1.0386
 8829TIP3    H250683   2.217   0.824   5.174 -0.5928 -1.1859 -1.1635
 8830TIP3   OH250684   0.472   1.742   5.721  0.6193 -0.4694  0.7293
 8830TIP3    H150685   0.432   1.701   5.644 -0.5987  0.6562  0.7293
 8830TIP3    H250686   0.538   1.801   5.685 -1.8976  2.2937  0.2197
 8831TIP3   OH250687   5.618   7.559   6.952 -0.2656 -0.1682  0.2884
 8831TIP3    H150688   5.627   7.616   6.875 -0.3321 -0.9660 -0.3298
 8831TIP3    H250689   5.538   7.589   6.995 -0.5569 -0.0994 -0.2899
 8832TIP3   OH250690   6.034   7.336   5.405 -0.5278 -0.4307  0.4840
 8832TIP3    H150691   6.065   7.414   5.451 -0.9513 -0.4990  0.8938
 8832TIP3    H250692   6.056   7.353   5.313 -1.8169  0.7999  0.3623
 8833TIP3   OH250693   6.180   6.146   5.214  0.0206 -0.5631  0.1619
 8833TIP3    H150694   6.229   6.069   5.240  0.3556 -1.0952 -1.8638
 8833TIP3    H250695   6.092   6.113   5.194  0.6890 -0.9117 -2.7054
 8834TIP3   OH250696   5.430   2.196   5.679  0.5907 -0.3502  0.6955
 8834TIP3    H150697   5.520   2.223   5.662  0.1633  0.6841 -0.0963
 8834TIP3    H250698   5.411   2.229   5.767  0.2670  1.5264 -0.0342
 8835TIP3   OH250699   2.465   2.930   6.141 -0.4495 -0.0224  0.1998
 8835TIP3    H150700   2.506   2.870   6.079  0.7833 -0.3408  1.2803
 8835TIP3    H250701   2.500   3.016   6.118 -1.8110  0.2471 -1.0115
 8836TIP3   OH250702   4.045   1.040   5.078 -0.1353 -0.4025  0.3767
 8836TIP3    H150703   4.034   1.135   5.069 -0.0370 -0.4143  0.1426
 8836TIP3    H250704   4.095   1.029   5.159  0.7621 -0.2063 -0.1433
 8837TIP3   OH250705   3.599   8.683   5.367  0.6631  0.3460 -0.9284
 8837TIP3    H150706   3.542   8.688   5.290  0.2542 -1.3642 -0.7726
 8837TIP3    H250707   3.540   8.659   5.439  1.1301  1.4219 -0.1558
 8838TIP3   OH250708   0.660   7.696   6.661  0.2142  0.2496 -0.5135
 8838TIP3    H150709   0.682   7.743   6.742 -0.8009 -0.1877  0.0361
 8838TIP3    H250710   0.564   7.690   6.663  0.1751  0.2722 -1.7771
 8839TIP3   OH250711   3.145   2.710   6.343 -0.3865  0.7805 -0.4272
 8839TIP3    H150712   3.145   2.635   6.403  1.0899  1.1041  0.0341
 8839TIP3    H250713   3.089   2.683   6.271  0.2836 -0.8800 -0.3825
 8840TIP3   OH250714   7.428   6.337   5.150 -0.1522 -0.1825  0.0501
 8840TIP3    H150715   7.364   6.396   5.189 -1.2702 -0.2211 -1.5909
 8840TIP3    H250716   7.470   6.389   5.082  0.9858 -0.4159  0.5565
 8841TIP3   OH250717   6.282   1.104   5.110 -0.0762  0.0592  0.1640
 8841TIP3    H150718   6.325   1.023   5.139 -1.0844 -0.6774 -0.3220
 8841TIP3    H250719   6.206   1.112   5.168 -0.9093 -0.2594 -0.8631
 8842TIP3   OH250720   1.138   5.234   5.203 -0.0149 -0.2565  0.5910
 8842TIP3    H150721   1.180   5.151   5.182  1.0500  0.5195 -0.5576
 8842TIP3    H250722   1.125   5.277   5.118 -1.0580  0.5226  1.1076
 8843TIP3   OH250723   1.771   4.678   5.961  0.0571  0.5792 -0.2182
 8843TIP3    H150724   1.794   4.633   6.043  0.1130 -1.0955 -1.1139
 8843TIP3    H250725   1.752   4.768   5.988 -1.7802 -0.3519  1.9187
 8844TIP3   OH250726   5.541   0.567   5.381 -0.2609  0.4695  0.1541
 8844TIP3    H150727   5.523   0.487   5.431 -1.6320  0.8183  0.2464
 8844TIP3    H250728   5.472   0.627   5.407 -0.0094  1.2332 -0.9192
 8845TIP3   OH250729   7.670   0.521   7.313  0.0409 -0.3586  0.4938
 8845TIP3    H150730   7.606   0.564   7.256 -0.8467  0.2909  1.9182
 8845TIP3    H250731   7.687   0.585   7.382  2.5571 -0.3521 -0.0326
 8846TIP3   OH250732   8.393   5.467   5.396 -0.1091  0.2680 -0.2302
 8846TIP3    H150733   8.304   5.470   5.430 -0.3088  2.1541 -0.7881
 8846TIP3    H250734   8.418   5.559   5.385  2.2985 -0.1602  0.8626
 8847TIP3   OH250735   8.496   8.207   5.095 -0.2120 -0.1426  0.0298
 8847TIP3    H150736   8.565   8.188   5.031  0.2748  0.2585  0.4320
 8847TIP3    H250737   8.421   8.232   5.042  0.4765  1.1549 -0.3832
 8848TIP3   OH250738   4.115   0.926   5.554  0.5585 -0.0438 -0.4327
 8848TIP3    H150739   4.160   0.986   5.614 -0.2912  0.3271 -0.1593
 8848TIP3    H250740   4.122   0.969   5.469 -1.1881  1.1258 -0.0275
 8849TIP3   OH250741   3.019   4.920   6.010  0.0998 -0.4923  0.2863
 8849TIP3    H150742   2.951   4.986   5.995 -0.0752 -0.8405 -0.5116
 8849TIP3    H250743   3.101   4.966   5.991 -0.0630 -0.6661 -0.9507
 8850TIP3   OH250744   4.634   0.316   6.016  0.2876  0.1792  0.4026
 8850TIP3    H150745   4.613   0.227   6.045  0.7449 -0.0019  0.1972
 8850TIP3    H250746   4.550   0.352   5.986  0.0661 -0.1160  0.6641
 8851TIP3   OH250747   4.420   7.347   5.217  0.0050  0.2058 -0.0362
 8851TIP3    H150748   4.481   7.419   5.205  0.7065 -0.5222 -1.0148
 8851TIP3    H250749   4.475   7.268   5.215 -0.7762 -0.3805  0.6927
 8852TIP3   OH250750   6.259   3.287   5.931 -0.1705  0.1498  0.0510
 8852TIP3    H150751   6.245   3.341   5.853  1.1688  1.5738  0.7456
 8852TIP3    H250752   6.244   3.347   6.004 -1.9898 -1.2949  0.9716
 8853TIP3   OH250753   0.583   7.312   5.542 -0.0281  0.3129  0.0662
 8853TIP3    H150754   0.676   7.300   5.525 -0.3966 -0.9854 -1.2810
 8853TIP3    H250755   0.578   7.388   5.600  1.8027  0.8515 -0.4384
 8854TIP3   OH250756   5.294   6.981   5.171 -0.0788  0.1774 -0.2720
 8854TIP3    H150757   5.244   6.932   5.106  1.0772  2.1865 -2.8535
 8854TIP3    H250758   5.231   7.042   5.209 -0.4890 -0.1769 -0.3800
 8855TIP3   OH250759   8.153   6.779   5.552 -0.2718 -0.1261 -0.2558
 8855TIP3    H150760   8.202   6.859   5.535 -0.5738 -0.0442 -0.7657
 8855TIP3    H250761   8.219   6.710   5.556 -0.1673 -0.1759 -1.9441
 8856TIP3   OH250762   7.808   3.239   4.822  0.0668  0.0969 -0.0173
 8856TIP3    H150763   7.790   3.173   4.889  2.2761 -1.7930 -1.1280
 8856TIP3    H250764   7.794   3.193   4.739  1.6918  1.0101 -0.8380
 8857TIP3   OH250765   4.253   3.588   5.330  0.1145  0.2556 -0.1859
 8857TIP3    H150766   4.172   3.599   5.380  1.0569 -1.4155  1.8919
 8857TIP3    H250767   4.312   3.654   5.366  0.5214 -0.3670  0.3058
 8858TIP3   OH250768   0.500   3.412   4.872  0.0384  0.4404  0.1247
 8858TIP3    H150769   0.538   3.326   4.854 -0.7703 -0.1413  1.0223
 8858TIP3    H250770   0.572   3.473   4.860  0.7188 -0.3977 -0.2196
 8859TIP3   OH250771   4.098   5.307   6.066  0.2811  0.4137  0.5224
 8859TIP3    H150772   4.035   5.364   6.022  1.4301  1.8448  0.6991
 8859TIP3    H250773   4.140   5.362   6.132  3.2392  0.1666 -0.9868
 8860TIP3   OH250774   1.816   1.063   5.600  0.1243 -0.3782  0.0406
 8860TIP3    H150775   1.896   1.012   5.606 -0.2779 -1.0821 -0.4335
 8860TIP3    H250776   1.762   1.033   5.673  0.0179 -0.4079 -0.0484
 8861TIP3   OH250777   1.680   6.874   4.941 -0.2376 -1.0874 -0.1046
 8861TIP3    H150778   1.640   6.931   4.875  0.6844 -1.7325 -1.2646
 8861TIP3    H250779   1.635   6.896   5.022  1.0247  2.3013 -0.1785
 8862TIP3   OH250780   2.350   5.675   5.349 -0.0933 -0.8864 -0.1696
 8862TIP3    H150781   2.353   5.685   5.254 -0.9176  0.5926 -0.0767
 8862TIP3    H250782   2.304   5.753   5.380  2.6901  0.1956  1.6941
 8863TIP3   OH250783   4.419   9.069   5.874  0.0158  0.5924 -0.0622
 8863TIP3    H150784   4.341   9.035   5.919 -0.4968  1.6470 -0.1400
 8863TIP3    H250785   4.407   9.041   5.783 -0.4419  1.0262 -0.1419
 8864TIP3   OH250786   0.338   7.530   4.683  0.2951 -0.4725 -0.0617
 8864TIP3    H150787   0.312   7.476   4.609 -0.8277 -1.2881  0.8808
 8864TIP3    H250788   0.308   7.618   4.660 -4.1429 -1.3952  1.1441
 8865TIP3   OH250789   4.144   0.419   6.758 -0.1820  0.3611  0.6631
 8865TIP3    H150790   4.159   0.325   6.745  2.1500  0.6087  1.1231
 8865TIP3    H250791   4.110   0.426   6.847 -0.4610 -0.0482  0.5921
 8866TIP3   OH250792   8.994   7.908   5.132 -0.7282 -0.0372  0.0584
 8866TIP3    H150793   8.957   7.974   5.190 -0.4176  0.3666 -0.1926
 8866TIP3    H250794   9.068   7.872   5.180 -1.9170 -1.4495  0.9137
 8867TIP3   OH250795   0.381   0.789   5.901 -0.0040  0.2912 -0.3594
 8867TIP3    H150796   0.362   0.826   5.987  0.3101 -0.3296 -0.0160
 8867TIP3    H250797   0.371   0.694   5.912  1.6362  0.0572 -0.5653
 8868TIP3   OH250798   7.361   2.933   5.782  0.3871 -0.0222 -0.2455
 8868TIP3    H150799   7.450   2.901   5.771  0.8754 -0.3784  3.5222
 8868TIP3    H250800   7.354   3.007   5.722  3.3076  0.1809 -0.4525
 8869TIP3   OH250801   4.050   4.870   5.662 -0.0196  0.2277 -0.4281
 8869TIP3    H150802   4.042   4.835   5.751 -0.3978  1.1502 -0.0925
 8869TIP3    H250803   3.999   4.809   5.608 -1.3680  0.6891  0.2749
 8870TIP3   OH250804   7.485   3.503   5.613 -0.4127  0.5096  0.1139
 8870TIP3    H150805   7.480   3.597   5.631 -1.8528  0.4221  0.2692
 8870TIP3    H250806   7.579   3.484   5.615 -0.1504  1.7238  1.2503
 8871TIP3   OH250807   0.694   0.713   5.170  0.3970 -0.0694  0.3990
 8871TIP3    H150808   0.727   0.802   5.180  0.8141 -0.0634 -0.8864
 8871TIP3    H250809   0.627   0.720   5.102  0.3753 -0.7218  0.3460
 8872TIP3   OH250810   7.931   0.264   6.865 -0.3158  0.2671  0.1530
 8872TIP3    H150811   7.898   0.229   6.948 -1.5876  2.1984  0.5317
 8872TIP3    H250812   7.878   0.343   6.850  0.2118  0.2262 -2.2618
 8873TIP3   OH250813   5.847   1.796   5.580 -0.4451  0.3887 -0.8644
 8873TIP3    H150814   5.781   1.759   5.522 -3.1330  0.8165  1.7050
 8873TIP3    H250815   5.798   1.825   5.657  2.8376 -0.0896  1.6397
 8874TIP3   OH250816   3.222   5.556   5.653 -0.2789  0.1398  0.3928
 8874TIP3    H150817   3.190   5.544   5.742 -1.0925 -0.1638  0.0648
 8874TIP3    H250818   3.252   5.470   5.626  0.2477  0.2953  0.4774
 8875TIP3   OH250819   1.254   0.022   6.303 -0.3040 -0.4209  0.0300
 8875TIP3    H150820   1.285   0.081   6.235 -1.8884  0.6075  0.1357
 8875TIP3    H250821   1.222  -0.055   6.256 -0.4279 -0.1614 -0.3134
 8876TIP3   OH250822   7.225   2.060   5.427  0.4291  0.0071 -0.6182
 8876TIP3    H150823   7.182   2.122   5.486  0.2320  0.3822 -1.1408
 8876TIP3    H250824   7.154   2.005   5.394  0.6504 -0.7256  0.0966
 8877TIP3   OH250825   6.297   8.330   6.599  0.2680  0.6704  0.4126
 8877TIP3    H150826   6.205   8.346   6.619  1.0020  2.4742  2.7541
 8877TIP3    H250827   6.329   8.413   6.565  1.3094  0.4130  0.7310
 8878TIP3   OH250828   1.374   1.970   6.015 -0.1349  0.1100 -0.1076
 8878TIP3    H150829   1.400   1.933   6.100 -1.3727 -2.5199 -0.7681
 8878TIP3    H250830   1.437   1.934   5.953 -0.5954  0.1666 -0.6123
 8879TIP3   OH250831   3.935   5.084   5.247  0.0571 -0.0282 -0.2567
 8879TIP3    H150832   3.971   5.165   5.211  0.0452  0.1001  0.0197
 8879TIP3    H250833   4.004   5.050   5.303 -0.5711  0.6974  1.0122
 8880TIP3   OH250834   4.275   8.015   5.908 -0.2827 -0.7168  0.0498
 8880TIP3    H150835   4.250   7.928   5.940 -2.0998 -0.1184  0.3492
 8880TIP3    H250836   4.245   8.016   5.817 -1.5375  0.0462  0.4427
 8881TIP3   OH250837   1.996   6.895   5.281  0.2661  0.4037  0.1407
 8881TIP3    H150838   2.006   6.861   5.370  2.8717 -1.2498 -0.6765
 8881TIP3    H250839   2.072   6.952   5.268 -0.7742  1.6593 -0.6165
 8882TIP3   OH250840   1.784   6.917   4.623 -0.2960  0.2092  0.3520
 8882TIP3    H150841   1.877   6.903   4.638 -0.4892 -1.8927 -0.0579
 8882TIP3    H250842   1.779   7.000   4.576  1.4059  0.1803  0.0751
 8883TIP3   OH250843   5.498   2.897   5.835 -0.4538 -0.0918 -0.2523
 8883TIP3    H150844   5.542   2.812   5.824  0.0127  0.1485 -0.2858
 8883TIP3    H250845   5.434   2.881   5.904  0.3809 -0.2052  0.5279
 8884TIP3   OH250846   0.385   8.486   5.084 -0.1602  0.1970  0.3275
 8884TIP3    H150847   0.478   8.467   5.080 -0.2061 -0.2386  1.1515
 8884TIP3    H250848   0.346   8.408   5.122 -0.6067  1.1380  1.9026
 8885TIP3   OH250849   1.034   8.651   6.694  0.2324  0.2170  0.3827
 8885TIP3    H150850   1.105   8.702   6.654 -1.0012  0.5269 -1.5459
 8885TIP3    H250851   0.976   8.717   6.733 -0.1812  0.1335 -0.0875
 8886TIP3   OH250852   3.474   0.699   6.562 -0.7386  0.4199  0.2023
 8886TIP3    H150853   3.506   0.780   6.600 -1.6524  0.7929  0.1872
 8886TIP3    H250854   3.383   0.716   6.539 -0.9448 -0.6025  0.1820
 8887TIP3   OH250855   3.069   0.850   5.084  0.2381 -0.4574 -0.6482
 8887TIP3    H150856   3.138   0.901   5.127 -1.0216  1.3792 -0.6685
 8887TIP3    H250857   3.093   0.851   4.991  0.2307  0.1491 -0.6512
 8888TIP3   OH250858   1.399   3.702   6.273 -0.2770 -0.1149 -0.1470
 8888TIP3    H150859   1.313   3.672   6.304  0.1278 -0.4316  0.6934
 8888TIP3    H250860   1.461   3.638   6.308  0.6796  1.9174  2.1514
 8889TIP3   OH250861   2.281   7.399   6.643 -0.3251 -0.3267 -0.3528
 8889TIP3    H150862   2.215   7.426   6.707 -0.4413  0.7736 -0.9048
 8889TIP3    H250863   2.305   7.481   6.598  0.9663 -0.7961 -0.5747
 8890TIP3   OH250864   5.039   1.274   5.775  0.2306 -0.1213  0.0604
 8890TIP3    H150865   5.087   1.192   5.779 -0.1855 -0.3739 -0.0592
 8890TIP3    H250866   5.068   1.315   5.693 -1.7956 -1.5716 -1.5007
 8891TIP3   OH250867   5.813   2.484   6.070  1.0028 -0.0208 -0.5614
 8891TIP3    H150868   5.825   2.579   6.074 -3.0651  0.6918  2.8254
 8891TIP3    H250869   5.846   2.453   6.154  0.5446 -1.2825 -0.8351
 8892TIP3   OH250870   5.689   4.405   5.464 -0.1609 -0.2143 -0.1395
 8892TIP3    H150871   5.699   4.391   5.370 -2.1282 -0.8336 -0.3001
 8892TIP3    H250872   5.717   4.322   5.504  1.1333  0.2090 -0.0988
 8893TIP3   OH250873   7.302   1.214   6.531  0.2595  0.1117  0.1882
 8893TIP3    H150874   7.219   1.256   6.508 -0.4512 -1.1875  0.3182
 8893TIP3    H250875   7.352   1.283   6.575 -0.4103  1.1455 -0.6070
 8894TIP3   OH250876   7.991   1.996   6.205  0.1152 -0.3209  0.1392
 8894TIP3    H150877   7.935   1.953   6.141  0.1011  1.1124 -0.8535
 8894TIP3    H250878   7.957   1.968   6.290 -2.1117  0.4695 -0.4297
 8895TIP3   OH250879   2.026   0.543   5.967  0.2939 -0.2777  0.0165
 8895TIP3    H150880   1.983   0.530   5.883 -0.3742  0.8554  0.1603
 8895TIP3    H250881   2.116   0.515   5.953 -0.2952 -2.0143 -0.4984
 8896TIP3   OH250882   1.568   3.037   5.126 -0.2273  0.7570  0.2310
 8896TIP3    H150883   1.516   2.982   5.185  1.3597 -2.0002 -0.7644
 8896TIP3    H250884   1.503   3.092   5.082 -2.2783 -1.7615 -0.1730
 8897TIP3   OH250885   3.700   1.278   5.042 -0.3484  0.2252 -0.0465
 8897TIP3    H150886   3.755   1.211   5.001 -0.2048  0.4068 -0.1561
 8897TIP3    H250887   3.759   1.353   5.053 -0.4444  0.2525  0.2921
 8898TIP3   OH250888   2.614   3.196   6.141  0.2214  0.0900  0.5964
 8898TIP3    H150889   2.693   3.170   6.094  0.5660  0.0886  1.1759
 8898TIP3    H250890   2.645   3.245   6.217 -0.3469  0.4343  0.6191
 8899TIP3   OH250891   4.062   3.867   6.804  0.4652  0.2610 -0.3958
 8899TIP3    H150892   3.966   3.861   6.796  0.5022  0.7849 -1.5085
 8899TIP3    H250893   4.083   3.951   6.763  1.6238 -0.9635 -2.4500
 8900TIP3   OH250894   8.831   6.963   5.875 -0.2270  0.3059  0.6829
 8900TIP3    H150895   8.870   6.989   5.958 -0.1336  1.9894  0.1486
 8900TIP3    H250896   8.898   6.980   5.809 -0.9641  0.9267  0.0502
 8901TIP3   OH250897   2.215   1.625   5.957  0.5361  0.4178  0.1393
 8901TIP3    H150898   2.291   1.682   5.968  1.1684  0.0982 -2.1010
 8901TIP3    H250899   2.249   1.549   5.909 -0.7079 -0.9030  1.2535
 8902TIP3   OH250900   0.657   9.207   5.861  0.2160 -0.1429 -0.0905
 8902TIP3    H150901   0.653   9.168   5.948  1.5899 -0.1504 -0.0075
 8902TIP3    H250902   0.566   9.226   5.839 -0.5329 -3.1883 -0.0554
 8903TIP3   OH250903   8.334   8.731   6.129 -0.5025 -0.2029 -0.5832
 8903TIP3    H150904   8.260   8.704   6.183  0.0483  0.3990  0.4956
 8903TIP3    H250905   8.325   8.826   6.122 -1.7430 -0.4159 -3.3449
 8904TIP3   OH250906   9.212   7.829   5.249 -0.2287  0.8201  0.4290
 8904TIP3    H150907   9.279   7.869   5.304 -0.0017  0.9179  0.0838
 8904TIP3    H250908   9.260   7.770   5.191 -0.5883 -0.2264  1.1582
 8905TIP3   OH250909   8.305   8.804   4.392  0.3570  0.3429  0.0131
 8905TIP3    H150910   8.261   8.759   4.320 -1.3777  0.4902  0.9381
 8905TIP3    H250911   8.263   8.771   4.471  0.6400  1.8582  0.8407
 8906TIP3   OH250912   2.353   5.844   5.932  0.2051  0.2177  0.4779
 8906TIP3    H150913   2.317   5.919   5.886 -1.5264 -1.5922 -1.3614
 8906TIP3    H250914   2.401   5.795   5.865 -1.1148 -1.7303  0.8480
 8907TIP3   OH250915   5.671   6.089   5.865  0.5583 -0.2295  0.5029
 8907TIP3    H150916   5.621   6.167   5.890  0.4949 -0.4065  0.9364
 8907TIP3    H250917   5.739   6.082   5.932  1.9949  0.7639 -0.8127
 8908TIP3   OH250918   9.152   5.067   4.880  0.1496  0.6803  0.2762
 8908TIP3    H150919   9.144   5.153   4.840 -0.8188  0.5365  0.1512
 8908TIP3    H250920   9.067   5.050   4.920  0.2286 -0.3275  0.0597
 8909TIP3   OH250921   7.281   0.094   7.289 -0.6508  0.2171 -0.7447
 8909TIP3    H150922   7.308   0.158   7.224  1.2989  1.1624  0.8661
 8909TIP3    H250923   7.356   0.034   7.295 -0.2963  0.8021  1.3639
 8910TIP3   OH250924   6.504   5.853   6.597 -0.0915  0.7883  0.2739
 8910TIP3    H150925   6.442   5.924   6.614 -1.1951 -0.4329  1.5624
 8910TIP3    H250926   6.469   5.778   6.644  0.9727 -0.6771 -1.1412
 8911TIP3   OH250927   2.645   1.966   6.289  0.1425 -0.5957  0.1288
 8911TIP3    H150928   2.613   2.037   6.344  1.3587 -0.2697  0.4428
 8911TIP3    H250929   2.610   1.886   6.330  0.0291 -0.2779  0.6556
 8912TIP3   OH250930   2.867   4.690   5.442 -0.3739 -0.0787  0.5297
 8912TIP3    H150931   2.860   4.699   5.347  1.5320 -0.9379  0.2539
 8912TIP3    H250932   2.931   4.620   5.455  0.7782  1.1932  2.4225
 8913TIP3   OH250933   6.135   2.533   5.641  0.3170  0.4618 -0.4037
 8913TIP3    H150934   6.096   2.581   5.568 -0.3707 -0.7468 -0.8611
 8913TIP3    H250935   6.063   2.522   5.704  0.8926  1.4600  0.4692
 8914TIP3   OH250936   1.091   2.788   6.766  0.4707  0.2986 -0.0270
 8914TIP3    H150937   1.094   2.868   6.818  1.1954  1.1729 -1.3418
 8914TIP3    H250938   1.046   2.725   6.821  0.3146  1.4698  1.2411
 8915TIP3   OH250939   0.536   0.950   5.768  0.5487 -0.3020  0.3181
 8915TIP3    H150940   0.475   0.890   5.812 -0.5039 -0.1983 -0.9324
 8915TIP3    H250941   0.622   0.924   5.800  0.0491 -1.9590  0.4266
 8916TIP3   OH250942   4.772   8.850   5.860  0.1867  0.1540 -0.2396
 8916TIP3    H150943   4.718   8.918   5.903 -0.2847 -0.7988  0.7417
 8916TIP3    H250944   4.708   8.786   5.828  0.6237  0.1897 -1.2084
 8917TIP3   OH250945   0.717   0.770   5.933  0.0705  0.2232 -0.0851
 8917TIP3    H150946   0.725   0.713   5.857  0.1405  0.5854 -0.3556
 8917TIP3    H250947   0.643   0.735   5.982  1.1037 -1.0478  0.6003
 8918TIP3   OH250948   3.364   7.951   5.795 -0.3281  0.0115 -0.6017
 8918TIP3    H150949   3.357   7.971   5.701 -2.3852 -2.8553 -1.2109
 8918TIP3    H250950   3.274   7.943   5.824  0.2730  1.1616  1.7574
 8919TIP3   OH250951   8.982   3.910   6.255  0.1164  0.0498 -0.0186
 8919TIP3    H150952   9.034   3.831   6.270  0.1027  0.3514  1.9481
 8919TIP3    H250953   9.036   3.965   6.198  1.5923 -0.0469  1.2204
 8920TIP3   OH250954   4.280   6.319   5.553  0.4559  0.7194  0.2423
 8920TIP3    H150955   4.232   6.359   5.625  0.4910  0.3827  0.4567
 8920TIP3    H250956   4.223   6.247   5.524 -0.1936  1.6667 -0.9546
 8921TIP3   OH250957   3.942   2.438   6.786  0.4262 -0.3332 -0.1182
 8921TIP3    H150958   4.015   2.448   6.725  0.9275 -0.5248  0.4352
 8921TIP3    H250959   3.899   2.523   6.786 -0.6129 -0.8118 -1.9993
 8922TIP3   OH250960   6.557   8.307   5.645  0.3861 -1.0616  0.1767
 8922TIP3    H150961   6.514   8.381   5.688  0.9394 -0.2622 -0.6052
 8922TIP3    H250962   6.623   8.347   5.589  1.9868 -2.2509  1.1423
 8923TIP3   OH250963   1.659   3.522   5.628  0.4659  0.0346  0.8042
 8923TIP3    H150964   1.595   3.587   5.601 -0.8234 -1.2632  0.6033
 8923TIP3    H250965   1.738   3.545   5.580 -0.0867  1.1854  0.4107
 8924TIP3   OH250966   2.817   7.999   5.348  0.1193  0.3018 -0.1505
 8924TIP3    H150967   2.726   8.025   5.359 -0.3546 -2.0665  2.5527
 8924TIP3    H250968   2.813   7.915   5.304  1.0396  0.3234 -0.2961
 8925TIP3   OH250969   4.834   6.772   6.671 -0.1357 -0.0625 -0.0398
 8925TIP3    H150970   4.846   6.699   6.610 -0.5907 -0.4939  0.3752
 8925TIP3    H250971   4.740   6.777   6.684 -0.1230  0.7497 -0.2369
 8926TIP3   OH250972   5.821   2.498   5.720 -0.4592 -0.2953 -0.2211
 8926TIP3    H150973   5.801   2.513   5.628  1.3623  2.0628 -0.3520
 8926TIP3    H250974   5.798   2.581   5.763  1.8303 -0.0840  0.7877
 8927TIP3   OH250975   2.313   6.411   5.424  0.1719  0.2577 -0.2934
 8927TIP3    H150976   2.239   6.399   5.485  0.4471 -1.2633 -0.2180
 8927TIP3    H250977   2.370   6.336   5.441  1.7356  1.3911 -0.3758
 8928TIP3   OH250978   3.248   0.608   5.294 -0.0701  0.3704 -0.2047
 8928TIP3    H150979   3.305   0.537   5.325 -1.0979 -0.3896 -0.0280
 8928TIP3    H250980   3.266   0.614   5.200 -1.6539 -1.7400 -0.7112
 8929TIP3   OH250981   8.642   6.221   5.713 -0.4439 -0.0575 -0.3780
 8929TIP3    H150982   8.584   6.159   5.757 -2.0388  0.9538 -0.9437
 8929TIP3    H250983   8.729   6.183   5.721 -1.1625 -1.5915  0.6114
 8930TIP3   OH250984   1.039   0.538   5.865 -0.3630 -0.5927 -0.2846
 8930TIP3    H150985   1.117   0.538   5.921 -0.4712 -0.2046 -0.1340
 8930TIP3    H250986   0.990   0.461   5.893  0.2462 -1.1731 -0.7742
 8931TIP3   OH250987   5.705   0.486   6.039  0.1290  0.2878 -0.3396
 8931TIP3    H150988   5.752   0.569   6.031 -0.2117  0.4880 -0.2737
 8931TIP3    H250989   5.656   0.494   6.121  0.3605 -0.1138 -0.1620
 8932TIP3   OH250990   1.248   3.409   6.734  0.4016  0.5009  0.2652
 8932TIP3    H150991   1.165   3.433   6.694 -0.6545 -0.8863  1.5486
 8932TIP3    H250992   1.310   3.476   6.702 -0.6364  0.2460 -2.5344
 8933TIP3   OH250993   0.356   7.225   5.789  0.6639 -0.0396  0.3196
 8933TIP3    H150994   0.421   7.290   5.816  0.8378 -0.0286 -0.1164
 8933TIP3    H250995   0.373   7.149   5.845  0.2801  0.3814  1.0211
 8934TIP3   OH250996   1.008   4.218   4.859  0.1140  0.1248 -0.4952
 8934TIP3    H150997   1.049   4.223   4.773  0.0574 -1.5224 -0.6524
 8934TIP3    H250998   0.914   4.215   4.841  0.0663  0.4863 -0.3244
 8935TIP3   OH250999   4.703   8.729   5.268 -0.1785 -0.0457 -0.1019
 8935TIP3    H151000   4.622   8.777   5.254 -0.7433 -1.0738 -0.4713
 8935TIP3    H251001   4.772   8.794   5.256 -0.9543  1.3141  2.0310
 8936TIP3   OH251002   0.141   2.391   5.817 -0.0370 -0.3559  0.4082
 8936TIP3    H151003   0.203   2.450   5.775 -2.4995  1.4782 -0.9703
 8936TIP3    H251004   0.100   2.344   5.745  0.2729 -2.1334  1.3408
 8937TIP3   OH251005   7.602   3.513   6.407 -0.2069  0.2361 -0.0403
 8937TIP3    H151006   7.626   3.428   6.445  0.2984  0.0329 -0.7925
 8937TIP3    H251007   7.610   3.500   6.313 -3.2542  0.1657 -0.3774
 8938TIP3   OH251008   2.289   1.294   6.613 -0.0847  0.1848  0.2449
 8938TIP3    H151009   2.331   1.307   6.698 -1.4813  0.5293  0.8997
 8938TIP3    H251010   2.323   1.366   6.559  0.8042 -0.0320  0.4950
 8939TIP3   OH251011   4.440   3.463   6.389 -0.0904 -0.2664  0.5775
 8939TIP3    H151012   4.513   3.511   6.350  1.6092 -0.7647  2.9710
 8939TIP3    H251013   4.363   3.518   6.371  1.1892  1.4102 -0.0776
 8940TIP3   OH251014   4.698   1.299   5.849 -0.0800 -0.4811 -0.5621
 8940TIP3    H151015   4.731   1.238   5.784  0.1615 -0.9670  0.0060
 8940TIP3    H251016   4.613   1.264   5.874 -1.1012  0.8017 -2.0680
 8941TIP3   OH251017   6.972   5.790   6.180  0.0537 -0.2365 -0.3078
 8941TIP3    H151018   6.997   5.723   6.117  0.9235  0.3242 -0.5738
 8941TIP3    H251019   6.975   5.872   6.131  0.4948  0.1735  0.3916
 8942TIP3   OH251020   1.131   7.042   5.891 -0.2520 -0.5338 -0.3610
 8942TIP3    H151021   1.092   7.065   5.975 -1.9542 -1.3804 -0.8846
 8942TIP3    H251022   1.190   7.115   5.871 -0.1322 -0.1320  1.3536
 8943TIP3   OH251023   8.926   7.454   6.705 -0.3568  0.0438  0.3080
 8943TIP3    H151024   8.930   7.361   6.727  0.8095  0.1771  0.7199
 8943TIP3    H251025   8.989   7.464   6.634 -0.5172  0.5175  0.2298
 8944TIP3   OH251026   1.231   7.276   5.768  0.4159 -0.5391  0.6992
 8944TIP3    H151027   1.274   7.247   5.688  1.4957  0.9343  0.7093
 8944TIP3    H251028   1.138   7.281   5.745  0.6947 -0.2481 -0.4318
 8945TIP3   OH251029   3.630   7.506   5.795  0.4076  0.1870  0.9433
 8945TIP3    H151030   3.594   7.424   5.763 -0.2980  0.4653  1.0156
 8945TIP3    H251031   3.649   7.557   5.715  0.2006  0.2270  0.9203
 8946TIP3   OH251032   4.994   5.100   5.389 -0.1689  0.2506  0.1723
 8946TIP3    H151033   4.918   5.068   5.340 -0.4277 -0.1141  0.7994
 8946TIP3    H251034   4.991   5.051   5.471  2.0926 -1.5803 -0.7199
 8947TIP3   OH251035   6.988   8.397   4.999 -0.1977  0.4608 -0.3647
 8947TIP3    H151036   6.966   8.308   5.026  2.3286 -0.1501 -0.0938
 8947TIP3    H251037   6.987   8.394   4.903 -1.8758  0.6713 -0.3875
 8948TIP3   OH251038   7.817   4.289   6.114 -0.6491 -0.7614  0.5134
 8948TIP3    H151039   7.857   4.369   6.149 -0.2786 -0.9954  0.6227
 8948TIP3    H251040   7.851   4.283   6.025 -3.2601  1.0372 -0.7654
 8949TIP3   OH251041   5.542   7.616   5.052  0.3986 -0.3405 -0.2064
 8949TIP3    H151042   5.541   7.619   4.957  2.9241  0.3023 -0.2618
 8949TIP3    H251043   5.594   7.538   5.073 -1.6593 -1.5507  0.7222
 8950TIP3   OH251044   1.086   0.005   5.686  0.1725  0.1651 -0.6641
 8950TIP3    H151045   1.156   0.017   5.623  0.2320 -2.4676 -1.1963
 8950TIP3    H251046   1.128   0.015   5.772  1.1878 -1.1548 -0.9817
 8951TIP3   OH251047   5.828   0.907   6.198 -0.0468  0.6523  0.0647
 8951TIP3    H151048   5.795   0.902   6.108 -2.2955  2.2775  0.6938
 8951TIP3    H251049   5.921   0.885   6.192 -0.1223  0.8208 -2.6492
 8952TIP3   OH251050   8.370   7.811   6.483 -0.3511  0.3454 -0.6537
 8952TIP3    H151051   8.293   7.855   6.520 -0.2921  0.3773 -0.5669
 8952TIP3    H251052   8.408   7.764   6.557 -0.0344  0.6926 -0.5898
 8953TIP3   OH251053   1.934   4.109   6.050 -0.0239  0.0891 -0.0498
 8953TIP3    H151054   1.849   4.115   6.092 -1.1417  1.6462 -2.3483
 8953TIP3    H251055   1.916   4.075   5.962  1.3592  2.4468 -1.3727
 8954TIP3   OH251056   0.574   2.214   5.067  0.1592 -0.3689 -0.1698
 8954TIP3    H151057   0.628   2.153   5.016  1.9052  2.1055 -1.5016
 8954TIP3    H251058   0.521   2.260   5.002 -1.6015 -0.8336  0.8672
 8955TIP3   OH251059   6.984   5.038   5.875  0.5912 -0.1291 -0.1617
 8955TIP3    H151060   7.008   5.073   5.790 -0.0235 -0.7197 -0.5838
 8955TIP3    H251061   7.068   5.024   5.919  0.9584 -0.6656 -1.0130
 8956TIP3   OH251062   9.109   1.807   5.264  0.4308  0.2658  0.1332
 8956TIP3    H151063   9.196   1.781   5.233  0.7069  1.2214  0.0512
 8956TIP3    H251064   9.048   1.758   5.209  0.9001 -1.2327  0.9032
 8957TIP3   OH251065   2.022   2.354   6.392  0.2686 -0.8881  0.3636
 8957TIP3    H151066   2.025   2.354   6.488 -1.6711 -0.0815  0.4753
 8957TIP3    H251067   1.975   2.435   6.370  2.8530  0.2522 -1.4007
 8958TIP3   OH251068   7.035   0.807   5.058  0.1862  0.0343  0.2155
 8958TIP3    H151069   7.099   0.875   5.079  0.1360  0.0307  0.3797
 8958TIP3    H251070   6.970   0.813   5.128  0.7356 -0.9003  0.8250
 8959TIP3   OH251071   0.189   3.245   4.879 -0.0066  0.4027 -0.5205
 8959TIP3    H151072   0.211   3.337   4.868  3.1600 -0.0408  0.9012
 8959TIP3    H251073   0.096   3.239   4.857 -0.6574  4.1379  0.5889
 8960TIP3   OH251074   4.276   8.054   5.557  0.2814  0.2124 -0.0430
 8960TIP3    H151075   4.239   7.975   5.595 -0.9876  0.9380  0.3076
 8960TIP3    H251076   4.202   8.096   5.513  1.1779  0.6444 -1.1764
 8961TIP3   OH251077   1.408   1.778   6.233 -0.0892 -0.2269  0.4356
 8961TIP3    H151078   1.449   1.692   6.243 -1.3018 -0.8215  0.4525
 8961TIP3    H251079   1.413   1.817   6.320 -0.6157 -0.7779  0.7170
 8962TIP3   OH251080   4.965   5.250   6.512 -0.1681  0.2095 -0.3867
 8962TIP3    H151081   4.964   5.344   6.496  0.6777 -0.0683 -2.2906
 8962TIP3    H251082   4.941   5.211   6.428 -0.2510 -1.2826  0.3055
 8963TIP3   OH251083   0.934   6.516   6.114 -0.3309  0.3277 -0.4651
 8963TIP3    H151084   0.883   6.480   6.186  1.3375 -1.6413 -0.1466
 8963TIP3    H251085   0.990   6.582   6.155  1.9979 -2.1036  0.5842
 8964TIP3   OH251086   7.735   7.553   6.637  0.3945  0.3016 -0.1885
 8964TIP3    H151087   7.643   7.553   6.664  0.5535  0.0733  0.3785
 8964TIP3    H251088   7.769   7.637   6.666 -0.3279  1.6356 -2.9370
 8965TIP3   OH251089   6.096   7.559   6.312  0.0724 -0.3086  0.4156
 8965TIP3    H151090   6.024   7.562   6.375 -0.2167 -1.2801  0.1438
 8965TIP3    H251091   6.084   7.636   6.257 -1.1800 -0.8331 -0.0711
 8966TIP3   OH251092   5.196   6.894   5.967 -0.3026  0.8325  0.0220
 8966TIP3    H151093   5.236   6.963   5.915  0.2119  1.2617  0.9632
 8966TIP3    H251094   5.198   6.816   5.911  2.9046  0.5276  0.4028
 8967TIP3   OH251095   9.094   1.205   6.258  0.1834  0.3431  0.1462
 8967TIP3    H151096   9.142   1.284   6.286 -0.5966  0.2602  1.8576
 8967TIP3    H251097   9.026   1.239   6.201  0.2691  0.8472  0.3287
 8968TIP3   OH251098   7.454   4.951   5.805  0.2809  0.0843  0.4904
 8968TIP3    H151099   7.487   4.910   5.885  0.2378 -1.5156 -0.2709
 8968TIP3    H251100   7.517   5.021   5.787  1.5102 -0.8977  0.7838
 8969TIP3   OH251101   8.464   2.406   5.650 -0.5824 -0.2339 -0.5141
 8969TIP3    H151102   8.413   2.486   5.643  0.8814  0.5758 -3.0650
 8969TIP3    H251103   8.512   2.415   5.733 -2.7130  0.0247  0.7623
 8970TIP3   OH251104   7.608   0.095   4.898  0.3173 -0.1731  0.2525
 8970TIP3    H151105   7.690   0.142   4.879  0.1562  0.0766  0.1680
 8970TIP3    H251106   7.587   0.049   4.817 -0.7604  1.4778 -0.4701
 8971TIP3   OH251107   6.701   8.726   5.326 -0.2322  0.3420 -0.0656
 8971TIP3    H151108   6.774   8.672   5.295 -0.5843 -1.1545  1.6016
 8971TIP3    H251109   6.638   8.725   5.253  0.4966 -0.0822 -0.7033
 8972TIP3   OH251110   3.703   7.094   5.939 -0.1301 -0.0241  0.3720
 8972TIP3    H151111   3.729   7.039   5.865  2.9578  1.2773  0.3498
 8972TIP3    H251112   3.644   7.159   5.901  0.1021 -0.3674 -0.6077
 8973TIP3   OH251113   6.605   6.032   5.561 -0.2940 -0.4761 -0.5117
 8973TIP3    H151114   6.588   6.091   5.488  0.3230  0.8264  0.3588
 8973TIP3    H251115   6.700   6.025   5.565 -0.3243 -0.6268  0.0867
 8974TIP3   OH251116   1.570   8.743   6.413 -0.7203  0.0009  0.3138
 8974TIP3    H151117   1.532   8.831   6.408 -1.6850 -0.4349 -0.3775
 8974TIP3    H251118   1.640   8.751   6.478 -0.7977  1.2737  0.2725
 8975TIP3   OH251119   5.218   1.608   5.889  0.0200 -0.1876 -0.2200
 8975TIP3    H151120   5.136   1.605   5.840 -1.3658  0.1603  1.9771
 8975TIP3    H251121   5.277   1.550   5.840 -0.7309  1.3049 -3.1227
 8976TIP3   OH251122   9.177   6.397   5.165  0.2797 -0.2108  0.5463
 8976TIP3    H151123   9.163   6.318   5.112 -1.0653  0.6093 -0.3815
 8976TIP3    H251124   9.132   6.466   5.117  2.5336  1.4218  0.6617
 8977TIP3   OH251125   4.925   7.518   6.217 -0.0681 -0.0992 -0.3549
 8977TIP3    H151126   4.904   7.426   6.202 -2.2702  0.1293  0.9716
 8977TIP3    H251127   4.930   7.526   6.312  0.2733  1.1305 -0.4618
 8978TIP3   OH251128   4.332   7.507   6.340  0.5193  0.2129 -0.5491
 8978TIP3    H151129   4.242   7.472   6.346  1.3681 -2.0500  0.1277
 8978TIP3    H251130   4.376   7.448   6.279  1.0476  2.5793 -2.5788
 8979TIP3   OH251131   0.598   4.625   5.754 -0.4044  0.3462  0.0401
 8979TIP3    H151132   0.547   4.647   5.676 -0.1711  0.5036 -0.0677
 8979TIP3    H251133   0.662   4.560   5.723  0.0451  0.8129 -0.0196
 8980TIP3   OH251134   4.302   4.667   5.458  0.5197  0.2591 -0.1002
 8980TIP3    H151135   4.292   4.576   5.433  1.8582  0.2500 -0.6518
 8980TIP3    H251136   4.212   4.699   5.470  0.0499 -1.1998  0.4202
 8981TIP3   OH251137   3.366   5.744   5.351  0.2410  0.0524 -0.5138
 8981TIP3    H151138   3.370   5.807   5.424  1.7635  0.5845 -1.0363
 8981TIP3    H251139   3.273   5.741   5.329  0.0118  1.4789  0.0875
 8982TIP3   OH251140   5.548   0.940   6.037 -0.2118 -0.4147 -0.0592
 8982TIP3    H151141   5.614   0.891   5.988  1.0908 -0.4180  1.6022
 8982TIP3    H251142   5.513   0.877   6.100 -2.0007 -0.4705 -1.0581
 8983TIP3   OH251143   7.377   7.695   6.361  0.3647  0.4356  0.0378
 8983TIP3    H151144   7.340   7.689   6.449  1.1633 -1.0301  0.3265
 8983TIP3    H251145   7.407   7.785   6.353 -0.2862  0.7525  1.0304
 8984TIP3   OH251146   1.919   0.266   6.252  0.4054 -0.2900 -0.0874
 8984TIP3    H151147   1.890   0.322   6.324  0.6997 -1.3534  0.8894
 8984TIP3    H251148   1.838   0.236   6.211  0.2494  1.1451 -0.8767
 8985TIP3   OH251149   7.454   3.875   5.134 -0.0936 -0.2464  0.0607
 8985TIP3    H151150   7.447   3.913   5.046  0.9793 -0.7059 -0.2430
 8985TIP3    H251151   7.401   3.933   5.189 -0.8186  0.0277 -0.8888
 8986TIP3   OH251152   7.717   9.120   6.357 -0.1775 -0.7089  0.0157
 8986TIP3    H151153   7.655   9.173   6.406 -0.3141 -1.8884  1.1829
 8986TIP3    H251154   7.722   9.162   6.271 -1.5351  0.2000  0.3485
 8987TIP3   OH251155   4.243   4.150   5.087  0.3714 -0.0785 -0.2310
 8987TIP3    H151156   4.244   4.227   5.031  0.4863 -1.8412 -2.8024
 8987TIP3    H251157   4.151   4.125   5.093  0.3527  0.1238  0.4461
 8988TIP3   OH251158   6.307   1.378   5.174 -0.0778  0.3784  0.2279
 8988TIP3    H151159   6.259   1.440   5.118 -0.1591 -1.3141 -1.6961
 8988TIP3    H251160   6.276   1.292   5.146  2.4245 -0.6820  0.4968
 8989TIP3   OH251161   6.248   3.814   4.928 -0.4529  0.3256 -0.7516
 8989TIP3    H151162   6.292   3.793   4.846 -0.5757  1.0484 -1.0137
 8989TIP3    H251163   6.299   3.886   4.965 -0.1097 -0.3157  0.0588
 8990TIP3   OH251164   0.019   6.531   4.753 -0.2843 -0.5501  0.2500
 8990TIP3    H151165   0.068   6.454   4.781 -1.1289 -1.5978 -0.9990
 8990TIP3    H251166   0.075   6.605   4.775 -0.1461 -1.3554  3.0202
 8991TIP3   OH251167   2.637   1.335   6.624  0.4369  0.1302  0.0762
 8991TIP3    H151168   2.605   1.319   6.713 -2.0836  0.4576 -0.7139
 8991TIP3    H251169   2.647   1.430   6.619  0.4211  0.1263 -0.0395
 8992TIP3   OH251170   1.992   8.060   5.018  0.5467  0.0921  0.4762
 8992TIP3    H151171   1.979   8.057   5.112  3.7713 -0.4075  1.0138
 8992TIP3    H251172   2.003   7.968   4.992 -1.6905  0.0861 -0.6994
 8993TIP3   OH251173   5.704   6.325   6.171  0.3800 -0.1578  0.4414
 8993TIP3    H151174   5.659   6.256   6.219 -0.1384  0.3181  0.6448
 8993TIP3    H251175   5.655   6.333   6.089 -0.7566  1.2746  1.2193
 8994TIP3   OH251176   6.072   4.305   5.506 -0.0200  0.2160  0.1937
 8994TIP3    H151177   6.134   4.367   5.467  0.4450 -1.2665 -1.5708
 8994TIP3    H251178   6.055   4.241   5.436 -0.7355 -1.4671  1.8196
 8995TIP3   OH251179   0.435   7.396   4.910  0.4544 -0.0996 -0.1907
 8995TIP3    H151180   0.464   7.486   4.926  1.0451 -0.0970 -1.1722
 8995TIP3    H251181   0.406   7.396   4.819 -1.0889 -0.5192  0.2823
 8996TIP3   OH251182   0.015   1.652   6.047 -0.0897 -0.3665  0.3172
 8996TIP3    H151183   0.104   1.634   6.018  0.1466  0.1771  0.6907
 8996TIP3    H251184  -0.032   1.677   5.968  1.0272  3.0790  0.5923
 8997TIP3   OH251185   3.553   4.461   6.004 -0.2047  0.0158 -0.1715
 8997TIP3    H151186   3.616   4.530   5.983  0.4160 -1.0834 -2.1874
 8997TIP3    H251187   3.489   4.504   6.060  0.2543  2.1828 -1.1810
 8998TIP3   OH251188   0.185   6.821   4.793 -0.8032  0.2552  0.6358
 8998TIP3    H151189   0.224   6.885   4.853 -1.1769 -0.0449  1.2168
 8998TIP3    H251190   0.091   6.837   4.800 -0.9108 -0.4631  0.9187
 8999TIP3   OH251191   2.678   4.655   6.162 -0.0802 -0.1966  0.2977
 8999TIP3    H151192   2.685   4.681   6.070 -0.8102  0.9134  0.5306
 8999TIP3    H251193   2.738   4.714   6.208  0.1945 -0.6699  0.5555
 9000TIP3   OH251194   1.022   3.430   4.763  0.0168  0.4774 -0.1416
 9000TIP3    H151195   0.964   3.474   4.701 -0.4639 -1.5607 -1.2210
 9000TIP3    H251196   1.108   3.431   4.720  0.8096  3.0852  1.2537
 9001TIP3   OH251197   7.722   7.464   5.817 -0.1877 -0.7846  0.2108
 9001TIP3    H151198   7.795   7.460   5.755 -0.2705  1.0811 -0.0596
 9001TIP3    H251199   7.758   7.428   5.899  1.0518  0.1190  0.0890
 9002TIP3   OH251200   3.839   7.825   5.890  0.1788 -0.0658 -0.4750
 9002TIP3    H151201   3.851   7.827   5.795 -0.2681  1.0898 -0.5159
 9002TIP3    H251202   3.754   7.783   5.902 -0.2934  0.8390 -0.6402
 9003TIP3   OH251203   5.265   1.737   5.083  0.2367 -0.1523  0.3212
 9003TIP3    H151204   5.223   1.822   5.079  0.7555  0.1328  0.7785
 9003TIP3    H251205   5.224   1.693   5.158 -0.1065 -0.3538  0.0214
 9004TIP3   OH251206   2.749   8.129   5.845 -0.0868 -0.2325  0.1900
 9004TIP3    H151207   2.656   8.112   5.838  0.3482 -2.2482 -2.2015
 9004TIP3    H251208   2.767   8.192   5.776  0.6628 -1.8845 -1.1950
 9005TIP3   OH251209   2.537   8.230   6.752  0.0006  0.1194 -0.4553
 9005TIP3    H151210   2.544   8.322   6.778 -1.3144 -0.2570  1.4226
 9005TIP3    H251211   2.590   8.183   6.817 -1.4654 -0.6494  0.2328
 9006TIP3   OH251212   1.980   2.055   5.123  0.7197 -0.0776 -0.1008
 9006TIP3    H151213   2.037   2.080   5.196  1.3357 -0.8391 -0.3094
 9006TIP3    H251214   2.028   1.985   5.078 -0.6964 -1.2739  0.1654
 9007TIP3   OH251215   4.868   7.317   5.229  0.2268 -0.2984 -0.4375
 9007TIP3    H151216   4.926   7.378   5.275 -2.0572  0.7788  1.2017
 9007TIP3    H251217   4.866   7.350   5.139 -0.5025  1.7676  0.2776
 9008TIP3   OH251218   5.983   2.652   5.454  0.2829 -0.3691 -0.3833
 9008TIP3    H151219   5.889   2.633   5.449  0.2786 -0.5568  0.2929
 9008TIP3    H251220   5.990   2.719   5.521  0.6992 -0.8533  0.0688
 9009TIP3   OH251221   4.344   7.157   6.461 -0.1866 -0.0342 -0.1561
 9009TIP3    H151222   4.266   7.108   6.434 -0.9837  0.9819  0.2281
 9009TIP3    H251223   4.312   7.219   6.526  1.1785 -0.4465  0.9796
 9010TIP3   OH251224   9.006   0.637   5.165  0.0390  0.2964 -0.0968
 9010TIP3    H151225   8.979   0.723   5.196 -2.2397 -0.7902  1.1592
 9010TIP3    H251226   8.994   0.641   5.070  1.3435  1.7655 -0.2453
 9011TIP3   OH251227   3.872   3.191   7.093  0.1109 -0.4103  0.2374
 9011TIP3    H151228   3.807   3.149   7.037  0.8545 -0.0094 -0.9665
 9011TIP3    H251229   3.822   3.220   7.169 -1.1493 -0.0073 -0.7029
 9012TIP3   OH251230   6.973   2.948   5.362 -0.0282  0.5820  0.2486
 9012TIP3    H151231   7.065   2.936   5.386  0.0994  1.1932  0.0919
 9012TIP3    H251232   6.928   2.873   5.400  1.0047 -1.6269 -2.4618
 9013TIP3   OH251233   3.434   1.306   6.020 -0.2612 -0.7014 -0.0431
 9013TIP3    H151234   3.478   1.222   6.032 -0.6963 -0.7000  1.8232
 9013TIP3    H251235   3.341   1.285   6.021 -0.3679 -0.4324 -1.7350
 9014TIP3   OH251236   6.330   0.961   5.503  0.4441 -0.6043 -0.2699
 9014TIP3    H151237   6.318   1.047   5.462 -0.8778  0.3027  1.8827
 9014TIP3    H251238   6.251   0.913   5.480  1.2584 -1.3672 -1.6164
 9015TIP3   OH251239   0.046   6.472   5.414 -0.2705  0.1479  0.2610
 9015TIP3    H151240   0.131   6.510   5.394 -0.1295 -0.3542 -0.1022
 9015TIP3    H251241  -0.006   6.485   5.334 -0.5618  0.5169  0.5046
 9016TIP3   OH251242   6.258   8.523   5.211 -0.0785 -0.3951 -0.4867
 9016TIP3    H151243   6.180   8.487   5.253  1.7210 -1.5092  2.1972
 9016TIP3    H251244   6.297   8.450   5.164 -0.5744  0.1477 -1.7852
 9017TIP3   OH251245   3.336   2.211   6.717 -0.2457 -0.0083  0.1429
 9017TIP3    H151246   3.328   2.125   6.758  0.9089 -0.6891 -0.9882
 9017TIP3    H251247   3.246   2.238   6.700 -0.6120 -1.4562 -0.3921
 9018TIP3   OH251248   8.496   8.984   5.516  0.1810 -0.6368 -0.3355
 9018TIP3    H151249   8.425   9.013   5.458  0.6264 -0.5335 -0.8388
 9018TIP3    H251250   8.566   8.958   5.456  1.0353  0.4383  0.1861
 9019TIP3   OH251251   9.134   2.225   6.573 -0.4010  0.1195  0.1661
 9019TIP3    H151252   9.099   2.140   6.596 -1.1042  1.0962  3.1577
 9019TIP3    H251253   9.224   2.224   6.604 -0.5965  0.6540  0.7700
 9020TIP3   OH251254   0.863   2.631   4.961  0.6513  0.1271 -0.1742
 9020TIP3    H151255   0.850   2.631   4.866 -1.6755  3.6070 -0.0509
 9020TIP3    H251256   0.915   2.709   4.978 -1.3600  1.2254  1.4979
 9021TIP3   OH251257   0.312   1.341   5.265 -0.1817 -0.5296  0.4151
 9021TIP3    H151258   0.266   1.262   5.237  2.3297 -1.6174 -0.9527
 9021TIP3    H251259   0.371   1.312   5.334  1.1764 -0.0159 -0.4872
 9022TIP3   OH251260   5.807   4.939   6.158  1.0285 -0.1540  0.1673
 9022TIP3    H151261   5.849   4.869   6.109  2.3454  0.1104  0.8819
 9022TIP3    H251262   5.866   5.014   6.151 -0.7282  1.1897 -1.2480
 9023TIP3   OH251263   8.562   0.832   6.608  0.0515 -0.0204  0.6596
 9023TIP3    H151264   8.468   0.829   6.590  0.0334  1.7137  0.2491
 9023TIP3    H251265   8.583   0.745   6.640 -1.3328 -1.0279 -0.9946
 9024TIP3   OH251266   7.348   6.292   6.193  0.4313  0.3828  0.1448
 9024TIP3    H151267   7.433   6.265   6.230  1.0173 -0.1120 -1.4736
 9024TIP3    H251268   7.286   6.227   6.227  0.7714  0.4626  0.9565
 9025TIP3   OH251269   1.297   8.998   5.006 -0.1986 -0.4518 -0.2408
 9025TIP3    H151270   1.296   8.930   4.939 -2.3023  0.0778 -0.8241
 9025TIP3    H251271   1.360   8.968   5.070 -1.2381 -3.0863 -0.3572
 9026TIP3   OH251272   2.525   2.289   4.814  0.3266  0.1253  0.0369
 9026TIP3    H151273   2.476   2.225   4.761  0.1975  0.9826 -0.9164
 9026TIP3    H251274   2.616   2.260   4.809  0.5101  0.8382 -1.6999
 9027TIP3   OH251275   4.392   5.336   5.351  0.2181  0.0768  0.3105
 9027TIP3    H151276   4.456   5.360   5.284 -0.1739  0.7806  0.1767
 9027TIP3    H251277   4.409   5.396   5.424  0.8258 -0.8707  0.9614
 9028TIP3   OH251278   1.109   3.415   6.244  0.0044  0.0346 -0.4456
 9028TIP3    H151279   1.104   3.509   6.262  0.0504 -0.0158 -0.1741
 9028TIP3    H251280   1.130   3.411   6.151  0.9180  0.3088 -0.2662
 9029TIP3   OH251281   4.189   5.070   5.515 -0.1526 -0.7119 -0.0268
 9029TIP3    H151282   4.135   5.002   5.555 -0.5526  0.0314  0.7446
 9029TIP3    H251283   4.274   5.030   5.502 -0.4933 -1.4715  0.0423
 9030TIP3   OH251284   5.853   4.282   5.949  0.4095 -0.2073 -0.9485
 9030TIP3    H151285   5.861   4.320   5.862 -0.9518  0.3429 -0.8647
 9030TIP3    H251286   5.844   4.357   6.008 -1.8072 -0.5611 -0.7285
 9031TIP3   OH251287   5.440   1.550   6.954  0.1949 -0.1746 -0.3223
 9031TIP3    H151288   5.495   1.472   6.960  0.0548 -0.1840  1.4802
 9031TIP3    H251289   5.501   1.622   6.939  0.3435 -0.5820 -1.7778
 9032TIP3   OH251290   7.386   2.457   5.738 -0.7698 -0.1569  0.6030
 9032TIP3    H151291   7.464   2.416   5.700  0.2237  0.2856  2.0927
 9032TIP3    H251292   7.338   2.491   5.663  1.5979  1.5369 -0.2343
 9033TIP3   OH251293   4.676   0.200   6.462  0.1136  0.2318 -1.1234
 9033TIP3    H151294   4.603   0.262   6.468 -0.0987 -0.0765 -0.2272
 9033TIP3    H251295   4.751   0.247   6.497  0.3485  0.5409 -2.0237
 9034TIP3   OH251296   1.841   2.185   5.609 -0.1057 -0.3421  0.2433
 9034TIP3    H151297   1.886   2.118   5.557 -0.3152  0.4053 -0.9249
 9034TIP3    H251298   1.888   2.185   5.692  0.4200 -1.3608 -0.0254
 9035TIP3   OH251299   7.095   4.018   5.645 -0.3559 -0.0108  0.5272
 9035TIP3    H151300   7.055   4.098   5.610  0.4706 -0.3586 -1.2986
 9035TIP3    H251301   7.060   3.948   5.590  0.1601 -0.7299  1.1008
 9036TIP3   OH251302   7.937   5.214   5.424  0.7001 -0.0995  0.0396
 9036TIP3    H151303   7.911   5.124   5.403 -1.5063  0.8236 -1.6110
 9036TIP3    H251304   7.969   5.249   5.340 -0.1508  1.1484  0.2057
 9037TIP3   OH251305   0.666   3.503   6.582 -0.0188 -0.7103 -0.2258
 9037TIP3    H151306   0.745   3.535   6.539  0.5697  1.5345  2.2428
 9037TIP3    H251307   0.682   3.409   6.596  0.6472 -1.0433 -2.8318
 9038TIP3   OH251308   8.922   6.427   5.373 -0.2633  0.2006 -0.5185
 9038TIP3    H151309   8.996   6.388   5.420  0.5109  1.9034 -0.2463
 9038TIP3    H251310   8.913   6.375   5.294 -0.1527 -1.3411  0.4506
 9039TIP3   OH251311   6.993   4.861   6.791 -0.2616  0.2292 -0.7396
 9039TIP3    H151312   7.075   4.911   6.785  0.1019 -0.2669 -0.0115
 9039TIP3    H251313   7.018   4.778   6.832 -0.9980 -0.2384 -1.2084
 9040TIP3   OH251314   5.605   1.325   6.922  0.3121  0.1616  0.3025
 9040TIP3    H151315   5.614   1.324   6.827  2.4188  1.0141  0.4330
 9040TIP3    H251316   5.620   1.235   6.949 -2.0435 -0.4607 -0.2325
 9041TIP3   OH251317   4.464   4.536   6.415  0.0233  0.0963  0.3248
 9041TIP3    H151318   4.425   4.455   6.384  0.1891  0.4880 -0.9800
 9041TIP3    H251319   4.539   4.550   6.357  0.6966  0.5771  1.2874
 9042TIP3   OH251320   0.639   2.790   6.105 -0.1954  0.1012  0.3805
 9042TIP3    H151321   0.565   2.735   6.079 -0.2049  0.1691  0.2598
 9042TIP3    H251322   0.691   2.799   6.025  0.7975 -1.2586  0.8380
 9043TIP3   OH251323   3.198   4.644   5.649  0.1344  0.1254  0.1728
 9043TIP3    H151324   3.286   4.637   5.611  0.3979 -1.3837  0.9436
 9043TIP3    H251325   3.212   4.691   5.731  0.9163 -3.0327  2.0263
 9044TIP3   OH251326   4.769   7.163   6.741  0.0519 -0.3119 -0.2036
 9044TIP3    H151327   4.806   7.238   6.695  0.3172 -0.8281 -0.8491
 9044TIP3    H251328   4.711   7.122   6.677  1.0740 -1.5299 -0.3920
 9045TIP3   OH251329   8.705   3.944   6.518  0.0621  0.7181  0.3703
 9045TIP3    H151330   8.731   3.980   6.433  1.0033  0.1716  0.4224
 9045TIP3    H251331   8.776   3.886   6.543 -0.7982 -0.1280  0.9448
 9046TIP3   OH251332   8.324   2.875   5.174 -0.2635 -0.0214 -0.1824
 9046TIP3    H151333   8.362   2.955   5.139  0.4768 -0.4334 -0.3302
 9046TIP3    H251334   8.323   2.888   5.269  1.2608 -0.4420 -0.0917
 9047TIP3   OH251335   3.501   5.111   5.979 -0.2249 -0.2303 -0.1654
 9047TIP3    H151336   3.578   5.066   5.943 -0.1568  0.0915 -0.4234
 9047TIP3    H251337   3.504   5.093   6.073  0.8464  0.7802  0.0155
 9048TIP3   OH251338   4.294   2.429   6.635  0.0809  0.4139 -0.4956
 9048TIP3    H151339   4.241   2.491   6.684  0.1407  0.9324 -1.0726
 9048TIP3    H251340   4.329   2.480   6.561 -0.8582 -0.5816 -1.6692
 9049TIP3   OH251341   6.112   3.817   5.466 -0.0641  0.5120  0.1628
 9049TIP3    H151342   6.021   3.831   5.491 -0.3095 -0.9285  0.1847
 9049TIP3    H251343   6.152   3.780   5.545  0.2711  0.1461 -0.1791
 9050TIP3   OH251344   7.237   5.050   5.993  0.1751 -0.1616  0.3555
 9050TIP3    H151345   7.316   5.049   5.940 -0.3306 -1.0978 -0.4208
 9050TIP3    H251346   7.210   5.142   5.995  0.8283  0.0438 -0.0453
 9051TIP3   OH251347   2.247   0.970   4.820 -0.5175 -0.2220  0.7127
 9051TIP3    H151348   2.262   0.879   4.846  0.4134 -0.7513 -1.4196
 9051TIP3    H251349   2.197   0.963   4.739  1.1821  1.0349 -0.5283
 9052TIP3   OH251350   3.974   3.528   5.742  0.1620 -0.3906 -0.2718
 9052TIP3    H151351   3.927   3.486   5.814 -0.9625 -0.7683 -1.2019
 9052TIP3    H251352   3.916   3.519   5.666  0.2349  2.1660 -0.6957
 9053TIP3   OH251353   1.505   1.646   4.917 -0.0022  0.0423 -0.1939
 9053TIP3    H151354   1.435   1.711   4.910  1.3849  1.8096  1.3911
 9053TIP3    H251355   1.585   1.694   4.896  0.9263 -1.6139 -0.7079
 9054TIP3   OH251356   0.014   2.763   5.224 -0.0850 -0.3733  0.5699
 9054TIP3    H151357   0.092   2.786   5.174 -0.3934 -0.4279  0.0537
 9054TIP3    H251358   0.038   2.779   5.316  1.1225 -2.0570  0.5924
 9055TIP3   OH251359   7.047   6.488   6.566 -0.1368  0.4588 -0.2206
 9055TIP3    H151360   7.099   6.494   6.486  0.1088  0.7330 -0.0415
 9055TIP3    H251361   7.015   6.577   6.581 -0.1111  0.4261  0.0309
 9056TIP3   OH251362   5.936   6.699   6.241  0.1398 -0.0227  0.7225
 9056TIP3    H151363   6.029   6.675   6.236  0.1821  0.3084 -0.5816
 9056TIP3    H251364   5.930   6.755   6.319  1.1682  0.4799  0.4626
 9057TIP3   OH251365   7.504   3.373   5.218 -0.3385  0.0840  0.1084
 9057TIP3    H151366   7.552   3.296   5.245 -0.4718  0.0743  0.3205
 9057TIP3    H251367   7.529   3.386   5.126 -0.8565 -0.6175 -0.1368
 9058TIP3   OH251368   5.786   2.923   5.333  0.1377  0.0749 -0.1111
 9058TIP3    H151369   5.771   2.993   5.269 -1.5439  1.0266  1.2322
 9058TIP3    H251370   5.821   2.851   5.282 -5.1297 -0.8767 -3.1253
 9059TIP3   OH251371   6.717   5.128   4.890  0.0921 -0.2235  0.1312
 9059TIP3    H151372   6.696   5.163   4.803 -0.1562  0.6851  0.5364
 9059TIP3    H251373   6.633   5.096   4.924  0.0154  0.2363  0.3825
 9060TIP3   OH251374   1.104   5.048   6.160  0.4348 -0.1663  0.3748
 9060TIP3    H151375   1.055   4.995   6.097 -0.3662  0.4114  0.4983
 9060TIP3    H251376   1.195   5.018   6.152  0.2489 -0.4688 -0.6610
 9061TIP3   OH251377   3.760   0.583   5.965  0.9062 -0.2361  0.3541
 9061TIP3    H151378   3.783   0.495   5.936 -0.0668 -0.4443  0.1730
 9061TIP3    H251379   3.703   0.570   6.041 -4.1495 -0.1518 -2.8838
 9062TIP3   OH251380   3.662   7.980   6.593  0.3176 -0.1776 -0.6776
 9062TIP3    H151381   3.597   8.050   6.601  1.2709  0.8155 -1.3292
 9062TIP3    H251382   3.681   7.975   6.499  2.1805  0.5427 -0.3923
 9063TIP3   OH251383   3.962   6.381   6.105 -0.0669  0.0798 -0.0694
 9063TIP3    H151384   4.055   6.401   6.091  0.2473 -1.2325  0.0654
 9063TIP3    H251385   3.918   6.419   6.029  0.5178  1.0750  0.0690
 9064TIP3   OH251386   6.492   2.188   6.720  0.4372 -0.3892  0.2904
 9064TIP3    H151387   6.539   2.270   6.709  0.7605 -0.2309  2.5199
 9064TIP3    H251388   6.401   2.214   6.734 -0.0931 -0.6205 -2.1501
 9065TIP3   OH251389   4.594   0.030   5.758 -0.1056  0.0709  0.1066
 9065TIP3    H151390   4.547   0.059   5.679  0.6281  1.6474  0.2006
 9065TIP3    H251391   4.528  -0.014   5.810 -1.2593  1.3155 -0.2375
 9066TIP3   OH251392   7.822   8.900   5.021 -0.2161  0.4799  0.4337
 9066TIP3    H151393   7.786   8.976   5.066  1.0001  0.2696  1.8719
 9066TIP3    H251394   7.849   8.842   5.092  0.8896 -0.3193 -0.6043
 9067TIP3   OH251395   2.853   8.629   5.487  0.1581  0.0712  0.7163
 9067TIP3    H151396   2.865   8.706   5.432 -0.5561 -0.2977  0.0227
 9067TIP3    H251397   2.785   8.578   5.442  0.0179 -0.5470  1.6074
 9068TIP3   OH251398   2.145   5.533   6.082  0.2913  0.3085  0.2380
 9068TIP3    H151399   2.178   5.476   6.012 -1.0065 -0.6089  0.3324
 9068TIP3    H251400   2.224   5.565   6.126  1.0820 -0.7855 -0.3324
 9069TIP3   OH251401   1.652   6.315   5.863 -0.4334  0.0290 -0.0096
 9069TIP3    H151402   1.612   6.286   5.781  0.0554  0.7849 -0.5279
 9069TIP3    H251403   1.728   6.258   5.874  0.7124  1.2701 -1.1958
 9070TIP3   OH251404   2.803   8.530   4.941 -0.1604  0.4790 -0.4599
 9070TIP3    H151405   2.754   8.497   4.865  1.9314  1.1145 -2.1770
 9070TIP3    H251406   2.855   8.456   4.970  2.2704  1.2690 -2.4394
 9071TIP3   OH251407   3.655   0.707   5.739  0.3846 -0.2195  0.2139
 9071TIP3    H151408   3.629   0.622   5.703 -1.4527  0.1316  0.5771
 9071TIP3    H251409   3.707   0.685   5.816 -2.2159 -1.1637  1.8618
 9072TIP3   OH251410   1.687   6.708   6.996  0.9207 -0.0609 -0.2514
 9072TIP3    H151411   1.693   6.681   7.088  2.2836  0.8344 -0.0361
 9072TIP3    H251412   1.763   6.666   6.954  0.2864 -0.4938 -0.9860
 9073TIP3   OH251413   0.579   1.312   6.815  0.0601  0.2119 -0.0181
 9073TIP3    H151414   0.588   1.397   6.770  1.2375  1.4369  2.3381
 9073TIP3    H251415   0.656   1.263   6.788 -1.3092 -0.7547 -2.4827
 9074TIP3   OH251416   2.447   2.843   6.777 -0.9153 -0.0589  0.4994
 9074TIP3    H151417   2.398   2.826   6.697 -0.4436 -2.6859  0.6792
 9074TIP3    H251418   2.385   2.891   6.833 -1.2551  1.7898 -1.3585
 9075TIP3   OH251419   3.035   7.107   5.608 -0.2343  0.3114 -0.0905
 9075TIP3    H151420   3.021   7.199   5.631 -0.6645 -0.2147  1.9696
 9075TIP3    H251421   3.130   7.098   5.605 -0.1868  0.8034 -0.1994
 9076TIP3   OH251422   8.142   7.001   6.011 -0.0115  0.5113  0.5511
 9076TIP3    H151423   8.141   6.933   6.078  0.2205 -1.7231 -1.5598
 9076TIP3    H251424   8.055   7.041   6.015  0.1860  0.8696  2.4919
 9077TIP3   OH251425   5.277   4.081   6.139  0.2305  0.5026 -0.2327
 9077TIP3    H151426   5.269   4.167   6.096  0.1084  0.2397 -0.7471
 9077TIP3    H251427   5.223   4.023   6.086  3.9270 -0.9768 -2.7911
 9078TIP3   OH251428   4.214   6.670   5.719  0.0714 -0.6214  0.6170
 9078TIP3    H151429   4.220   6.755   5.764  1.2972 -0.8228  0.8560
 9078TIP3    H251430   4.304   6.640   5.713 -0.3242 -1.7538  0.2138
 9079TIP3   OH251431   5.189   4.246   5.835  0.6608 -0.2194  0.1151
 9079TIP3    H151432   5.187   4.325   5.781 -0.2850  0.3093  0.9064
 9079TIP3    H251433   5.236   4.271   5.914  0.3189 -0.4276  0.3907
 9080TIP3   OH251434   8.897   7.234   6.944 -0.0424 -0.4831 -0.2105
 9080TIP3    H151435   8.978   7.221   6.893  0.0735 -1.9464  0.2875
 9080TIP3    H251436   8.915   7.309   7.000 -0.3717  1.5767 -2.6531
 9081TIP3   OH251437   8.969   2.438   6.480  0.1841  0.0595  0.4213
 9081TIP3    H151438   8.991   2.352   6.516  0.3392 -0.4000 -0.7606
 9081TIP3    H251439   9.050   2.469   6.439 -0.0831  0.4339  0.1669
 9082TIP3   OH251440   3.467   8.671   6.788  0.0415 -0.2583  0.3181
 9082TIP3    H151441   3.482   8.577   6.798  0.0096 -0.2013  0.9308
 9082TIP3    H251442   3.537   8.700   6.728 -0.4068 -0.7982 -0.4857
 9083TIP3   OH251443   8.964   5.471   6.598 -0.5137  0.3972  0.7850
 9083TIP3    H151444   9.027   5.401   6.616  0.9431  0.8589 -1.8181
 9083TIP3    H251445   8.880   5.427   6.592 -0.2012 -0.5394  2.6217
 9084TIP3   OH251446   3.148   4.780   5.164  0.6277  0.2726 -0.4305
 9084TIP3    H151447   3.131   4.782   5.258 -1.3791 -1.3882 -0.6855
 9084TIP3    H251448   3.234   4.822   5.154  1.3282 -0.3488  2.2160
 9085TIP3   OH251449   2.931   2.254   6.040 -0.4947 -0.3193  0.0008
 9085TIP3    H151450   2.913   2.172   6.086 -0.8753 -1.0773 -1.4162
 9085TIP3    H251451   2.853   2.269   5.986  0.3523 -0.0789 -1.2129
 9086TIP3   OH251452   2.407   6.424   6.116 -0.2437 -0.0019 -0.0272
 9086TIP3    H151453   2.350   6.480   6.168 -0.4096  1.0046 -1.2472
 9086TIP3    H251454   2.483   6.479   6.096  1.0898 -1.2354  1.3644
 9087TIP3   OH251455   6.994   8.923   6.118 -0.0104  0.2245 -0.1006
 9087TIP3    H151456   7.057   8.974   6.170 -0.1917 -1.7871  2.2800
 9087TIP3    H251457   7.047   8.854   6.077 -0.3984 -0.6381  0.7899
 9088TIP3   OH251458   4.295   7.071   6.079 -0.4696  0.3085 -0.4845
 9088TIP3    H151459   4.226   7.134   6.099 -0.7092  0.3394 -1.3541
 9088TIP3    H251460   4.361   7.085   6.146 -0.1851  1.9764 -1.0731
 9089TIP3   OH251461   1.487   8.999   6.404  0.1274  0.2708  0.2421
 9089TIP3    H151462   1.446   8.988   6.318  0.2875 -0.2851  0.2313
 9089TIP3    H251463   1.539   9.079   6.396 -0.9237  0.9816  0.2501
 9090TIP3   OH251464   6.527   6.997   5.469  0.1054 -0.4332 -0.0603
 9090TIP3    H151465   6.547   7.030   5.381 -0.0121 -1.8800 -0.6632
 9090TIP3    H251466   6.530   6.902   5.460 -1.8452 -0.6466  1.0437
 9091TIP3   OH251467   2.812   1.990   6.930  0.4303 -0.4790  0.1603
 9091TIP3    H151468   2.719   2.003   6.946  0.6416  1.3354  0.1721
 9091TIP3    H251469   2.840   2.069   6.883  1.7603 -1.4437 -0.7908
 9092TIP3   OH251470   1.438   7.619   6.193 -0.0285  0.0433  0.3079
 9092TIP3    H151471   1.506   7.644   6.255 -0.3845  0.5062  0.5160
 9092TIP3    H251472   1.481   7.626   6.107 -0.4389  2.7165  0.2218
 9093TIP3   OH251473   7.564   4.409   6.128  0.1073  0.1417 -0.4857
 9093TIP3    H151474   7.655   4.384   6.108  0.4515  0.9075  0.1151
 9093TIP3    H251475   7.547   4.371   6.214 -0.3329 -0.4554 -0.8250
 9094TIP3   OH251476   0.075   2.631   6.006  0.0491  0.1564  0.8455
 9094TIP3    H151477   0.100   2.551   5.960 -1.8529 -0.4501  0.7980
 9094TIP3    H251478   0.074   2.698   5.937 -0.3562 -0.2202  0.4765
 9095TIP3   OH251479   3.773   1.668   5.906  0.3212  0.1154 -0.1044
 9095TIP3    H151480   3.750   1.632   5.820 -2.2647  2.1631 -0.3728
 9095TIP3    H251481   3.725   1.613   5.968 -2.3539  1.9156 -0.4196
 9096TIP3   OH251482   8.299   8.401   7.072 -0.4377 -0.2728  0.1734
 9096TIP3    H151483   8.353   8.393   6.993 -0.7329 -0.4536 -0.0106
 9096TIP3    H251484   8.275   8.311   7.094 -0.4132 -0.2161  0.4306
 9097TIP3   OH251485   3.084   6.294   6.582 -0.0953 -0.1601 -0.1645
 9097TIP3    H151486   3.101   6.348   6.505  1.0207 -1.1005 -0.6068
 9097TIP3    H251487   3.153   6.319   6.644  0.3114 -0.9164 -0.3011
 9098TIP3   OH251488   2.337   7.443   5.464 -0.2536 -0.4314 -0.2632
 9098TIP3    H151489   2.399   7.370   5.465 -1.3504 -1.4061 -0.8266
 9098TIP3    H251490   2.306   7.449   5.554 -0.5066 -0.9757 -0.3112
 9099TIP3   OH251491   0.711   3.117   5.779  0.0787 -0.0590  0.0359
 9099TIP3    H151492   0.656   3.067   5.839 -0.7328 -0.0167 -0.6512
 9099TIP3    H251493   0.774   3.162   5.835 -0.8844  0.2662  0.8741
 9100TIP3   OH251494   8.536   2.292   5.364  0.3871  0.1656  0.0995
 9100TIP3    H151495   8.559   2.375   5.322 -1.5653 -0.1849 -1.8050
 9100TIP3    H251496   8.509   2.317   5.452 -1.0477  1.7054 -0.7232
 9101TIP3   OH251497   0.518   8.785   6.146 -0.4192 -1.0104  0.0944
 9101TIP3    H151498   0.524   8.690   6.136  0.9593 -0.9798  0.5005
 9101TIP3    H251499   0.594   8.819   6.098 -0.1116 -0.2030  1.1294
 9102TIP3   OH251500   6.628   1.091   6.023  0.2024  0.1459  0.1381
 9102TIP3    H151501   6.669   1.167   6.063  0.7937  0.5667 -1.2143
 9102TIP3    H251502   6.685   1.018   6.048  1.0907  0.5422 -0.6920
 9103TIP3   OH251503   6.005   9.023   5.912 -0.0751 -0.1631 -0.7321
 9103TIP3    H151504   6.065   8.968   5.963 -0.7230 -1.4121 -1.2608
 9103TIP3    H251505   5.919   9.008   5.951 -0.0124  2.1214  0.4421
 9104TIP3   OH251506   4.813   3.567   5.407  0.2064  0.3332 -0.1668
 9104TIP3    H151507   4.769   3.618   5.339  0.3312  0.1995 -0.3502
 9104TIP3    H251508   4.901   3.604   5.413  2.0585 -2.7223 -3.6546
 9105TIP3   OH251509   2.903   2.236   6.811 -0.2322 -0.3977 -0.0012
 9105TIP3    H151510   2.845   2.312   6.824  0.9553  0.3929  0.9230
 9105TIP3    H251511   2.964   2.264   6.743 -1.0186 -1.3014 -1.1131
 9106TIP3   OH251512   6.147   2.785   6.510 -0.3152  0.7470 -0.2598
 9106TIP3    H151513   6.086   2.730   6.461 -0.3355  1.0079 -0.5260
 9106TIP3    H251514   6.184   2.726   6.576  0.9239 -0.0489 -1.5933
 9107TIP3   OH251515   3.643   3.296   5.187  0.0769 -0.1084 -0.3521
 9107TIP3    H151516   3.647   3.228   5.120  1.3773 -0.9471  0.5193
 9107TIP3    H251517   3.681   3.255   5.265 -0.0530  1.2965  0.4909
 9108TIP3   OH251518   1.206   6.792   6.180  0.2315  0.3244  0.8114
 9108TIP3    H151519   1.255   6.725   6.228  0.7810  0.5581  0.5857
 9108TIP3    H251520   1.177   6.748   6.101 -1.9383 -0.4965  1.9969
 9109TIP3   OH251521   3.306   8.931   5.536 -0.5804 -0.1391 -0.4049
 9109TIP3    H151522   3.238   8.940   5.470  0.0633 -1.1968 -1.2465
 9109TIP3    H251523   3.275   8.861   5.593 -0.4764 -0.2185 -0.4448
 9110TIP3   OH251524   5.522   7.735   6.048  0.3535  0.1449  0.4197
 9110TIP3    H151525   5.584   7.804   6.073  1.2735 -1.3241  2.5371
 9110TIP3    H251526   5.440   7.758   6.092  0.1612  0.7310 -0.2360
 9111TIP3   OH251527   8.936   3.468   6.798 -0.0241  0.0047 -0.2138
 9111TIP3    H151528   8.895   3.507   6.721  1.1744  1.9375  0.0724
 9111TIP3    H251529   8.879   3.493   6.871  0.3009  0.5268 -0.1357
 9112TIP3   OH251530   6.421   5.810   5.611  0.0269  0.1051 -0.2023
 9112TIP3    H151531   6.447   5.748   5.679 -0.9113 -0.1783 -0.0902
 9112TIP3    H251532   6.489   5.877   5.612 -0.3850  0.5331  1.5620
 9113TIP3   OH251533   0.695   2.646   5.175  0.1348 -1.0866  0.0664
 9113TIP3    H151534   0.631   2.688   5.118  1.5607  0.4848 -0.4592
 9113TIP3    H251535   0.760   2.608   5.115  1.0291 -0.4468  0.6118
 9114TIP3   OH251536   1.911   6.729   4.961 -0.1777 -0.2562  0.1113
 9114TIP3    H151537   1.939   6.783   4.886  1.2507 -1.6405 -0.4080
 9114TIP3    H251538   1.828   6.767   4.987 -0.2631  0.8674 -1.5909
 9115TIP3   OH251539   8.503   7.612   6.137 -0.4443  0.5108  0.0923
 9115TIP3    H151540   8.544   7.643   6.218  1.1880 -0.4198 -0.3261
 9115TIP3    H251541   8.490   7.518   6.150 -1.3668  0.5711 -0.2589
 9116TIP3   OH251542   2.595   0.460   6.222  0.0629  0.2717 -0.1237
 9116TIP3    H151543   2.626   0.530   6.166 -0.4983  1.4427  0.9841
 9116TIP3    H251544   2.674   0.426   6.264  0.2169  1.1341  0.3109
 9117TIP3   OH251545   3.243   6.290   6.315 -0.4378 -0.1159 -0.0341
 9117TIP3    H151546   3.242   6.372   6.266  1.7200 -0.5239 -0.8622
 9117TIP3    H251547   3.316   6.241   6.278 -1.4872 -2.3089  0.6398
 9118TIP3   OH251548   6.887   0.715   6.740  0.3642  0.1555 -0.2066
 9118TIP3    H151549   6.818   0.781   6.745 -0.4460 -0.5326 -1.7199
 9118TIP3    H251550   6.969   0.765   6.746 -0.2242  1.3437 -1.4734
 9119TIP3   OH251551   1.110   5.689   5.674 -0.4191  0.2808  0.1073
 9119TIP3    H151552   1.031   5.634   5.671  0.7839 -1.5609  0.1528
 9119TIP3    H251553   1.082   5.770   5.716 -2.3310 -0.2251 -0.1076
 9120TIP3   OH251554   0.872   0.358   5.959  0.4323 -0.2119 -0.5300
 9120TIP3    H151555   0.784   0.367   5.922  0.8516 -0.1405 -1.5354
 9120TIP3    H251556   0.867   0.277   6.011 -0.1258 -0.3993 -0.8635
 9121TIP3   OH251557   3.609   2.607   6.643 -0.8825  0.5580 -0.2971
 9121TIP3    H151558   3.701   2.588   6.624 -0.4591  2.6745 -0.6206
 9121TIP3    H251559   3.574   2.524   6.675  0.5920 -0.8840 -2.1270
 9122TIP3   OH251560   6.773   2.597   5.670  0.3939 -0.6693  0.0620
 9122TIP3    H151561   6.727   2.537   5.729  1.1771 -0.0707  1.3267
 9122TIP3    H251562   6.850   2.625   5.720  0.3300  0.9626 -0.6974
 9123TIP3   OH251563   0.569   0.181   5.563  0.1256  0.1797  0.7715
 9123TIP3    H151564   0.514   0.219   5.494 -0.6269 -2.8852 -0.4910
 9123TIP3    H251565   0.510   0.121   5.609  1.3370  0.1411  2.3340
 9124TIP3   OH251566   5.010   7.847   6.080 -0.1990 -0.0111  0.0387
 9124TIP3    H151567   4.922   7.844   6.042 -0.7043 -1.6950  1.2104
 9124TIP3    H251568   4.998   7.815   6.170  1.4792  0.5955  0.5168
 9125TIP3   OH251569   4.802   8.294   5.818  0.6370  0.0897  0.3820
 9125TIP3    H151570   4.803   8.202   5.846  1.0738  0.3095  1.0802
 9125TIP3    H251571   4.882   8.304   5.766 -0.4095 -0.4510 -1.4520
 9126TIP3   OH251572   3.946   7.188   6.306  0.1268  0.1406 -0.3184
 9126TIP3    H151573   3.983   7.276   6.319 -0.4781  0.2948  0.4796
 9126TIP3    H251574   3.870   7.186   6.364 -0.4206 -0.5819 -1.0385
 9127TIP3   OH251575   2.172   7.917   5.737  0.3706  0.1947 -0.3735
 9127TIP3    H151576   2.246   7.924   5.798  1.1875 -0.4258 -1.2757
 9127TIP3    H251577   2.135   8.005   5.735 -0.2351  0.0443  1.6838
 9128TIP3   OH251578   7.518   2.385   6.305 -0.0864  0.8279 -0.1331
 9128TIP3    H151579   7.541   2.459   6.360 -0.2481  1.4723 -0.9095
 9128TIP3    H251580   7.599   2.333   6.300 -0.1071  0.7038  0.7860
 9129TIP3   OH251581   4.558   6.004   5.622  0.1322  0.5166 -0.3297
 9129TIP3    H151582   4.565   6.098   5.610  0.4010  0.7606  1.4603
 9129TIP3    H251583   4.623   5.983   5.689 -1.5234 -0.5538  1.0257
 9130TIP3   OH251584   0.533   6.090   6.374 -0.8071 -0.2281 -0.0758
 9130TIP3    H151585   0.582   6.111   6.454  0.6207 -0.6930 -0.7990
 9130TIP3    H251586   0.513   5.997   6.382  0.7360 -0.6583 -0.9655
 9131TIP3   OH251587   0.346   8.601   5.601  0.7356  0.6065 -0.3017
 9131TIP3    H151588   0.290   8.525   5.589  0.0673  1.3943 -2.6697
 9131TIP3    H251589   0.411   8.573   5.665  0.6996 -2.0698 -1.3100
 9132TIP3   OH251590   1.625   2.049   6.326  0.0977  0.2705  0.5474
 9132TIP3    H151591   1.560   2.013   6.386 -0.0137 -0.8588 -0.2043
 9132TIP3    H251592   1.650   1.974   6.271 -0.9866  1.5590 -1.8797
 9133TIP3   OH251593   8.533   5.487   5.682 -0.0264 -0.5264  0.6226
 9133TIP3    H151594   8.574   5.401   5.693 -0.4940 -0.5972  2.0655
 9133TIP3    H251595   8.513   5.492   5.589  0.5988 -1.7105  0.4006
 9134TIP3   OH251596   7.146   2.110   5.864 -0.0723  0.2394  0.6919
 9134TIP3    H151597   7.199   2.166   5.920 -0.4138 -0.2082  1.4785
 9134TIP3    H251598   7.109   2.044   5.923 -1.0729  0.2172  0.0745
 9135TIP3   OH251599   5.561   8.241   5.661 -0.0475  0.1716  0.1070
 9135TIP3    H151600   5.597   8.158   5.690  1.3845  0.7617  0.0664
 9135TIP3    H251601   5.518   8.221   5.578  0.9220 -0.3947 -0.2731
 9136TIP3   OH251602   2.886   0.346   6.025 -0.7596 -0.1283  0.7000
 9136TIP3    H151603   2.881   0.258   6.061 -0.5079 -0.2317  0.4858
 9136TIP3    H251604   2.906   0.402   6.100  2.4315 -0.6527  0.3672
 9137TIP3   OH251605   7.303   4.024   5.360 -0.2256  0.5848 -0.0947
 9137TIP3    H151606   7.384   4.067   5.388 -0.1868  0.5702 -0.1838
 9137TIP3    H251607   7.247   4.026   5.437  0.1136 -0.0158  0.1719
 9138TIP3   OH251608   0.075   2.832   5.471  0.6889  0.1804  0.5094
 9138TIP3    H151609   0.139   2.903   5.463  0.6171  0.1263 -0.6696
 9138TIP3    H251610   0.118   2.768   5.528  1.2902  0.5736  0.5115
 9139TIP3   OH251611   2.062   9.123   6.277  0.2823 -0.6893 -0.2402
 9139TIP3    H151612   2.065   9.218   6.287  0.4618 -0.5383 -1.5381
 9139TIP3    H251613   1.978   9.105   6.235 -0.0544 -1.1837  0.6185
 9140TIP3   OH251614   1.532   3.957   5.127 -0.1042  0.0944  0.2082
 9140TIP3    H151615   1.542   3.891   5.195  1.2679 -1.4098 -1.3643
 9140TIP3    H251616   1.521   3.907   5.046 -1.9301  1.8173 -0.7076
 9141TIP3   OH251617   4.090   7.241   6.908 -0.5638  0.1370 -0.4645
 9141TIP3    H151618   4.149   7.176   6.945 -0.9075 -0.3328 -0.7205
 9141TIP3    H251619   4.099   7.318   6.965 -0.0646 -0.0912 -0.2299
 9142TIP3   OH251620   5.814   8.607   5.547 -0.0761 -0.0569 -0.3144
 9142TIP3    H151621   5.754   8.534   5.533  0.1649 -0.2834 -0.1742
 9142TIP3    H251622   5.857   8.588   5.630  0.4865 -0.1112 -0.6102
 9143TIP3   OH251623   0.433   4.638   5.521 -0.1909  0.1224  0.5188
 9143TIP3    H151624   0.382   4.718   5.520  0.9698  0.8908  0.7497
 9143TIP3    H251625   0.446   4.616   5.429  1.0748  1.2751  0.3845
 9144TIP3   OH251626   2.810   2.874   5.836 -0.2669  0.2458  0.6631
 9144TIP3    H151627   2.730   2.852   5.884 -0.6058  1.8448  0.8607
 9144TIP3    H251628   2.804   2.824   5.755 -0.0722 -1.8820  1.8781
 9145TIP3   OH251629   1.544   7.370   5.653  0.5868  0.0911  0.4173
 9145TIP3    H151630   1.535   7.275   5.641  3.6642 -0.3272  0.5476
 9145TIP3    H251631   1.530   7.407   5.565  0.5893 -0.6292  0.1053
 9146TIP3   OH251632   2.161   0.594   6.265  0.4700  0.0540  0.2206
 9146TIP3    H151633   2.084   0.543   6.290  0.9661 -0.3239  1.0599
 9146TIP3    H251634   2.200   0.545   6.193 -0.0781  0.2615 -0.2264
 9147TIP3   OH251635   2.315   2.785   6.534  0.0196 -0.2749  0.4650
 9147TIP3    H151636   2.287   2.745   6.451 -1.9418  1.5347  0.1694
 9147TIP3    H251637   2.317   2.879   6.516  0.8402  0.0719  2.1392
 9148TIP3   OH251638   5.009   6.947   6.562 -0.1652 -0.3348 -0.0955
 9148TIP3    H151639   4.988   7.035   6.529 -1.4782 -0.9553 -0.9701
 9148TIP3    H251640   4.930   6.919   6.608 -0.6484 -1.9816 -1.8395
 9149TIP3   OH251641   8.090   2.512   5.549  0.2754 -0.4200  0.0315
 9149TIP3    H151642   8.069   2.557   5.631 -0.4862  0.7631 -0.7828
 9149TIP3    H251643   8.008   2.513   5.500  0.4322 -2.0784 -0.3184
 9150TIP3   OH251644   7.552   7.907   5.299  0.1438  0.5665 -0.0320
 9150TIP3    H151645   7.514   7.845   5.362  2.7314  0.0840  1.2047
 9150TIP3    H251646   7.533   7.869   5.213 -0.6785 -0.4725  0.5874
 9151TIP3   OH251647   7.326   8.271   6.263 -0.0984 -0.4216 -0.2701
 9151TIP3    H151648   7.343   8.359   6.228  2.2346 -0.5950  0.2488
 9151TIP3    H251649   7.387   8.215   6.215  1.3309 -1.0673  2.1210
 9152TIP3   OH251650   1.104   1.998   4.750 -0.0836 -0.0173 -0.3567
 9152TIP3    H151651   1.071   2.043   4.828  2.2602 -1.0174  1.3406
 9152TIP3    H251652   1.026   1.958   4.711 -1.3222  0.3462  1.5850
 9153TIP3   OH251653   2.549   5.910   5.589 -0.0490  0.1684  0.1131
 9153TIP3    H151654   2.511   5.866   5.665 -0.6420  1.8832  0.8555
 9153TIP3    H251655   2.632   5.865   5.575  0.1869 -0.0597  1.9473
 9154TIP3   OH251656   0.348   1.155   6.293 -0.2466  0.0454  0.0166
 9154TIP3    H151657   0.311   1.135   6.379 -0.0275  1.0771  0.3688
 9154TIP3    H251658   0.442   1.164   6.308 -0.1200 -0.4329 -0.4615
 9155TIP3   OH251659   4.719   5.143   5.984 -0.0878  0.0483 -0.1625
 9155TIP3    H151660   4.660   5.164   5.912  0.7202  1.2713 -0.4995
 9155TIP3    H251661   4.807   5.148   5.945  0.3373  0.2486  0.7938
 9156TIP3   OH251662   3.437   2.855   5.751  0.2170  0.2199  0.0190
 9156TIP3    H151663   3.493   2.928   5.725  1.1372 -0.8849 -1.2150
 9156TIP3    H251664   3.493   2.777   5.744 -0.4780 -0.5586  2.0969
 9157TIP3   OH251665   6.464   6.334   6.932  0.1420 -0.0128 -0.2848
 9157TIP3    H151666   6.507   6.417   6.909 -0.8193  0.5777 -0.0344
 9157TIP3    H251667   6.375   6.360   6.959 -0.4117 -1.1937 -0.8931
 9158TIP3   OH251668   5.144   6.920   5.549  0.6613  0.3544 -0.5582
 9158TIP3    H151669   5.122   6.863   5.476 -0.5045 -0.6860  0.5547
 9158TIP3    H251670   5.068   6.976   5.560  0.1729 -0.5283  0.7887
 9159TIP3   OH251671   9.123   2.185   6.888  0.3237 -0.0490  0.4517
 9159TIP3    H151672   9.129   2.148   6.976 -0.5605 -1.1821  0.0647
 9159TIP3    H251673   9.115   2.279   6.903  0.4247 -0.1967  1.5740
 9160TIP3   OH251674   4.562   8.093   4.956  0.2086  0.0947 -0.0942
 9160TIP3    H151675   4.606   8.178   4.956 -0.5080  0.4801  0.5332
 9160TIP3    H251676   4.561   8.066   5.048  2.9284 -1.9679 -0.5283
 9161TIP3   OH251677   1.653   8.777   5.308  0.0303  0.0333  0.3812
 9161TIP3    H151678   1.747   8.761   5.315 -0.0156 -1.1311 -1.0937
 9161TIP3    H251679   1.621   8.774   5.398  1.2250 -0.8558  0.7930
 9162TIP3   OH251680   3.896   0.800   5.441  0.3013  0.1870  0.1800
 9162TIP3    H151681   3.968   0.841   5.489  0.4443 -0.9580  0.9831
 9162TIP3    H251682   3.936   0.724   5.397  0.0489  0.8689 -1.2962
 9163TIP3   OH251683   0.429   2.862   5.356  0.2905 -0.4313 -0.4890
 9163TIP3    H151684   0.524   2.858   5.367  0.1477 -2.4548  0.6166
 9163TIP3    H251685   0.399   2.922   5.424  0.8341  1.4007 -1.7872
 9164TIP3   OH251686   4.114   8.116   6.132  0.0293 -0.1153  0.0786
 9164TIP3    H151687   4.167   8.124   6.211  0.0050  0.1930  0.0637
 9164TIP3    H251688   4.171   8.073   6.068  0.9597  2.0169 -0.5919
 9165TIP3   OH251689   3.104   3.577   5.079 -0.4944 -0.8780  0.6219
 9165TIP3    H151690   3.096   3.520   5.156  1.5622 -0.7418  0.9899
 9165TIP3    H251691   3.121   3.518   5.006 -2.8886 -1.0463  0.1171
 9166TIP3   OH251692   1.302   6.744   5.593 -0.0559 -0.2212  0.0966
 9166TIP3    H151693   1.362   6.808   5.631  0.6845 -0.3961 -0.7525
 9166TIP3    H251694   1.262   6.790   5.519  0.6416 -0.7835 -0.6509
 9167TIP3   OH251695   3.768   5.052   5.952  0.2243  0.1012  0.1854
 9167TIP3    H151696   3.810   4.977   5.994 -1.4450 -0.6668  0.5809
 9167TIP3    H251697   3.791   5.043   5.859  0.9935 -0.2375  0.4019
 9168TIP3   OH251698   1.583   6.344   6.441  0.3362  0.5234  0.3818
 9168TIP3    H151699   1.487   6.343   6.434  0.2480 -0.8721  1.2104
 9168TIP3    H251700   1.613   6.386   6.361 -0.9716  0.8821  0.0551
 9169TIP3   OH251701   5.011   8.846   5.351  0.3674 -0.7259  0.3961
 9169TIP3    H151702   5.045   8.933   5.330 -1.9525 -0.1598 -1.3896
 9169TIP3    H251703   4.956   8.860   5.427  0.3737 -0.7404  0.4032
 9170TIP3   OH251704   8.840   2.418   6.228 -0.0143  0.2617  0.1895
 9170TIP3    H151705   8.850   2.490   6.167  2.5112  0.6753  0.9495
 9170TIP3    H251706   8.840   2.459   6.315  1.4957 -0.5814  0.6333
 9171TIP3   OH251707   4.678   8.105   6.684  0.1423  0.3610 -0.0335
 9171TIP3    H151708   4.712   8.195   6.677  0.7924  0.1767  0.6369
 9171TIP3    H251709   4.584   8.117   6.697  0.4166  1.0334  1.6863
 9172TIP3   OH251710   6.770   4.259   6.202 -0.2352  0.9172  0.2351
 9172TIP3    H151711   6.750   4.205   6.279  1.5825  0.3534  0.3641
 9172TIP3    H251712   6.765   4.349   6.233 -3.5714  0.9665 -0.0392
 9173TIP3   OH251713   7.107   8.843   6.861  0.3496  0.6733 -0.7378
 9173TIP3    H151714   7.156   8.921   6.834  0.9677  0.4859 -0.1724
 9173TIP3    H251715   7.028   8.845   6.806  0.4190  1.6209 -0.8251
 9174TIP3   OH251716   0.633   1.841   6.074 -0.1301  0.0610 -0.3739
 9174TIP3    H151717   0.672   1.798   5.999  1.7998  2.2547 -0.7519
 9174TIP3    H251718   0.687   1.814   6.148  1.1637  1.7229 -0.6297
 9175TIP3   OH251719   3.887   4.648   6.768  0.4366  0.2796 -0.7276
 9175TIP3    H151720   3.841   4.571   6.733 -1.3456  0.5732  0.7757
 9175TIP3    H251721   3.821   4.692   6.822  1.9489  1.8849 -0.0990
 9176TIP3   OH251722   0.440   1.557   6.931 -0.1451  0.0597  0.2422
 9176TIP3    H151723   0.392   1.523   6.856  0.6441  0.5292 -0.5048
 9176TIP3    H251724   0.433   1.489   6.998  1.2072 -1.5122 -1.1192
 9177TIP3   OH251725   8.038   1.655   6.771  0.1811 -0.3236  0.1487
 9177TIP3    H151726   8.025   1.680   6.863 -0.4170  1.4350 -0.3766
 9177TIP3    H251727   8.112   1.709   6.742  0.4161 -0.9225 -0.3937
 9178TIP3   OH251728   6.867   5.968   5.637 -0.4285 -0.3053  0.4303
 9178TIP3    H151729   6.859   5.888   5.690 -0.7125 -0.7312 -0.2389
 9178TIP3    H251730   6.860   5.937   5.547 -0.1902  0.4407  0.1508
 9179TIP3   OH251731   4.619   7.238   5.903 -0.8161 -0.3090 -0.0463
 9179TIP3    H151732   4.704   7.212   5.939  0.7625  2.5363 -1.4157
 9179TIP3    H251733   4.603   7.174   5.833  1.7275  0.6760 -1.7006
 9180TIP3   OH251734   0.764   4.572   5.233  0.1802  0.0653  0.0530
 9180TIP3    H151735   0.841   4.622   5.260  0.7222 -1.2989  1.1161
 9180TIP3    H251736   0.790   4.480   5.241 -1.2277 -0.4254 -0.5645
 9181TIP3   OH251737   2.376   3.081   4.776  0.4194  0.2634  0.3059
 9181TIP3    H151738   2.343   2.998   4.810  0.4718 -0.4156 -1.2157
 9181TIP3    H251739   2.393   3.064   4.684  1.9381  1.5230  0.3020
 9182TIP3   OH251740   5.354   0.124   5.562  0.1371  0.3024 -0.2842
 9182TIP3    H151741   5.436   0.151   5.520 -0.1315  0.1006 -0.9404
 9182TIP3    H251742   5.348   0.180   5.640  1.5304 -0.5208  0.4642
 9183TIP3   OH251743   8.649   1.019   6.790  0.1526  0.0502  0.3446
 9183TIP3    H151744   8.656   0.980   6.703 -1.1295 -0.7467  0.5789
 9183TIP3    H251745   8.712   1.091   6.788 -0.4693  0.6165 -1.5568
 9184TIP3   OH251746   3.965   5.479   5.910 -0.2540  0.1841 -0.2050
 9184TIP3    H151747   3.911   5.504   5.835  1.2727 -0.1908 -1.4965
 9184TIP3    H251748   4.028   5.550   5.918 -1.4748  1.1161  1.9183
 9185TIP3   OH251749   8.234   8.399   6.268 -0.3671  0.3772 -0.7423
 9185TIP3    H151750   8.206   8.488   6.290  1.3768  0.7767  0.1232
 9185TIP3    H251751   8.301   8.412   6.201 -0.4617 -0.3293 -0.9757
 9186TIP3   OH251752   7.906   9.086   7.050 -0.4114  0.0275  0.4467
 9186TIP3    H151753   7.965   9.013   7.070 -0.5121  0.1087  1.0702
 9186TIP3    H251754   7.820   9.045   7.040 -0.1603 -0.1739 -1.1007
 9187TIP3   OH251755   4.916   5.854   6.270 -0.1910 -0.7381  0.0228
 9187TIP3    H151756   4.951   5.779   6.221  1.8732  1.2460 -1.7884
 9187TIP3    H251757   4.845   5.887   6.215  0.2128 -0.2189 -0.1924
 9188TIP3   OH251758   1.332   1.201   5.224  0.3865  0.0246 -0.4506
 9188TIP3    H151759   1.242   1.205   5.257  0.7544 -0.6975  0.6818
 9188TIP3    H251760   1.328   1.137   5.153  0.0526 -0.1926 -0.2406
 9189TIP3   OH251761   0.368   4.707   5.903 -0.5838 -0.3070  0.4641
 9189TIP3    H151762   0.441   4.675   5.850 -1.1144  0.6761 -0.9178
 9189TIP3    H251763   0.365   4.801   5.886  0.2646  0.4292  3.5833
 9190TIP3   OH251764   7.661   0.234   7.255  0.2673 -0.3294 -0.3023
 9190TIP3    H151765   7.676   0.326   7.278 -1.5283 -0.0412 -0.1225
 9190TIP3    H251766   7.745   0.191   7.273  0.6921  0.9840  1.1348
 9191TIP3   OH251767   2.151   8.977   5.757  0.5170  0.1601  0.0076
 9191TIP3    H151768   2.123   9.032   5.830 -2.1847  0.4852 -1.1689
 9191TIP3    H251769   2.075   8.972   5.700  1.2043 -3.3861 -0.8299
 9192TIP3   OH251770   8.370   2.171   6.243 -0.6888  0.4571 -0.2454
 9192TIP3    H151771   8.359   2.188   6.337  1.8193 -0.1915  0.2499
 9192TIP3    H251772   8.354   2.077   6.234  0.2415  0.2814 -0.2087
 9193TIP3   OH251773   9.027   2.849   5.462 -0.0902 -0.3248 -0.3933
 9193TIP3    H151774   9.121   2.845   5.480 -0.3529 -0.1471  1.2082
 9193TIP3    H251775   9.008   2.770   5.412  0.9668 -0.1809 -1.0539
 9194TIP3   OH251776   5.574   2.601   5.956  0.4452  0.0295  0.8599
 9194TIP3    H151777   5.625   2.525   5.983  0.0110 -0.7559 -0.4525
 9194TIP3    H251778   5.629   2.647   5.893  0.6304  0.7107  1.5090
 9195TIP3   OH251779   0.082   9.200   5.062  0.1388  0.1481 -0.3326
 9195TIP3    H151780   0.177   9.189   5.063  0.0576 -0.7785 -0.8697
 9195TIP3    H251781   0.068   9.289   5.031  0.8434  0.5435  0.4666
 9196TIP3   OH251782   0.199   2.019   5.587  0.0647  0.0531 -0.3116
 9196TIP3    H151783   0.163   2.107   5.589 -1.4917 -0.5295 -1.0244
 9196TIP3    H251784   0.283   2.028   5.543  1.1818  1.5532  1.9659
 9197TIP3   OH251785   2.722   2.005   6.599  0.4533  0.5848  0.2931
 9197TIP3    H151786   2.798   2.033   6.546  0.3942 -0.4969 -0.3986
 9197TIP3    H251787   2.647   2.041   6.553  0.5382  2.0980  1.2611
 9198TIP3   OH251788   6.026   1.048   6.010 -0.2309 -0.2198  0.1521
 9198TIP3    H151789   6.076   1.008   5.938  0.5772 -0.1059  0.6341
 9198TIP3    H251790   6.092   1.065   6.077 -1.3780 -3.3029  2.3110
 9199TIP3   OH251791   4.543   5.126   5.426 -0.2665  0.7725  0.6078
 9199TIP3    H151792   4.510   5.044   5.463 -1.1934  1.5984  1.7233
 9199TIP3    H251793   4.464   5.180   5.414  0.2613  1.3060 -0.6232
 9200TIP3   OH251794   0.769   4.906   5.091 -0.2323  0.2154 -0.4509
 9200TIP3    H151795   0.742   4.815   5.098  1.6531 -0.4630 -1.3160
 9200TIP3    H251796   0.779   4.935   5.182  0.8798 -1.0076 -0.1558
 9201TIP3   OH251797   2.288   5.395   6.910 -0.5116 -0.4439  0.2199
 9201TIP3    H151798   2.365   5.393   6.854 -1.0093 -2.0940 -0.4803
 9201TIP3    H251799   2.322   5.383   6.999  0.1076 -0.1887  0.0145
 9202TIP3   OH251800   7.198   1.583   6.394 -0.2266  0.3955  0.3892
 9202TIP3    H151801   7.144   1.512   6.429 -0.0263 -0.0887 -0.2584
 9202TIP3    H251802   7.230   1.629   6.471  0.1250 -0.5842  0.8462
 9203TIP3   OH251803   2.857   7.780   6.977  0.2970  0.2869  0.2138
 9203TIP3    H151804   2.894   7.738   7.054 -0.2482 -1.6539 -0.5146
 9203TIP3    H251805   2.764   7.756   6.979 -0.4946  3.0655  0.7346
 9204TIP3   OH251806   4.586   4.242   4.995 -0.4588 -0.0266 -0.1974
 9204TIP3    H151807   4.640   4.169   5.025  0.1591  0.1314 -0.8791
 9204TIP3    H251808   4.544   4.209   4.915  1.7180  1.0923 -1.9323
 9205TIP3   OH251809   7.387   7.969   6.231  0.3515  0.5256  0.5671
 9205TIP3    H151810   7.466   7.989   6.181 -0.2794  2.1991  0.1580
 9205TIP3    H251811   7.332   7.921   6.169  0.7038  0.0942  0.5843
 9206TIP3   OH251812   1.472   5.960   5.173 -0.4381 -0.5200 -0.1268
 9206TIP3    H151813   1.454   5.876   5.131 -0.5736 -0.9713  0.8008
 9206TIP3    H251814   1.393   6.011   5.157 -0.5273 -0.7160 -0.3323
 9207TIP3   OH251815   6.419   2.763   5.215  0.2792  0.7564 -0.3962
 9207TIP3    H151816   6.332   2.740   5.180 -0.1824  1.8070  0.0226
 9207TIP3    H251817   6.401   2.805   5.299  1.3411 -1.1712  0.8790
 9208TIP3   OH251818   6.726   6.315   5.560 -0.7332 -0.1930 -0.9001
 9208TIP3    H151819   6.732   6.259   5.483 -0.2352 -0.2155 -0.8465
 9208TIP3    H251820   6.632   6.319   5.579 -0.6655 -2.8682  0.4417
 9209TIP3   OH251821   8.074   2.001   6.876  0.1355 -0.1253  0.0586
 9209TIP3    H151822   8.144   1.936   6.885  0.3424 -0.0511 -0.9473
 9209TIP3    H251823   7.995   1.955   6.904  0.3258 -0.7319 -0.3736
 9210TIP3   OH251824   3.826   3.230   5.387  0.1568  0.2859  0.2523
 9210TIP3    H151825   3.807   3.137   5.381 -1.7554  0.7349 -1.8464
 9210TIP3    H251826   3.907   3.241   5.338  0.2498 -0.2298  0.2827
 9211TIP3   OH251827   6.526   2.313   5.512 -0.3037  0.1110 -0.3395
 9211TIP3    H151828   6.462   2.306   5.441  1.3909 -0.8112 -1.8293
 9211TIP3    H251829   6.589   2.379   5.481 -1.4124  2.4163  1.8984
 9212TIP3   OH251830   1.843   1.178   6.894  0.4821 -0.3685 -0.3665
 9212TIP3    H151831   1.921   1.196   6.841  0.5555  0.2565 -0.0540
 9212TIP3    H251832   1.772   1.223   6.848  1.0038  2.6507  1.5051
 9213TIP3   OH251833   3.572   1.128   6.260  0.0527 -0.7052 -0.0570
 9213TIP3    H151834   3.588   1.218   6.233 -1.0843 -0.1730  0.9444
 9213TIP3    H251835   3.656   1.098   6.296  0.2651  0.1952  0.2301
 9214TIP3   OH251836   1.171   6.975   5.078  0.1874 -0.1482 -0.2280
 9214TIP3    H151837   1.147   6.898   5.130 -0.7044  0.6206  0.5329
 9214TIP3    H251838   1.237   6.943   5.017 -0.8355 -1.7256 -0.5621
 9215TIP3   OH251839   0.191   7.271   4.969 -0.2437  0.3743  0.2372
 9215TIP3    H151840   0.184   7.307   5.057 -1.2233  1.7594 -0.3657
 9215TIP3    H251841   0.255   7.328   4.925  0.7846 -0.7480  0.2422
 9216TIP3   OH251842   3.302   3.764   5.391  0.6410  0.1829  0.3531
 9216TIP3    H151843   3.216   3.801   5.410  1.0849  1.0902  0.6201
 9216TIP3    H251844   3.321   3.792   5.302 -0.0201 -1.3651 -0.3221
 9217TIP3   OH251845   5.214   1.082   5.849 -0.4936  0.2271 -0.4000
 9217TIP3    H151846   5.273   1.095   5.924 -0.2038 -0.1305 -0.5654
 9217TIP3    H251847   5.142   1.029   5.885 -0.7234  0.6674 -0.1979
 9218TIP3   OH251848   9.093   0.298   4.916  0.3218 -0.3300  0.0537
 9218TIP3    H151849   9.124   0.337   4.834 -3.5306  0.9156 -1.0416
 9218TIP3    H251850   9.059   0.212   4.890  0.9667 -0.8185  0.7919
 9219TIP3   OH251851   3.668   0.824   6.198  0.3379  0.2271 -0.1471
 9219TIP3    H151852   3.685   0.732   6.176  0.0651  0.4560 -1.4170
 9219TIP3    H251853   3.574   0.828   6.214  0.5987 -0.0260  1.6390
 9220TIP3   OH251854   0.653   9.129   4.902  0.1516  0.0074  0.7112
 9220TIP3    H151855   0.662   9.176   4.819  0.1252 -0.9450  0.1517
 9220TIP3    H251856   0.715   9.172   4.961 -2.0273  2.7767  1.2072
 9221TIP3   OH251857   6.758   5.974   6.008 -0.0714  0.0163  0.2593
 9221TIP3    H151858   6.802   5.944   5.928  0.8517 -0.8491  1.0625
 9221TIP3    H251859   6.829   6.002   6.065 -0.8703  3.9080 -0.4045
 9222TIP3   OH251860   1.057   3.901   6.402 -0.2347  0.3176 -0.8378
 9222TIP3    H151861   0.965   3.915   6.382 -0.2618  2.4904  0.5382
 9222TIP3    H251862   1.060   3.882   6.496  0.7930  1.3799 -0.6307
 9223TIP3   OH251863   9.126   4.516   5.902 -0.3401  0.4582  0.5969
 9223TIP3    H151864   9.066   4.541   5.972  0.0058  1.3260  0.5932
 9223TIP3    H251865   9.210   4.555   5.926  0.4031 -1.2505  0.9141
 9224TIP3   OH251866   5.675   2.314   5.323  0.2671 -0.1504  0.2382
 9224TIP3    H151867   5.604   2.259   5.355 -1.6215  0.6176 -2.3443
 9224TIP3    H251868   5.740   2.253   5.289 -0.8548 -0.8527 -0.7061
 9225TIP3   OH251869   8.372   0.106   4.789 -0.1470 -0.9816  0.2494
 9225TIP3    H151870   8.308   0.165   4.828  0.2702 -1.4646  1.7461
 9225TIP3    H251871   8.323   0.055   4.725 -0.5246  0.9001 -1.0197
 9226TIP3   OH251872   8.409   7.755   4.693 -0.2145 -0.5428 -0.1215
 9226TIP3    H151873   8.371   7.699   4.760 -1.2885 -0.7107 -0.8314
 9226TIP3    H251874   8.410   7.843   4.732 -1.0467 -0.5992  0.0354
 9227TIP3   OH251875   6.151   8.766   5.797 -0.5464  0.5403  0.2368
 9227TIP3    H151876   6.167   8.804   5.883  0.3237  0.6773  0.0169
 9227TIP3    H251877   6.237   8.763   5.755 -0.8244 -0.3333 -0.2956
 9228TIP3   OH251878   9.027   2.555   5.710  0.8678 -0.2767  0.6444
 9228TIP3    H151879   9.020   2.504   5.629  1.5863  1.7211 -0.7757
 9228TIP3    H251880   9.024   2.490   5.780 -3.6314 -1.8726 -0.7035
 9229TIP3   OH251881   9.104   8.776   4.947  1.0705  0.3723  0.2629
 9229TIP3    H151882   9.107   8.716   5.022  0.4305  1.3166  1.0687
 9229TIP3    H251883   9.194   8.808   4.939  0.9199  1.1695  1.4155
 9230TIP3   OH251884   0.152   0.517   5.214  0.3746  0.2695  0.6418
 9230TIP3    H151885   0.172   0.545   5.303  0.1999  1.8356  0.2195
 9230TIP3    H251886   0.057   0.500   5.215  0.7404 -2.2545  1.3583
 9231TIP3   OH251887   5.646   1.334   6.642  0.0823  0.5672 -0.2168
 9231TIP3    H151888   5.733   1.357   6.607 -0.1290  2.1861  0.2641
 9231TIP3    H251889   5.600   1.418   6.649 -0.7064  0.0200  1.7412
 9232TIP3   OH251890   6.090   8.143   6.745 -0.0315 -0.2525  0.4225
 9232TIP3    H151891   6.063   8.234   6.731  1.1416 -0.3154 -3.1211
 9232TIP3    H251892   6.183   8.142   6.724  0.1405 -2.1560  1.1073
 9233TIP3   OH251893   1.936   4.717   6.940  0.4594  0.1858  0.2375
 9233TIP3    H151894   1.920   4.799   6.893 -0.9036 -2.7011 -5.1532
 9233TIP3    H251895   1.854   4.701   6.988  0.4309  1.4516  0.6662
 9234TIP3   OH251896   9.140   3.314   6.143 -0.4899 -0.0860 -0.2443
 9234TIP3    H151897   9.104   3.378   6.205 -0.1101 -0.2204  0.1142
 9234TIP3    H251898   9.230   3.300   6.173 -0.5223 -0.6670 -0.4218
 9235TIP3   OH251899   8.550   1.374   5.593  0.0645 -0.2066 -0.7862
 9235TIP3    H151900   8.573   1.452   5.643 -1.5086  0.3892 -0.9269
 9235TIP3    H251901   8.594   1.302   5.639 -1.8137  0.2128  1.8917
 9236TIP3   OH251902   0.405   6.097   5.790 -0.6036  0.0151  0.2279
 9236TIP3    H151903   0.382   6.015   5.835 -2.0929  0.4763  0.3583
 9236TIP3    H251904   0.325   6.149   5.792  0.2924  1.4624  0.0772
 9237TIP3   OH251905   0.937   0.751   4.970  0.3045 -0.2301  0.0267
 9237TIP3    H151906   0.984   0.690   5.028 -2.0665 -0.4878  1.8406
 9237TIP3    H251907   0.962   0.838   5.003 -2.1095 -0.3622  2.5992
 9238TIP3   OH251908   9.167   8.992   5.817 -0.3130 -0.2103  0.2579
 9238TIP3    H151909   9.082   9.036   5.809  0.4482  1.3376  0.4354
 9238TIP3    H251910   9.157   8.933   5.892 -1.3698 -0.4267 -0.0339
 9239TIP3   OH251911   4.936   0.440   6.066  0.0542  0.0528  0.3483
 9239TIP3    H151912   4.913   0.360   6.019  1.5422 -0.6922  0.8136
 9239TIP3    H251913   4.961   0.410   6.154  1.4380  0.9125  0.2785
 9240TIP3   OH251914   4.498   4.373   5.943  0.1877  0.3630  0.0265
 9240TIP3    H151915   4.586   4.405   5.964  0.4972 -0.2657 -0.2833
 9240TIP3    H251916   4.489   4.293   5.993 -0.2720  0.4972  0.1671
 9241TIP3   OH251917   0.859   2.942   6.266 -0.3597  0.2518  0.5623
 9241TIP3    H151918   0.819   3.012   6.317  0.0584  1.1981 -0.3789
 9241TIP3    H251919   0.785   2.897   6.225 -0.5333  1.3279 -0.3255
 9242TIP3   OH251920   1.465   0.898   6.116 -0.2421 -0.1807 -0.0745
 9242TIP3    H151921   1.383   0.869   6.156  0.2039  1.8861  2.6495
 9242TIP3    H251922   1.527   0.903   6.189  1.1495  2.2591 -1.2678
 9243TIP3   OH251923   6.370   2.216   6.309 -0.0581  0.2078 -0.6612
 9243TIP3    H151924   6.461   2.193   6.326 -0.8290 -1.6829  1.4868
 9243TIP3    H251925   6.372   2.264   6.226  3.0937  1.9730  0.2603
 9244TIP3   OH251926   4.984   1.104   6.095  0.1088  0.0622  0.3036
 9244TIP3    H151927   4.947   1.193   6.097  2.3935  1.0778  1.4249
 9244TIP3    H251928   4.935   1.057   6.162 -2.8584 -0.3886 -1.9727
 9245TIP3   OH251929   2.597   5.093   5.688  0.5000 -0.2776  0.5818
 9245TIP3    H151930   2.636   5.179   5.673  1.6346 -0.8562  0.0343
 9245TIP3    H251931   2.668   5.031   5.672 -1.2769 -1.6248 -3.8058
 9246TIP3   OH251932   3.246   1.791   6.137  1.0904 -0.7335 -0.4939
 9246TIP3    H151933   3.161   1.781   6.094  0.9505 -1.0733 -0.1479
 9246TIP3    H251934   3.226   1.787   6.231  1.3948 -0.0328 -0.3923
 9247TIP3   OH251935   1.212   0.835   6.183  0.6019 -0.1954 -0.1965
 9247TIP3    H151936   1.169   0.899   6.126 -0.0461  0.5521  1.0909
 9247TIP3    H251937   1.142   0.804   6.241  1.5298  0.0707  1.0903
 9248TIP3   OH251938   5.973   5.262   4.825  0.0359 -0.0043 -0.0482
 9248TIP3    H151939   5.882   5.246   4.798 -0.1923  2.5686 -1.0583
 9248TIP3    H251940   5.976   5.354   4.849  2.3407 -0.0857  0.2404
 9249TIP3   OH251941   9.088   0.861   7.066 -0.1771 -0.3017 -1.1985
 9249TIP3    H151942   9.106   0.797   7.134  0.1472 -0.2080 -1.1958
 9249TIP3    H251943   8.994   0.878   7.074 -0.0689  0.0128 -0.5046
 9250TIP3   OH251944   3.173   6.294   5.431  0.0483  0.5918  0.2004
 9250TIP3    H151945   3.084   6.327   5.439 -0.3654 -0.6240  0.7909
 9250TIP3    H251946   3.228   6.373   5.428 -0.9640  1.3325  0.7026
 9251TIP3   OH251947   5.422   0.269   6.590 -0.1524 -0.0372 -0.0009
 9251TIP3    H151948   5.502   0.245   6.636 -0.1074 -0.0233 -0.0719
 9251TIP3    H251949   5.452   0.300   6.504 -0.4107 -3.3770 -1.4446
 9252TIP3   OH251950   8.757   1.970   6.608  0.1184  0.3888 -0.1047
 9252TIP3    H151951   8.681   1.993   6.554 -0.4414  0.1649  0.5735
 9252TIP3    H251952   8.724   1.904   6.669  0.4488  1.4694  1.2815
 9253TIP3   OH251953   4.596   7.462   5.771 -0.2623 -0.0966 -0.1967
 9253TIP3    H151954   4.604   7.386   5.829  1.2257 -0.4465 -0.8461
 9253TIP3    H251955   4.527   7.437   5.709 -1.8012  0.2316  1.2797
 9254TIP3   OH251956   7.908   2.534   5.312  0.3152 -0.1060 -0.5458
 9254TIP3    H151957   7.958   2.602   5.265  1.6434 -1.4976 -1.2280
 9254TIP3    H251958   7.818   2.567   5.313  0.9783  1.8191 -0.5521
 9255TIP3   OH251959   6.549   8.943   5.569  0.3601  0.3172  0.2512
 9255TIP3    H151960   6.598   9.014   5.528  1.3040 -0.2661  0.3282
 9255TIP3    H251961   6.483   8.918   5.504  0.8760  0.3948 -0.3111
 9256TIP3   OH251962   8.377   1.205   5.355 -0.0716  0.4679  0.1179
 9256TIP3    H151963   8.359   1.282   5.409  1.2009  1.7308 -1.1811
 9256TIP3    H251964   8.292   1.183   5.316 -0.6854  0.4745  1.3946
 9257TIP3   OH251965   0.177   3.824   5.356 -0.5542 -0.1475  0.4246
 9257TIP3    H151966   0.096   3.817   5.306 -0.4995 -1.1043  0.4628
 9257TIP3    H251967   0.153   3.803   5.446 -0.3050 -0.2024  0.4800
 9258TIP3   OH251968   0.844   8.932   6.211 -0.3587 -0.1731  0.0783
 9258TIP3    H151969   0.859   8.860   6.150 -0.6289  0.5750 -0.8883
 9258TIP3    H251970   0.796   8.997   6.161 -0.5602  0.4775  1.0849
 9259TIP3   OH251971   2.090   0.849   6.439 -0.2484  0.5732 -0.4014
 9259TIP3    H151972   2.155   0.870   6.371 -0.0294  1.1667 -0.0145
 9259TIP3    H251973   2.131   0.778   6.490 -0.6670 -0.3010 -1.2419
 9260TIP3   OH251974   5.478   0.909   5.194  0.0648 -0.0324  0.0787
 9260TIP3    H151975   5.436   0.866   5.269 -0.2789 -1.0320 -0.6566
 9260TIP3    H251976   5.535   0.842   5.156  3.2220  1.5559  1.6189
 9261TIP3   OH251977   3.106   9.189   5.765  0.2678 -0.2538 -0.1966
 9261TIP3    H151978   3.174   9.122   5.767  0.0667 -0.4417  0.6788
 9261TIP3    H251979   3.124   9.239   5.685 -0.1409 -1.9174 -1.3925
 9262TIP3   OH251980   1.252   7.369   6.493  0.6809  0.1198  0.3092
 9262TIP3    H151981   1.247   7.344   6.401  0.9657 -1.7459  0.7609
 9262TIP3    H251982   1.326   7.430   6.497  1.4986 -0.7981 -0.4858
 9263TIP3   OH251983   8.894   4.143   4.762  0.5259 -0.1071 -0.3106
 9263TIP3    H151984   8.987   4.162   4.750  0.9752 -1.5157  0.7346
 9263TIP3    H251985   8.888   4.047   4.756 -0.2315 -0.4262  3.3592
 9264TIP3   OH251986   3.897   7.472   5.219 -0.3366 -0.0479 -0.2015
 9264TIP3    H151987   3.823   7.531   5.234 -0.4052 -0.1384 -0.1907
 9264TIP3    H251988   3.944   7.512   5.146  0.3136  0.6983  0.6039
 9265TIP3   OH251989   5.943   1.466   6.094 -0.2357 -0.4263 -0.1728
 9265TIP3    H151990   6.015   1.404   6.106  0.8063  0.5771 -1.0184
 9265TIP3    H251991   5.926   1.500   6.182  0.6990 -0.2887 -0.0289
 9266TIP3   OH251992   2.029   3.456   6.721  1.1793 -0.1039 -0.0426
 9266TIP3    H151993   1.969   3.524   6.752  0.5198 -1.1218  0.9477
 9266TIP3    H251994   2.002   3.441   6.630 -2.4289 -2.9261  1.2709
 9267TIP3   OH251995   0.054   5.126   6.070  0.8418 -0.2166 -0.1197
 9267TIP3    H151996  -0.035   5.145   6.039  0.9916 -0.2475 -0.5882
 9267TIP3    H251997   0.102   5.208   6.056  0.4207  0.4289  1.9496
 9268TIP3   OH251998   3.185   7.603   5.954  0.1705 -0.5118 -0.0798
 9268TIP3    H151999   3.130   7.552   6.014 -1.9151  0.8875 -0.6643
 9268TIP3    H252000   3.149   7.585   5.867 -2.1998  3.4103 -0.1707
 9269TIP3   OH252001   2.499   4.205   5.379  0.8370  0.2609 -0.0626
 9269TIP3    H152002   2.446   4.244   5.449 -0.1567  0.4122 -0.8748
 9269TIP3    H252003   2.461   4.239   5.298  2.7467  1.0917 -0.6830
 9270TIP3   OH252004   4.221   1.941   5.596  0.0482  0.0207  0.0987
 9270TIP3    H152005   4.178   1.973   5.676  0.1641  0.4915 -0.0231
 9270TIP3    H252006   4.298   1.996   5.587 -0.1531  0.2102 -0.5300
 9271TIP3   OH252007   7.724   0.739   7.495  0.3912 -0.4922  0.4763
 9271TIP3    H152008   7.708   0.785   7.412 -0.0479 -0.2858  0.6702
 9271TIP3    H252009   7.715   0.808   7.561  1.7813 -0.4323  0.6275
 9272TIP3   OH252010   3.890   6.809   5.100 -0.3463  0.1350 -0.1275
 9272TIP3    H152011   3.955   6.857   5.151  0.3385 -0.7397 -0.1490
 9272TIP3    H252012   3.921   6.719   5.100 -2.0681 -0.5001  0.6747
 9273TIP3   OH252013   7.255   1.963   6.534  0.2076  0.8887  0.0506
 9273TIP3    H152014   7.308   1.966   6.614  1.3701  1.1044 -0.7043
 9273TIP3    H252015   7.310   2.003   6.467 -1.6063  2.8116 -0.4112
 9274TIP3   OH252016   2.047   6.193   5.379  0.6139  0.2932  0.3605
 9274TIP3    H152017   1.966   6.235   5.352 -0.1519  0.0357  2.1068
 9274TIP3    H252018   2.078   6.245   5.454 -0.1423 -1.9016  2.3124
 9275TIP3   OH252019   8.236   1.672   5.639  0.1042  0.0327 -0.0676
 9275TIP3    H152020   8.154   1.694   5.594  0.7558 -1.5418 -2.1898
 9275TIP3    H252021   8.273   1.757   5.664 -0.7326  0.9577 -1.7916
 9276TIP3   OH252022   1.225   8.470   6.844  0.0734 -0.5219  1.0081
 9276TIP3    H152023   1.295   8.460   6.780  0.7720 -1.3808  1.8798
 9276TIP3    H252024   1.181   8.552   6.819  1.1721 -0.1356  0.2626
 9277TIP3   OH252025   1.815   1.183   5.350 -0.2318 -0.1685  0.2463
 9277TIP3    H152026   1.810   1.131   5.430  2.0894 -1.7447 -0.4958
 9277TIP3    H252027   1.747   1.147   5.293  0.8025 -1.9345  0.0524
 9278TIP3   OH252028   8.165   0.881   5.546 -0.0585 -0.8113  0.6941
 9278TIP3    H152029   8.233   0.928   5.595 -0.8735  2.2445 -0.8285
 9278TIP3    H252030   8.086   0.892   5.599 -0.4018  0.2725 -0.0020
 9279TIP3   OH252031   7.554   4.113   5.769 -0.2544  0.3205  0.0710
 9279TIP3    H152032   7.631   4.116   5.712 -1.1560 -0.2032 -1.2238
 9279TIP3    H252033   7.589   4.129   5.856  1.3244  0.0872 -0.4738
 9280TIP3   OH252034   8.649   8.641   6.137  0.2597 -0.3943  0.6231
 9280TIP3    H152035   8.602   8.720   6.166 -0.8582  0.2797 -2.6620
 9280TIP3    H252036   8.739   8.671   6.123  0.6564 -0.5738  2.5149
 9281TIP3   OH252037   3.210   8.268   5.462 -0.1567 -0.4751 -0.3742
 9281TIP3    H152038   3.259   8.298   5.538 -0.2802  0.3600 -0.6199
 9281TIP3    H252039   3.272   8.275   5.389  0.3795 -2.4894 -0.1667
 9282TIP3   OH252040   0.611   5.193   5.126 -0.1349  0.4363  0.2653
 9282TIP3    H152041   0.665   5.122   5.090  0.6003  0.5114  1.1949
 9282TIP3    H252042   0.610   5.177   5.220  0.8934  2.2360  0.6169
 9283TIP3   OH252043   0.911   2.432   5.684 -0.0981  0.8806  0.7351
 9283TIP3    H152044   0.880   2.345   5.658 -1.6803  1.2472  1.3383
 9283TIP3    H252045   0.964   2.461   5.609 -0.7753  0.0222 -0.1100
 9284TIP3   OH252046   3.261   0.762   7.099 -0.0744 -0.1402  0.4007
 9284TIP3    H152047   3.235   0.712   7.021 -3.2599  2.1341 -0.1812
 9284TIP3    H252048   3.179   0.787   7.141  1.2164  3.9640  0.9762
 9285TIP3   OH252049   4.276   2.582   6.166 -0.2898  0.2136 -0.3269
 9285TIP3    H152050   4.236   2.656   6.120 -3.1781 -1.4241 -0.6849
 9285TIP3    H252051   4.361   2.572   6.124 -0.6520  2.0595 -1.6707
 9286TIP3   OH252052   8.287   7.049   4.812  0.3292 -0.2393 -0.1628
 9286TIP3    H152053   8.284   7.143   4.793  0.7247 -0.1796  0.0708
 9286TIP3    H252054   8.379   7.026   4.807  0.1159 -0.8929 -1.4918
 9287TIP3   OH252055   8.429   5.682   5.240  0.1423 -0.9374  0.1928
 9287TIP3    H152056   8.373   5.744   5.195 -0.6607 -0.9810  1.1012
 9287TIP3    H252057   8.447   5.613   5.175  0.4199 -0.1545 -0.5777
 9288TIP3   OH252058   2.073   1.862   6.058  0.9824  0.3657 -0.1952
 9288TIP3    H152059   2.001   1.869   5.995  0.4701 -0.5458  0.2650
 9288TIP3    H252060   2.116   1.779   6.036  0.6859 -0.0520  0.7636
 9289TIP3   OH252061   7.911   0.926   5.641  0.5589  0.2381 -0.1450
 9289TIP3    H152062   7.919   0.959   5.552 -0.0653 -0.0817 -0.3296
 9289TIP3    H252063   7.849   0.853   5.634 -0.2112  0.7875  0.6993
 9290TIP3   OH252064   5.915   6.068   5.238  0.3245  0.4954 -0.6342
 9290TIP3    H152065   5.849   6.032   5.179  2.4885 -0.5413 -2.5974
 9290TIP3    H252066   5.869   6.135   5.288 -2.4015 -0.8146 -1.2007
 9291TIP3   OH252067   6.538   9.031   4.797 -0.0713  0.3734 -0.3498
 9291TIP3    H152068   6.566   9.056   4.709 -0.6372  1.7285 -0.1743
 9291TIP3    H252069   6.523   9.114   4.842  0.0083 -0.2969  0.9693
 9292TIP3   OH252070   1.007   3.115   5.186  0.1768  0.5586 -0.1366
 9292TIP3    H152071   1.074   3.123   5.254  1.2544  2.5218 -1.3472
 9292TIP3    H252072   1.025   3.187   5.126 -0.7696 -1.0767 -2.5015
 9293TIP3   OH252073   7.111   7.036   5.301 -1.0204  0.1804 -0.1529
 9293TIP3    H152074   7.084   7.125   5.280 -1.4074  0.0854 -0.0708
 9293TIP3    H252075   7.034   6.997   5.343 -0.2191  0.4310  1.6292
 9294TIP3   OH252076   2.328   0.454   6.111 -0.2824 -0.6163  0.2501
 9294TIP3    H152077   2.407   0.478   6.161  0.0894 -0.6563 -0.3175
 9294TIP3    H252078   2.347   0.482   6.022 -1.1437 -0.1028  0.2168
 9295TIP3   OH252079   0.470   3.023   6.366 -0.0745 -0.3936  0.0168
 9295TIP3    H152080   0.456   3.093   6.302 -0.8587  1.1923  1.8246
 9295TIP3    H252081   0.553   3.046   6.408 -1.0701  0.3201  1.6433
 9296TIP3   OH252082   9.209   3.272   5.245 -0.1267  0.0350  0.1179
 9296TIP3    H152083   9.174   3.208   5.307  0.9452 -0.9990 -0.3132
 9296TIP3    H252084   9.286   3.230   5.208  1.0872  1.8728  0.3943
 9297TIP3   OH252085   7.774   6.129   5.415  0.4905 -0.0807  0.1503
 9297TIP3    H152086   7.713   6.198   5.441  0.3992 -0.4165  0.8623
 9297TIP3    H252087   7.749   6.053   5.468  0.1241 -0.8949 -1.1426
 9298TIP3   OH252088   3.682   4.249   6.124 -0.0730 -0.1157  0.3397
 9298TIP3    H152089   3.627   4.186   6.169  1.4138 -0.9143  1.1169
 9298TIP3    H252090   3.621   4.303   6.074 -1.4729 -1.4484  0.5394
 9299TIP3   OH252091   6.039   2.643   5.977 -0.3477 -0.1778  0.2577
 9299TIP3    H152092   6.079   2.728   5.962  1.8284 -0.9629  1.1390
 9299TIP3    H252093   6.045   2.630   6.072  0.6190 -1.8520  0.0075
 9300TIP3   OH252094   2.720   8.409   5.379  0.0465 -0.5039 -0.2970
 9300TIP3    H152095   2.802   8.378   5.341 -0.2746  1.2488 -2.7056
 9300TIP3    H252096   2.660   8.415   5.305 -1.1252  1.7165  0.7193
 9301TIP3   OH252097   0.821   1.656   5.935  0.2822 -0.3346 -0.2211
 9301TIP3    H152098   0.915   1.670   5.922  0.0913  0.0545 -1.2497
 9301TIP3    H252099   0.788   1.626   5.851 -0.8403  1.3725 -0.4645
 9302TIP3   OH252100   5.120   6.691   5.043  0.0974  0.8620  0.8704
 9302TIP3    H152101   5.116   6.692   5.138 -2.2569  0.2279  0.8340
 9302TIP3    H252102   5.056   6.757   5.015  0.6028  0.8976 -0.2907
 9303TIP3   OH252103   6.751   8.284   5.268  0.6645 -0.3401  0.7185
 9303TIP3    H152104   6.733   8.343   5.340  0.4695 -0.9209  1.1529
 9303TIP3    H252105   6.709   8.324   5.192  0.7639  0.2059  0.9508
 9304TIP3   OH252106   0.096   0.989   6.913  0.0425  0.0388 -0.3944
 9304TIP3    H152107   0.146   0.910   6.893 -0.4610 -0.2474 -0.5694
 9304TIP3    H252108   0.014   0.955   6.950  0.8805  0.5317  2.1188
 9305TIP3   OH252109   2.972   8.033   5.579 -0.0819 -0.2039 -0.4524
 9305TIP3    H152110   2.919   8.009   5.503 -0.8915  0.0372  0.0371
 9305TIP3    H252111   3.001   7.949   5.615 -0.3759 -0.3443 -0.5424
 9306TIP3   OH252112   0.877   6.200   6.250  0.5730 -0.1911 -0.1772
 9306TIP3    H152113   0.972   6.209   6.261  0.6092 -0.5196 -0.2109
 9306TIP3    H252114   0.860   6.107   6.265  0.1432  0.0111  0.6349
 9307TIP3   OH252115   6.101   6.402   5.514  0.1992  0.0466  0.1681
 9307TIP3    H152116   6.135   6.430   5.599 -0.5549  0.3306  0.3784
 9307TIP3    H252117   6.020   6.452   5.502 -0.1136 -0.5721 -0.3594
 9308TIP3   OH252118   2.688   2.451   5.026 -0.0056  0.2747 -0.2965
 9308TIP3    H152119   2.732   2.384   5.078 -0.8031  1.1335  1.6068
 9308TIP3    H252120   2.651   2.404   4.952 -0.0996 -1.2959  0.6925
 9309TIP3   OH252121   3.064   9.175   5.309 -0.2705  0.2653 -0.6186
 9309TIP3    H152122   3.063   9.153   5.216  0.7882 -1.6622 -0.2365
 9309TIP3    H252123   2.971   9.184   5.333 -0.5511  0.6714 -1.8133
 9310TIP3   OH252124   4.563   6.636   5.370  0.6663 -0.0598 -0.5026
 9310TIP3    H152125   4.550   6.670   5.458  1.2397 -0.9596 -0.0565
 9310TIP3    H252126   4.480   6.594   5.349  1.1308 -1.5217  0.3986
 9311TIP3   OH252127   8.584   6.984   4.862 -0.2530  0.6532 -0.0619
 9311TIP3    H152128   8.629   6.899   4.859 -1.4060  0.0505 -1.0749
 9311TIP3    H252129   8.606   7.019   4.948 -2.3488 -2.1638  1.8245
 9312TIP3   OH252130   3.002   0.601   6.008  0.0318  0.3155 -0.3087
 9312TIP3    H152131   3.051   0.570   6.085 -0.1434  1.7967  0.4491
 9312TIP3    H252132   2.953   0.525   5.978 -0.3453 -0.1767  1.4196
 9313TIP3   OH252133   7.806   0.055   6.674 -0.2362 -0.1380 -0.1658
 9313TIP3    H152134   7.728   0.090   6.632  1.2013  2.2183 -1.0900
 9313TIP3    H252135   7.817   0.109   6.753  0.5163 -0.3506 -0.1149
 9314TIP3   OH252136   1.243   6.025   5.659  0.1974 -0.4711 -0.3584
 9314TIP3    H152137   1.324   5.994   5.698  0.7905  0.2948 -0.9616
 9314TIP3    H252138   1.244   5.989   5.570 -0.0579 -0.3395 -0.4139
 9315TIP3   OH252139   8.133   5.084   5.063  0.0697 -0.1864  0.1616
 9315TIP3    H152140   8.113   5.034   5.142  1.2178 -1.3823 -0.2765
 9315TIP3    H252141   8.091   5.035   4.992 -0.1415  0.3512 -0.0915
 9316TIP3   OH252142   6.485   5.579   5.811  0.8209 -0.0504 -0.2619
 9316TIP3    H152143   6.457   5.488   5.823 -0.4752  0.4397  0.8713
 9316TIP3    H252144   6.481   5.616   5.900 -0.1348  1.4735 -0.8991
 9317TIP3   OH252145   3.097   1.996   5.906 -0.0663  0.4558 -0.3430
 9317TIP3    H152146   3.006   2.009   5.934  0.2749 -2.4138  2.7311
 9317TIP3    H252147   3.103   1.903   5.885  2.1800  0.5402 -0.3145
 9318TIP3   OH252148   1.502   8.615   6.064  0.0155  0.1442  0.0697
 9318TIP3    H152149   1.505   8.707   6.092  0.6032  0.3398 -0.6022
 9318TIP3    H252150   1.433   8.576   6.118  0.9356  0.5568  1.6305
 9319TIP3   OH252151   0.119   6.228   5.647 -0.0913 -0.2359 -0.1161
 9319TIP3    H152152   0.057   6.301   5.651  1.1573  0.8304  0.1957
 9319TIP3    H252153   0.120   6.203   5.554  0.0604  0.6797 -0.3716
 9320TIP3   OH252154   8.582   3.914   5.202  0.2790  0.2147 -0.3441
 9320TIP3    H152155   8.606   3.923   5.110 -0.3960 -0.5115 -0.6077
 9320TIP3    H252156   8.538   3.829   5.207  0.1456  0.3264  0.6130
 9321TIP3   OH252157   3.480   4.076   5.882 -0.1075 -0.1125 -0.2119
 9321TIP3    H152158   3.567   4.041   5.863 -0.1550 -0.0724 -0.5160
 9321TIP3    H252159   3.431   4.002   5.916  0.3915  0.1321  1.1274
 9322TIP3   OH252160   3.632   2.509   5.982 -0.2670 -0.1486 -0.0298
 9322TIP3    H152161   3.624   2.436   6.043 -2.8054  0.1974  0.1663
 9322TIP3    H252162   3.553   2.562   5.997 -0.0709  0.9339 -2.3136
 9323TIP3   OH252163   7.852   7.544   7.035 -0.0062 -0.2422  0.2543
 9323TIP3    H152164   7.765   7.519   7.005  0.1884 -0.3990 -0.1900
 9323TIP3    H252165   7.912   7.490   6.983  0.3552 -0.1496  0.5676
 9324TIP3   OH252166   1.931   0.816   6.847  0.5404  0.6917  0.0898
 9324TIP3    H152167   1.915   0.730   6.885 -0.5220  0.8062 -0.0892
 9324TIP3    H252168   1.925   0.877   6.920  0.5381  0.6971  0.0854
 9325TIP3   OH252169   5.762   6.108   5.620 -0.8668 -0.2022 -0.4046
 9325TIP3    H152170   5.707   6.127   5.696 -2.1867  0.9943 -1.5939
 9325TIP3    H252171   5.850   6.134   5.647 -1.3680  0.5184  0.5940
 9326TIP3   OH252172   0.827   9.117   5.660  0.4924  0.2389 -0.1286
 9326TIP3    H152173   0.777   9.176   5.717  0.4008 -1.8562  2.0734
 9326TIP3    H252174   0.914   9.157   5.654 -0.5915  2.5979 -1.9475
 9327TIP3   OH252175   0.988   5.654   6.139  0.3760 -0.4008 -0.0150
 9327TIP3    H152176   0.897   5.632   6.122 -0.2742  1.9094  0.0490
 9327TIP3    H252177   1.021   5.687   6.056  0.4398  0.8854  0.4983
 9328TIP3   OH252178   5.013   1.621   5.715 -0.4274 -0.1164 -0.0321
 9328TIP3    H152179   4.925   1.584   5.718  0.8866 -3.5676  0.1795
 9328TIP3    H252180   5.051   1.588   5.634  1.5621 -1.1324  1.2153
 9329TIP3   OH252181   7.546   4.813   5.003 -0.6409 -0.4729  0.2542
 9329TIP3    H152182   7.600   4.740   4.972 -0.0301 -0.1437  0.5198
 9329TIP3    H252183   7.609   4.884   5.020 -1.0487 -0.3551  1.3924
 9330TIP3   OH252184   8.189   1.370   6.610  0.1727 -0.3131  0.0303
 9330TIP3    H152185   8.274   1.388   6.571 -0.7237 -1.3438 -2.6266
 9330TIP3    H252186   8.130   1.433   6.568 -0.6448 -0.6200  0.6905
 9331TIP3   OH252187   8.494   8.727   4.881  0.8044  0.2056  0.0597
 9331TIP3    H152188   8.438   8.801   4.860 -1.2638 -1.5293 -0.9274
 9331TIP3    H252189   8.529   8.699   4.796 -0.8562 -1.7068 -0.0686
 9332TIP3   OH252190   7.222   1.191   5.493  0.7450  0.4413  0.4508
 9332TIP3    H152191   7.192   1.260   5.433  1.8867 -0.1920 -0.9016
 9332TIP3    H252192   7.168   1.115   5.470 -0.2496  0.7229  1.6861
 9333TIP3   OH252193   2.623   8.045   5.029 -0.2794  0.5029 -0.0602
 9333TIP3    H152194   2.612   7.950   5.035  0.1101  0.5225  1.2900
 9333TIP3    H252195   2.709   8.061   5.067  0.1401  1.3000 -1.3062
 9334TIP3   OH252196   3.743   5.064   6.697 -0.0679 -0.0307  0.1252
 9334TIP3    H152197   3.658   5.098   6.725  0.7068  1.0520  1.2468
 9334TIP3    H252198   3.723   4.979   6.658 -1.5953 -0.0335  0.8454
 9335TIP3   OH252199   6.246   3.268   6.407  0.5019 -0.6118  0.5801
 9335TIP3    H152200   6.184   3.327   6.449 -0.3496 -0.2280 -1.1714
 9335TIP3    H252201   6.206   3.181   6.417  0.2870 -0.5185  0.5380
 9336TIP3   OH252202   2.630   3.535   5.964 -0.3802 -0.1019 -0.3240
 9336TIP3    H152203   2.564   3.597   5.932 -0.8109 -0.7808 -0.7640
 9336TIP3    H252204   2.650   3.480   5.889 -0.1662 -0.6505  0.1298
 9337TIP3   OH252205   4.037   4.461   5.329 -0.1607 -0.4882 -0.7467
 9337TIP3    H152206   3.956   4.422   5.296  0.5111 -0.6415 -2.2686
 9337TIP3    H252207   4.008   4.540   5.376 -1.1854 -0.5502 -1.2510
 9338TIP3   OH252208   7.306   0.233   5.510 -0.1572  0.1701 -0.3337
 9338TIP3    H152209   7.320   0.165   5.444  2.2003  1.5515 -1.3624
 9338TIP3    H252210   7.239   0.290   5.473 -0.0709 -0.0029 -0.7604
 9339TIP3   OH252211   1.406   2.708   5.878 -0.4346 -0.0495 -0.3783
 9339TIP3    H152212   1.379   2.800   5.873 -0.2884 -0.0041 -0.3340
 9339TIP3    H252213   1.330   2.663   5.915 -1.4510 -0.3507 -2.6679
 9340TIP3   OH252214   0.993   8.013   4.951  0.2317  0.2262  0.8603
 9340TIP3    H152215   0.989   8.107   4.970 -0.4506 -0.0112  2.0147
 9340TIP3    H252216   1.085   7.989   4.963  0.6458  0.9594 -0.6434
 9341TIP3   OH252217   5.494   0.432   5.683  0.2712  0.0677 -0.3780
 9341TIP3    H152218   5.589   0.443   5.688  0.3623 -0.0070 -1.6010
 9341TIP3    H252219   5.459   0.494   5.746  1.1603 -0.6189  0.8269
 9342TIP3   OH252220   1.688   0.901   6.556 -0.1487 -0.3999  0.8378
 9342TIP3    H152221   1.753   0.897   6.625 -0.5937 -0.3290  1.2698
 9342TIP3    H252222   1.633   0.976   6.579  0.6118  0.5809 -0.4180
 9343TIP3   OH252223   4.046   8.082   5.264 -0.0891 -0.3400 -0.7645
 9343TIP3    H152224   4.066   8.152   5.201  1.4822  1.6064  1.6819
 9343TIP3    H252225   3.978   8.119   5.320  0.1226 -1.1474  0.0428
 9344TIP3   OH252226   0.508   7.546   5.710 -0.1128  0.2710  0.0392
 9344TIP3    H152227   0.467   7.609   5.769  0.5239  0.0403  0.7446
 9344TIP3    H252228   0.478   7.572   5.622 -0.1920  1.2867  0.3557
 9345TIP3   OH252229   5.194   8.369   5.944  0.0353 -0.4301 -0.0247
 9345TIP3    H152230   5.209   8.463   5.940 -0.7549 -0.3314 -0.8651
 9345TIP3    H252231   5.191   8.350   6.038 -1.8225  0.7430  0.2035
 9346TIP3   OH252232   5.045   8.878   5.857  0.1127  0.0337 -0.0209
 9346TIP3    H152233   4.994   8.958   5.874 -0.8117 -0.0711 -2.0687
 9346TIP3    H252234   4.979   8.812   5.834  0.8910 -1.2684  1.3000
 9347TIP3   OH252235   1.872   6.168   5.919  0.6944 -0.1638  0.2455
 9347TIP3    H152236   1.918   6.198   5.998  0.5043  0.1960  0.2229
 9347TIP3    H252237   1.914   6.086   5.897 -0.4154 -1.1967  1.7553
 9348TIP3   OH252238   2.295   2.412   5.894 -0.3509 -0.3962  0.4755
 9348TIP3    H152239   2.294   2.395   5.988 -0.5422 -1.3777  0.3025
 9348TIP3    H252240   2.259   2.333   5.854 -3.6255  1.2727 -0.2336
 9349TIP3   OH252241   7.914   7.132   5.995  0.5240  0.3724 -0.3844
 9349TIP3    H152242   7.829   7.112   6.032 -0.1553  2.6404 -0.5444
 9349TIP3    H252243   7.899   7.136   5.900  1.6024 -2.4976 -0.7668
 9350TIP3   OH252244   3.517   5.055   6.265  0.1508  0.0481  0.5114
 9350TIP3    H152245   3.439   5.009   6.294 -0.3021 -0.3767 -1.2697
 9350TIP3    H252246   3.525   5.130   6.325 -1.0301 -0.4613  1.3303
 9351TIP3   OH252247   8.498   5.929   5.738  0.2320  0.4196 -0.4293
 9351TIP3    H152248   8.463   5.931   5.649 -0.1023 -0.0812 -0.3116
 9351TIP3    H252249   8.571   5.868   5.734 -0.6445 -0.6872 -0.0616
 9352TIP3   OH252250   2.506   5.642   5.799  0.5801 -0.0785 -0.7165
 9352TIP3    H152251   2.452   5.580   5.847  1.5959 -0.6950 -0.3511
 9352TIP3    H252252   2.511   5.606   5.711  0.4936 -0.0746 -0.7236
 9353TIP3   OH252253   1.304   7.720   5.108 -1.1772 -0.3775 -0.2295
 9353TIP3    H152254   1.315   7.792   5.046 -0.3903 -0.7566 -0.5355
 9353TIP3    H252255   1.220   7.680   5.083 -0.5605 -0.9413 -1.4995
 9354TIP3   OH252256   0.697   3.482   5.818 -0.6411 -0.2830 -0.2402
 9354TIP3    H152257   0.724   3.398   5.856  1.6523  0.3019 -0.4037
 9354TIP3    H252258   0.770   3.506   5.760 -2.5952  0.3890 -2.5753
 9355TIP3   OH252259   6.678   6.607   6.266 -0.0998 -0.2918 -0.0839
 9355TIP3    H152260   6.629   6.619   6.348 -1.1627  2.0712 -0.9643
 9355TIP3    H252261   6.769   6.620   6.290 -0.2007 -1.4855  1.0333
 9356TIP3   OH252262   8.629   0.717   5.212  0.1494 -0.4090  0.5922
 9356TIP3    H152263   8.681   0.793   5.239 -0.0225 -0.3340  0.7115
 9356TIP3    H252264   8.653   0.648   5.274  2.1311 -1.2074 -0.9247
 9357TIP3   OH252265   7.118   7.806   6.533 -0.0076 -0.3375  0.8113
 9357TIP3    H152266   7.099   7.745   6.462  1.2675 -2.3095  2.0496
 9357TIP3    H252267   7.193   7.767   6.578  2.2128  3.1404  0.5680
 9358TIP3   OH252268   6.831   5.687   6.383  0.4401  0.3539 -0.0852
 9358TIP3    H152269   6.879   5.711   6.303 -0.0813 -0.1672 -0.5639
 9358TIP3    H252270   6.853   5.595   6.397  0.7505  0.5181  0.5413
 9359TIP3   OH252271   1.754   1.935   5.275  0.5160 -0.0854 -0.6367
 9359TIP3    H152272   1.704   1.868   5.230  0.6695 -0.5971 -0.0686
 9359TIP3    H252273   1.836   1.941   5.226  1.7779 -2.4672  0.9493
 9360TIP3   OH252274   4.542   8.233   5.528  0.4215 -0.2650 -0.3050
 9360TIP3    H152275   4.472   8.169   5.530  0.1293  0.0424  1.3721
 9360TIP3    H252276   4.545   8.263   5.437 -0.2460 -1.7372 -0.8452
 9361TIP3   OH252277   0.358   5.684   4.960 -0.2211 -0.3361  0.3625
 9361TIP3    H152278   0.396   5.740   5.028 -0.1985 -0.3707  0.3788
 9361TIP3    H252279   0.419   5.690   4.887 -0.8903  0.6849 -0.1199
 9362TIP3   OH252280   6.234   1.210   5.418  0.1351  0.3982 -0.4986
 9362TIP3    H152281   6.222   1.250   5.332  0.1596 -2.4907 -1.9784
 9362TIP3    H252282   6.146   1.193   5.450  0.1301  0.8190 -0.2895
 9363TIP3   OH252283   1.614   8.557   5.184 -0.3238  0.3124 -0.2627
 9363TIP3    H152284   1.614   8.644   5.223  0.0932  0.6703 -1.0310
 9363TIP3    H252285   1.684   8.560   5.119  0.1845 -0.8271  0.1961
 9364TIP3   OH252286   2.672   3.181   5.071 -0.3130 -0.1589  0.5082
 9364TIP3    H152287   2.691   3.089   5.056 -1.6787 -0.4597  0.4910
 9364TIP3    H252288   2.668   3.220   4.984  0.2971 -0.0678  0.5169
 9365TIP3   OH252289   8.094   7.856   6.183  0.4354  0.2460 -0.0228
 9365TIP3    H152290   8.047   7.923   6.134 -0.9323 -0.7190 -0.0694
 9365TIP3    H252291   8.175   7.843   6.134 -1.2581 -1.3210 -2.6262
 9366TIP3   OH252292   1.636   2.321   6.775  0.1664  0.4589 -0.4163
 9366TIP3    H152293   1.722   2.321   6.732  0.5415  0.7577  0.3144
 9366TIP3    H252294   1.594   2.401   6.745 -0.1671 -0.0643 -1.3708
 9367TIP3   OH252295   9.165   5.120   6.413  0.6462  0.0679 -0.0932
 9367TIP3    H152296   9.190   5.028   6.405  1.3963  0.3482 -1.1319
 9367TIP3    H252297   9.245   5.164   6.443  0.0646  0.2700  1.2216
 9368TIP3   OH252298   3.311   8.009   5.533 -0.2223  0.2442  0.0454
 9368TIP3    H152299   3.267   7.959   5.464 -0.3074  0.7916 -0.3057
 9368TIP3    H252300   3.273   8.097   5.526 -1.0650  0.0349  1.5301
 9369TIP3   OH252301   5.904   4.572   5.164 -0.0591 -0.0681  0.2761
 9369TIP3    H152302   5.994   4.580   5.133  0.5790  0.0344  2.0348
 9369TIP3    H252303   5.856   4.641   5.118  1.0942  0.8576  0.4137
 9370TIP3   OH252304   8.708   9.033   4.996  0.7131  0.4097  0.1880
 9370TIP3    H152305   8.789   9.083   5.008  0.4857  0.8160  0.0738
 9370TIP3    H252306   8.725   8.949   5.037  0.9847  0.7121  0.7123
 9371TIP3   OH252307   2.938   6.413   5.241 -0.1229 -0.0001 -0.2057
 9371TIP3    H152308   3.023   6.454   5.254 -0.4879  0.5419  0.5220
 9371TIP3    H252309   2.910   6.441   5.153 -1.0362  2.6026  0.8088
 9372TIP3   OH252310   7.581   6.954   5.628 -0.0399 -0.2922 -0.2099
 9372TIP3    H152311   7.598   7.042   5.660  1.8608 -0.5770 -0.3340
 9372TIP3    H252312   7.506   6.964   5.569 -0.1793  1.1361  0.1776
 9373TIP3   OH252313   2.994   7.440   5.173  0.0665 -0.0091 -0.1944
 9373TIP3    H152314   3.024   7.368   5.118 -0.1167  1.9479 -3.0189
 9373TIP3    H252315   2.902   7.419   5.192  0.3066 -1.0060 -0.0563
 9374TIP3   OH252316   2.091   4.799   5.922 -0.2738 -0.1514 -0.2953
 9374TIP3    H152317   2.097   4.861   5.995 -1.3662 -1.0498  0.5972
 9374TIP3    H252318   2.094   4.713   5.964  2.7256 -0.8247 -1.5924
 9375TIP3   OH252319   3.040   3.998   5.366 -0.4511 -0.5131  0.0654
 9375TIP3    H152320   3.028   3.928   5.431 -1.7134  0.2444  0.6934
 9375TIP3    H252321   3.076   4.071   5.417 -0.3040 -0.3084 -0.3318
 9376TIP3   OH252322   5.991   8.929   5.588 -0.2153 -0.3233 -0.3473
 9376TIP3    H152323   5.991   8.897   5.678 -0.0900 -0.3807 -0.3689
 9376TIP3    H252324   5.999   8.851   5.534  1.3161 -0.1738 -0.3723
 9377TIP3   OH252325   1.368   4.510   6.105  0.2247 -0.1486 -0.4044
 9377TIP3    H152326   1.406   4.515   6.018 -1.7832 -0.6713 -1.3631
 9377TIP3    H252327   1.356   4.602   6.132  0.8682  0.0108 -0.6439
 9378TIP3   OH252328   2.983   3.464   5.695 -0.5185 -0.2023 -0.3019
 9378TIP3    H152329   2.954   3.554   5.681  1.9781  0.6609 -0.3196
 9378TIP3    H252330   2.970   3.422   5.610 -0.2602  0.5681 -0.7335
 9379TIP3   OH252331   7.035   4.060   6.246 -0.6571 -0.3247  0.0815
 9379TIP3    H152332   7.020   4.094   6.158 -1.3803 -0.5726  0.1059
 9379TIP3    H252333   7.109   4.111   6.279  0.5021 -1.1460 -1.1614
 9380TIP3   OH252334   7.883   5.642   6.502 -0.0349 -0.4192 -0.0369
 9380TIP3    H152335   7.898   5.646   6.408  1.6445  0.3248  0.2316
 9380TIP3    H252336   7.793   5.674   6.513  0.8079  2.7205 -1.1498
 9381TIP3   OH252337   2.351   3.288   6.625 -0.0716 -0.0174 -0.0064
 9381TIP3    H152338   2.352   3.360   6.688  1.4770  1.9097 -2.0541
 9381TIP3    H252339   2.265   3.296   6.582 -0.6590 -0.6120  1.0218
 9382TIP3   OH252340   7.957   8.997   6.415 -0.2241 -0.1643  0.4596
 9382TIP3    H152341   8.002   9.081   6.424  2.1722 -1.3949  1.0008
 9382TIP3    H252342   7.865   9.019   6.403  0.5267  2.5758 -1.0252
 9383TIP3   OH252343   6.966   1.887   5.817  0.1301 -0.4431 -0.1550
 9383TIP3    H152344   7.046   1.856   5.774  0.2180  0.5087 -0.7156
 9383TIP3    H252345   6.953   1.975   5.782 -0.7793 -0.3174  0.4654
 9384TIP3   OH252346   2.143   7.618   6.820 -0.6451  0.2057 -0.5553
 9384TIP3    H152347   2.180   7.533   6.843  2.0049  0.8510 -1.9832
 9384TIP3    H252348   2.220   7.674   6.808 -2.2971  3.1303  1.3574
 9385TIP3   OH252349   9.054   3.362   5.784 -0.3103  0.0725  0.1221
 9385TIP3    H152350   9.101   3.279   5.779 -0.9559 -0.2109 -1.5553
 9385TIP3    H252351   8.981   3.345   5.843  0.0571 -0.2877  0.4810
 9386TIP3   OH252352   6.759   7.297   5.300 -0.0805 -0.2188  0.4574
 9386TIP3    H152353   6.854   7.307   5.298 -0.1426  0.4392 -1.8387
 9386TIP3    H252354   6.725   7.385   5.289 -0.9172 -0.6638 -0.6964
 9387TIP3   OH252355   8.333   7.175   5.964  0.1631  0.0816  0.2231
 9387TIP3    H152356   8.289   7.255   5.990  0.1075  0.5083 -1.1043
 9387TIP3    H252357   8.266   7.107   5.972  0.8175 -0.3076  3.5625
 9388TIP3   OH252358   8.994   4.851   6.597 -0.9499  0.4175 -0.2293
 9388TIP3    H152359   9.071   4.881   6.646 -0.6595 -0.7845  0.0776
 9388TIP3    H252360   8.932   4.822   6.664  0.4171 -3.6298 -0.4673
 9389TIP3   OH252361   5.835   3.337   5.787 -0.0517 -0.1557  0.3260
 9389TIP3    H152362   5.782   3.409   5.752  1.5384  0.5770 -0.6639
 9389TIP3    H252363   5.843   3.358   5.880 -1.5275 -0.3224  0.5190
 9390TIP3   OH252364   2.052   4.279   5.368  0.2108 -0.4637  0.0251
 9390TIP3    H152365   2.095   4.361   5.392 -2.1716  1.2342 -1.0919
 9390TIP3    H252366   1.993   4.261   5.442  0.3758 -0.9425  0.0480
 9391TIP3   OH252367   4.268   7.812   6.909  0.2329  0.3516 -0.5334
 9391TIP3    H152368   4.340   7.750   6.902 -0.0097  0.0772 -0.6216
 9391TIP3    H252369   4.300   7.892   6.867  0.2194 -0.0085 -1.2417
 9392TIP3   OH252370   2.975   8.846   6.577 -0.2436  0.0661 -0.2900
 9392TIP3    H152371   3.013   8.769   6.619 -0.5720  0.2386  0.3482
 9392TIP3    H252372   3.042   8.914   6.588  0.4171 -0.3418 -1.6308
 9393TIP3   OH252373   6.759   0.475   6.157 -0.2184 -0.0700  0.2001
 9393TIP3    H152374   6.700   0.523   6.100  2.5772  0.5755 -2.3759
 9393TIP3    H252375   6.744   0.383   6.134  1.7112  0.2113 -2.7281
 9394TIP3   OH252376   8.803   9.057   6.396  0.0017  0.1939  0.1451
 9394TIP3    H152377   8.812   9.153   6.394  0.9926  0.1072  0.1274
 9394TIP3    H252378   8.779   9.038   6.487 -3.6679  0.7038 -0.5490
 9395TIP3   OH252379   5.846   3.358   5.345 -0.7553  0.1628  0.1697
 9395TIP3    H152380   5.785   3.425   5.314 -1.4831 -0.6079 -0.1248
 9395TIP3    H252381   5.932   3.397   5.336 -1.1185  0.8089 -0.6347
 9396TIP3   OH252382   4.194   5.363   6.454  0.5422  0.1379 -0.5810
 9396TIP3    H152383   4.144   5.412   6.388 -0.1436  1.8667  1.1384
 9396TIP3    H252384   4.198   5.274   6.419 -1.9924  0.3935 -1.7713
 9397TIP3   OH252385   9.164   3.458   6.676  0.3905  0.6049 -0.2256
 9397TIP3    H152386   9.101   3.476   6.746 -1.0028  1.2091 -1.5503
 9397TIP3    H252387   9.182   3.544   6.638 -1.4516  0.0165 -2.6587
 9398TIP3   OH252388   2.463   5.236   6.201 -0.1266  0.5685 -0.5165
 9398TIP3    H152389   2.535   5.230   6.263 -0.2355 -0.6907 -0.4877
 9398TIP3    H252390   2.385   5.212   6.252 -0.1669 -0.8561 -1.2040
 9399TIP3   OH252391   5.819   6.496   5.535 -0.2918 -0.0671  0.5914
 9399TIP3    H152392   5.822   6.499   5.631  0.1694  1.3302  0.5506
 9399TIP3    H252393   5.759   6.566   5.510 -1.8684 -1.5981 -0.1101
 9400TIP3   OH252394   8.566   3.515   6.093 -0.0878 -0.1348 -0.0575
 9400TIP3    H152395   8.597   3.566   6.168  1.0057 -2.9049  1.5480
 9400TIP3    H252396   8.631   3.532   6.025  0.5648  0.1979  0.6266
 9401TIP3   OH252397   6.166   0.128   6.833 -0.9141 -0.3169  0.2983
 9401TIP3    H152398   6.136   0.183   6.760  0.7738  0.2523 -0.0204
 9401TIP3    H252399   6.098   0.062   6.843 -1.1668 -0.4554 -1.8553
 9402TIP3   OH252400   0.109   8.157   5.057 -0.5379 -0.6868  0.7300
 9402TIP3    H152401   0.129   8.174   4.966 -0.5052  0.4419  0.9375
 9402TIP3    H252402   0.190   8.124   5.094 -0.1073  0.3227  0.7030
 9403TIP3   OH252403   7.394   0.594   5.776  0.3273  0.4718 -0.2237
 9403TIP3    H152404   7.430   0.653   5.842  1.4668 -0.6369  0.1810
 9403TIP3    H252405   7.463   0.529   5.761 -0.9836 -0.9182 -0.4545
 9404TIP3   OH252406   4.305   4.068   5.709  0.5063  0.1318 -0.2290
 9404TIP3    H152407   4.308   4.011   5.786  3.1237  1.3391  0.7045
 9404TIP3    H252408   4.393   4.105   5.703 -0.2627  1.8740 -2.4671
 9405TIP3   OH252409   6.565   3.733   5.416 -0.5913  0.0184 -0.6301
 9405TIP3    H152410   6.515   3.654   5.433  0.3050 -0.7643 -1.5262
 9405TIP3    H252411   6.522   3.800   5.470 -0.1712 -1.4745  1.7203
 9406TIP3   OH252412   4.198   1.462   5.393  0.1256 -0.6042  0.3046
 9406TIP3    H152413   4.267   1.520   5.427  0.8198 -1.6784  0.7747
 9406TIP3    H252414   4.124   1.477   5.452  1.0680 -1.8767  1.9281
 9407TIP3   OH252415   6.266   7.394   6.420 -0.2633  0.4419 -0.1125
 9407TIP3    H152416   6.209   7.414   6.345 -0.6592  0.8443  0.2869
 9407TIP3    H252417   6.220   7.432   6.495  0.9359  1.5020  0.1174
 9408TIP3   OH252418   0.965   2.510   5.366 -0.4649  0.1492  0.0512
 9408TIP3    H152419   0.977   2.604   5.362 -1.9034  0.3370 -0.2278
 9408TIP3    H252420   0.995   2.477   5.282  2.0564  0.0720  0.9010
 9409TIP3   OH252421   0.074   7.621   4.880  0.1602 -0.2183 -0.5289
 9409TIP3    H152422   0.102   7.570   4.805 -0.8754 -1.0337 -0.3834
 9409TIP3    H252423   0.035   7.700   4.843 -2.2095 -1.5302 -0.9890
 9410TIP3   OH252424   7.966   1.535   6.526  0.2729  0.2508 -0.2016
 9410TIP3    H152425   7.873   1.519   6.512 -0.0017 -0.6973  2.1692
 9410TIP3    H252426   7.969   1.585   6.608  1.9124 -2.3587  1.4561
 9411TIP3   OH252427   0.255   4.832   5.494 -0.1200  0.1284 -0.4606
 9411TIP3    H152428   0.231   4.924   5.481 -0.8386  0.2372  1.3453
 9411TIP3    H252429   0.203   4.804   5.570  0.2870 -1.6971 -0.8129
 9412TIP3   OH252430   7.809   7.093   6.433 -0.2127 -0.3453 -0.3403
 9412TIP3    H152431   7.812   7.177   6.479 -0.6929 -0.9712  0.8817
 9412TIP3    H252432   7.794   7.028   6.502 -0.1717 -1.4079 -1.2967
 9413TIP3   OH252433   7.745   8.269   6.909 -0.3895  0.1618  0.3698
 9413TIP3    H152434   7.712   8.249   6.822 -0.7961 -0.0342  0.5673
 9413TIP3    H252435   7.700   8.207   6.967 -0.9956  1.0459  0.8665
 9414TIP3   OH252436   2.965   2.691   5.418 -0.0018 -0.0351  0.1948
 9414TIP3    H152437   3.004   2.670   5.504 -0.1948  1.6865  0.7438
 9414TIP3    H252438   2.875   2.660   5.425  0.2208 -0.6881  0.2818
 9415TIP3   OH252439   8.242   4.331   6.159 -0.3302 -0.0943  0.4019
 9415TIP3    H152440   8.211   4.419   6.180  0.0668 -0.1212  1.1377
 9415TIP3    H252441   8.303   4.343   6.086  0.0777  0.3013  0.8036
 9416TIP3   OH252442   0.722   5.485   6.498 -0.0517  0.3057  0.1394
 9416TIP3    H152443   0.688   5.415   6.442  1.1746 -0.9162  0.8706
 9416TIP3    H252444   0.646   5.540   6.516 -1.2749 -1.3483  0.2891
 9417TIP3   OH252445   5.946   1.466   5.191 -0.4099 -0.1351 -0.4217
 9417TIP3    H152446   5.954   1.556   5.224  2.3177 -0.2523 -0.5475
 9417TIP3    H252447   6.004   1.464   5.115  0.0158 -2.1556 -0.0749
 9418TIP3   OH252448   4.033   1.891   6.197  0.1654  0.3402 -0.0647
 9418TIP3    H152449   3.974   1.923   6.266  1.6049  1.0811  0.8606
 9418TIP3    H252450   3.977   1.884   6.120 -0.7620  2.9075  0.2659
 9419TIP3   OH252451   8.007   8.737   7.282 -0.4640 -0.4066 -0.7099
 9419TIP3    H152452   8.066   8.684   7.334 -0.1896  0.8062  0.2457
 9419TIP3    H252453   8.019   8.705   7.192 -0.8897 -2.4717 -0.0948
 9420TIP3   OH252454   0.469   5.006   4.869 -0.5304 -0.3381 -0.2565
 9420TIP3    H152455   0.448   4.931   4.926  0.1389 -0.2662  0.0886
 9420TIP3    H252456   0.541   4.976   4.815  0.8468  0.5774  1.0090
 9421TIP3   OH252457   4.123   6.534   6.408 -0.2677  0.0923  0.4401
 9421TIP3    H152458   4.169   6.616   6.389 -0.5452 -0.2076 -1.7362
 9421TIP3    H252459   4.084   6.548   6.494 -0.1877  2.2038  0.1855
 9422TIP3   OH252460   0.970   4.924   4.898  0.1541  0.0730  0.1213
 9422TIP3    H152461   0.898   4.927   4.961  1.1079 -0.0054  1.2488
 9422TIP3    H252462   0.957   5.002   4.843 -2.5022 -1.4935 -1.7098
 9423TIP3   OH252463   8.008   6.866   6.578  0.0249 -0.6153  0.0763
 9423TIP3    H152464   8.003   6.780   6.621 -0.6914 -1.3791 -1.4392
 9423TIP3    H252465   7.927   6.910   6.602  1.2706  0.5449  2.5346
 9424TIP3   OH252466   4.139   9.160   5.660  0.1460 -0.1436  0.1380
 9424TIP3    H152467   4.160   9.067   5.647  3.1740 -0.0233  2.9000
 9424TIP3    H252468   4.074   9.160   5.731  1.6381 -0.2314  1.5871
 9425TIP3   OH252469   7.525   3.702   5.359  0.6036  0.7928 -0.3995
 9425TIP3    H152470   7.490   3.752   5.285 -1.4859 -0.1301 -0.1050
 9425TIP3    H252471   7.541   3.615   5.322 -1.4699  0.0100  0.4047
 9426TIP3   OH252472   8.710   8.296   5.379  0.0395  0.0038  0.2198
 9426TIP3    H152473   8.705   8.319   5.472  0.0734  0.4969  0.1036
 9426TIP3    H252474   8.622   8.267   5.357  0.0536 -0.1964  0.4275
 9427TIP3   OH252475   1.859   8.690   4.696 -0.3698  0.5670  0.2796
 9427TIP3    H152476   1.908   8.608   4.697  0.3490  0.9542  2.5246
 9427TIP3    H252477   1.900   8.740   4.625  1.6869  0.3622  1.2287
 9428TIP3   OH252478   0.590   0.559   6.032  1.0278 -0.0607  0.0832
 9428TIP3    H152479   0.526   0.542   6.100 -0.0106 -0.8892 -1.0477
 9428TIP3    H252480   0.674   0.536   6.071  0.8582  2.2039  2.0016
 9429TIP3   OH252481   9.043   5.616   5.324 -0.6528  0.3025  0.1448
 9429TIP3    H152482   9.131   5.643   5.351  0.0590 -1.5992 -0.1038
 9429TIP3    H252483   9.041   5.630   5.229 -0.0127 -1.0695 -0.1074
 9430TIP3   OH252484   8.558   5.482   5.083  0.5690 -0.0935 -0.0021
 9430TIP3    H152485   8.491   5.424   5.046  0.0242  0.9225 -0.6620
 9430TIP3    H252486   8.567   5.453   5.174 -1.3475  0.2317  0.3438
 9431TIP3   OH252487   5.282   7.111   5.795  0.3805 -0.2038 -0.3464
 9431TIP3    H152488   5.248   7.075   5.713  0.6944 -0.7623 -0.2353
 9431TIP3    H252489   5.325   7.192   5.769  0.8496 -0.5884 -0.8053
 9432TIP3   OH252490   6.537   1.232   5.792 -0.0690  0.2284 -0.6572
 9432TIP3    H152491   6.552   1.185   5.874  0.3894  0.5393 -0.5616
 9432TIP3    H252492   6.441   1.237   5.785 -0.1711 -1.5306 -1.1498
 9433TIP3   OH252493   4.634   8.365   5.255  0.1513  0.5429 -0.5923
 9433TIP3    H152494   4.673   8.286   5.217 -0.4034 -0.3106  0.5683
 9433TIP3    H252495   4.703   8.401   5.312  0.1469  0.4874 -0.5521
 9434TIP3   OH252496   8.049   3.177   5.192 -0.2231 -0.0190 -0.0963
 9434TIP3    H152497   7.996   3.162   5.114  0.3138 -0.0227 -0.4647
 9434TIP3    H252498   8.039   3.098   5.244 -0.4442 -0.0868 -0.2429
 9435TIP3   OH252499   3.524   0.363   5.366 -0.1155 -0.3988 -0.1681
 9435TIP3    H152500   3.494   0.287   5.416  2.6412 -1.1674  0.4537
 9435TIP3    H252501   3.512   0.338   5.274  0.1535 -1.3196  0.0425
 9436TIP3   OH252502   4.864   7.150   6.007 -0.3260 -0.4711 -0.0319
 9436TIP3    H152503   4.950   7.190   6.014 -0.0120 -1.2294  0.6772
 9436TIP3    H252504   4.882   7.058   5.986 -0.9991 -0.4366 -0.8364
 9437TIP3   OH252505   5.079   8.266   5.464  0.0523  0.0929 -0.6524
 9437TIP3    H152506   5.078   8.299   5.553  0.0612  1.3884 -1.1111
 9437TIP3    H252507   5.062   8.172   5.472  5.2086 -1.0304  1.2127
 9438TIP3   OH252508   2.125   4.975   5.397 -0.2337  0.3508  0.1159
 9438TIP3    H152509   2.216   4.977   5.425 -0.5820 -0.9335  1.4590
 9438TIP3    H252510   2.080   4.925   5.466 -1.4508 -1.5813 -1.9604
 9439TIP3   OH252511   0.919   4.560   4.850  0.1857 -0.2960 -0.2655
 9439TIP3    H152512   0.837   4.600   4.878  0.5587  0.9072 -0.8322
 9439TIP3    H252513   0.897   4.512   4.770  0.1945  0.7779 -0.9317
 9440TIP3   OH252514   2.823   7.305   6.318 -0.0102  0.1719  0.1340
 9440TIP3    H152515   2.873   7.302   6.400 -0.2224  1.2672  0.3283
 9440TIP3    H252516   2.883   7.270   6.252  0.6701  0.5530  0.5308
 9441TIP3   OH252517   8.344   1.609   6.543  0.0886 -0.0265 -0.2249
 9441TIP3    H152518   8.403   1.679   6.516  0.6731 -0.3640  0.1533
 9441TIP3    H252519   8.399   1.550   6.594 -0.7429  0.0386  0.7824
 9442TIP3   OH252520   8.656   5.698   5.789  0.1070  0.0978  0.2529
 9442TIP3    H152521   8.702   5.711   5.706 -0.0068  1.0909  0.3314
 9442TIP3    H252522   8.611   5.614   5.779 -2.6943  1.6650 -2.0776
 9443TIP3   OH252523   2.661   3.814   6.276  0.1726 -0.2258 -0.4255
 9443TIP3    H152524   2.721   3.755   6.321  0.9749 -0.6726 -2.0022
 9443TIP3    H252525   2.707   3.898   6.272 -0.6565  0.3526  1.1432
 9444TIP3   OH252526   5.973   5.155   6.226  0.2570  0.1424  0.6960
 9444TIP3    H152527   6.019   5.238   6.240 -0.2319  0.4474  0.5261
 9444TIP3    H252528   5.980   5.109   6.310  0.5073  0.3697  0.7976
 9445TIP3   OH252529   1.618   3.954   5.495 -0.1583 -0.4473 -0.0013
 9445TIP3    H152530   1.607   3.916   5.408 -1.0627  0.4153 -0.2737
 9445TIP3    H252531   1.713   3.948   5.511  0.0276 -0.5637 -1.0636
 9446TIP3   OH252532   4.760   7.962   5.304 -0.1252 -0.7438  0.1855
 9446TIP3    H152533   4.665   7.974   5.302 -0.2756 -1.7940  0.4394
 9446TIP3    H252534   4.774   7.876   5.264  0.6705 -0.8486  0.6682
 9447TIP3   OH252535   1.371   2.619   5.560 -0.1795 -0.5819 -0.3092
 9447TIP3    H152536   1.364   2.533   5.602 -1.7223  0.2220  1.2013
 9447TIP3    H252537   1.446   2.660   5.604 -2.1204  0.4739  2.3187
 9448TIP3   OH252538   9.046   3.247   6.592  0.1140  0.0105  0.2531
 9448TIP3    H152539   9.078   3.329   6.629 -0.5153 -0.1103  1.0855
 9448TIP3    H252540   8.970   3.271   6.539  0.6173  0.0990 -0.4455
 9449TIP3   OH252541   6.102   7.167   5.765 -0.6325  0.4246 -0.3698
 9449TIP3    H152542   6.038   7.171   5.836  0.2992  0.4007  0.4982
 9449TIP3    H252543   6.054   7.130   5.691 -1.8073  1.0948  0.0339
 9450TIP3   OH252544   5.564   4.785   6.189 -0.4357  0.7699  0.2443
 9450TIP3    H152545   5.522   4.842   6.125 -1.9526 -0.1325  0.3936
 9450TIP3    H252546   5.658   4.793   6.170 -0.8661 -0.3845 -2.9204
 9451TIP3   OH252547   3.495   0.840   5.130  0.3403 -0.3461 -0.1124
 9451TIP3    H152548   3.519   0.799   5.213  0.5821 -1.5209 -0.7464
 9451TIP3    H252549   3.513   0.933   5.144 -1.1971 -0.2423  1.7140
 9452TIP3   OH252550   5.684   0.732   6.334 -0.0677  0.1939  0.3387
 9452TIP3    H152551   5.635   0.809   6.364  1.9451  1.1597  1.4031
 9452TIP3    H252552   5.724   0.760   6.251 -0.3998 -0.1758  0.0533
 9453TIP3   OH252553   1.507   7.772   5.573  0.2026 -0.8586  0.3203
 9453TIP3    H152554   1.446   7.757   5.644  0.7236  0.3273  1.0551
 9453TIP3    H252555   1.592   7.744   5.607  0.5473  0.2179  0.3945
 9454TIP3   OH252556   1.029   2.140   4.977  0.4089 -0.1226 -0.7579
 9454TIP3    H152557   0.981   2.217   5.006 -0.6996 -1.5406  1.3956
 9454TIP3    H252558   1.121   2.163   4.986  0.0963  0.5051  1.2793
 9455TIP3   OH252559   7.654   3.813   6.055 -0.0749  0.3270 -0.2007
 9455TIP3    H152560   7.669   3.897   6.012  0.5332 -0.3458 -1.3562
 9455TIP3    H252561   7.567   3.786   6.028 -0.4783  0.8203  0.5904
 9456TIP3   OH252562   7.996   8.734   6.562  0.5303  0.6559  0.1143
 9456TIP3    H152563   7.973   8.762   6.650  3.4350  2.3765  0.4603
 9456TIP3    H252564   7.957   8.800   6.505 -2.7124 -1.2991 -0.1904
 9457TIP3   OH252565   0.348   2.184   4.546 -0.2540  0.6436  0.2038
 9457TIP3    H152566   0.423   2.141   4.589 -0.7038 -0.2772  0.0909
 9457TIP3    H252567   0.278   2.119   4.550 -1.0028  1.4364  0.1560
 9458TIP3   OH252568   9.000   4.798   6.323 -0.4449  0.2525  0.1141
 9458TIP3    H152569   9.028   4.811   6.413  0.3346  0.7943 -0.1923
 9458TIP3    H252570   8.914   4.839   6.318 -0.6483 -0.0893  0.6945
 9459TIP3   OH252571   0.084   2.803   4.826 -0.1004 -0.0503  0.5417
 9459TIP3    H152572   0.018   2.856   4.782  2.5486  2.4215 -0.7741
 9459TIP3    H252573   0.090   2.839   4.914  0.1597  0.4222  0.3370
 9460TIP3   OH252574   0.764   3.748   5.059 -0.0121 -0.2650  0.2263
 9460TIP3    H152575   0.772   3.796   5.141  0.5775  1.1617 -0.6218
 9460TIP3    H252576   0.842   3.692   5.056  0.6177  0.5862  0.1062
 9461TIP3   OH252577   1.151   7.649   6.123  0.4364  0.0847  0.3050
 9461TIP3    H152578   1.240   7.623   6.098  0.5001 -1.5589  2.0100
 9461TIP3    H252579   1.096   7.622   6.049  1.2600  0.5803 -0.5090
 9462TIP3   OH252580   2.367   0.476   5.193 -0.0043 -0.3157 -0.6079
 9462TIP3    H152581   2.341   0.465   5.284  0.4325 -2.3133 -0.6853
 9462TIP3    H252582   2.440   0.538   5.196  0.8290 -1.3191  0.5512
 9463TIP3   OH252583   3.105   1.489   6.870  0.0872  0.0416 -1.0375
 9463TIP3    H152584   3.113   1.406   6.917  0.0390 -0.4041 -1.7840
 9463TIP3    H252585   3.176   1.543   6.904  1.9037 -1.2980 -2.4891
 9464TIP3   OH252586   7.640   1.128   5.511  0.2356 -0.6024  0.0158
 9464TIP3    H152587   7.604   1.040   5.517 -0.3154 -0.3821 -0.0595
 9464TIP3    H252588   7.669   1.148   5.600 -0.3564 -0.5552  0.2020
 9465TIP3   OH252589   4.810   4.660   5.447  0.3757  0.0792 -0.2629
 9465TIP3    H152590   4.716   4.647   5.454  0.2667  0.4771 -0.9187
 9465TIP3    H252591   4.831   4.639   5.355  0.6926  1.3656 -0.4985
 9466TIP3   OH252592   1.592   8.078   5.806  1.0084 -0.1441  0.3015
 9466TIP3    H152593   1.666   8.138   5.806  1.3485 -0.5172  1.7324
 9466TIP3    H252594   1.525   8.123   5.755  1.5399  1.0958  0.6490
 9467TIP3   OH252595   1.167   8.364   5.306  0.0771  0.2595  0.1568
 9467TIP3    H152596   1.096   8.330   5.252  0.9275 -0.8300 -0.3300
 9467TIP3    H252597   1.230   8.400   5.244 -0.2483  1.6513  0.6093
 9468TIP3   OH252598   9.037   7.643   5.386 -0.4302  0.1753  0.2335
 9468TIP3    H152599   9.005   7.596   5.309  1.0342 -0.6679  0.1057
 9468TIP3    H252600   9.100   7.706   5.351 -1.2213  1.1872  0.5693
 9469TIP3   OH252601   2.068   4.939   5.687  0.3199  0.2613  0.0000
 9469TIP3    H152602   2.111   5.025   5.694 -2.3177  1.7950 -0.9782
 9469TIP3    H252603   2.062   4.908   5.777 -0.1366  1.9565  0.6051
 9470TIP3   OH252604   2.729   7.515   5.892 -0.1699 -0.0871  0.4010
 9470TIP3    H152605   2.755   7.562   5.970  1.8188 -0.6689  0.1564
 9470TIP3    H252606   2.806   7.463   5.869 -1.3493 -1.3633 -0.8696
 9471TIP3   OH252607   6.550   4.060   5.792 -0.0994  0.1368  0.5783
 9471TIP3    H152608   6.635   4.019   5.806  0.0818  0.2044 -0.2842
 9471TIP3    H252609   6.528   4.099   5.877  1.7112  1.9478  0.3001
 9472TIP3   OH252610   3.094   6.671   5.889  0.1553 -0.2556  0.5350
 9472TIP3    H152611   3.000   6.684   5.894 -0.3589 -1.6988 -2.5506
 9472TIP3    H252612   3.104   6.581   5.857  2.3318  0.8837 -2.5580
 9473TIP3   OH252613   7.943   7.689   6.361 -0.0706 -0.4156 -0.1078
 9473TIP3    H152614   7.877   7.747   6.398 -0.6542 -0.6385 -0.7832
 9473TIP3    H252615   7.996   7.745   6.305  0.2550 -0.2591  0.3491
 9474TIP3   OH252616   8.399   0.763   6.274 -0.0187  0.0560 -0.5843
 9474TIP3    H152617   8.432   0.676   6.253  0.6422  0.2434 -0.3338
 9474TIP3    H252618   8.304   0.752   6.280  0.1280 -0.7996  0.1971
 9475TIP3   OH252619   2.048   7.617   5.376 -0.2873 -0.2850  0.0150
 9475TIP3    H152620   2.090   7.575   5.301 -1.6770 -0.5114 -0.6677
 9475TIP3    H252621   2.040   7.547   5.441 -0.9842 -0.6425 -0.4432
 9476TIP3   OH252622   4.471   4.668   6.089  0.4635  0.3423  0.3569
 9476TIP3    H152623   4.495   4.577   6.109  0.0327  0.0729 -0.3027
 9476TIP3    H252624   4.552   4.708   6.057  0.5538  0.0658  0.2388
 9477TIP3   OH252625   1.651   2.015   5.505 -0.1533 -0.0461 -0.5090
 9477TIP3    H152626   1.705   2.088   5.535 -0.3489 -0.3856  0.7341
 9477TIP3    H252627   1.698   1.980   5.430  0.7909  0.3421 -0.1214
 9478TIP3   OH252628   7.765   8.873   7.317  0.1184 -0.0250 -0.2508
 9478TIP3    H152629   7.857   8.847   7.321 -0.0110 -0.3653  1.9928
 9478TIP3    H252630   7.717   8.798   7.355 -0.6986  1.5272  1.9937
 9479TIP3   OH252631   6.900   1.645   6.468  0.0235 -0.7135 -0.2097
 9479TIP3    H152632   6.853   1.676   6.391  1.5574  0.6834 -0.6327
 9479TIP3    H252633   6.938   1.724   6.507 -0.0589 -1.4926  1.5357
 9480TIP3   OH252634   2.329   8.988   6.274  0.0067  0.3172  0.6041
 9480TIP3    H152635   2.330   8.928   6.200  1.2917 -2.8583  2.9634
 9480TIP3    H252636   2.240   9.024   6.275 -1.0459 -2.0527 -0.5890
 9481TIP3   OH252637   2.898   5.115   6.574  0.2931 -0.2267  0.1759
 9481TIP3    H152638   2.933   5.027   6.588  0.8817 -0.1594 -0.7293
 9481TIP3    H252639   2.807   5.101   6.549 -0.4213 -0.4040  2.6139
 9482TIP3   OH252640   0.115   9.009   6.726  0.0209  0.2874  0.3494
 9482TIP3    H152641   0.139   8.916   6.725 -2.0075 -0.3045 -0.4014
 9482TIP3    H252642   0.156   9.045   6.647  1.9370  0.3978  1.3421
 9483TIP3   OH252643   7.267   0.827   5.691  0.6462 -0.3117  0.5482
 9483TIP3    H152644   7.298   0.741   5.718  1.9063  0.4914  1.8272
 9483TIP3    H252645   7.345   0.883   5.694  0.7908  0.1120 -4.1121
 9484TIP3   OH252646   0.328   8.470   6.713 -0.0295  0.4765 -0.2914
 9484TIP3    H152647   0.311   8.393   6.768 -1.7213  0.7929 -0.3334
 9484TIP3    H252648   0.424   8.474   6.707  0.2210  0.2962  2.4216
 9485TIP3   OH252649   3.793   5.750   6.063 -0.0924 -1.0907 -0.4764
 9485TIP3    H152650   3.747   5.833   6.048  0.7200 -0.5146  0.1383
 9485TIP3    H252651   3.750   5.688   6.004 -0.4502 -0.1443 -1.2405
 9486TIP3   OH252652   2.331   1.177   5.776  0.1730 -0.3634  0.0240
 9486TIP3    H152653   2.258   1.170   5.837  0.7299  2.2961  1.1008
 9486TIP3    H252654   2.401   1.126   5.817 -0.5973 -1.7883 -0.3520
 9487TIP3   OH252655   8.952   4.348   4.940 -0.1074 -0.5625  0.1538
 9487TIP3    H152656   8.951   4.268   4.886  2.7226 -0.6637  0.0602
 9487TIP3    H252657   9.017   4.404   4.897  0.8166  0.1693  2.3586
 9488TIP3   OH252658   4.256   7.375   4.884  0.2825 -0.5108  0.1934
 9488TIP3    H152659   4.180   7.431   4.896  0.3600 -0.1566 -0.8217
 9488TIP3    H252660   4.234   7.294   4.931 -1.2464 -0.8793 -1.0575
 9489TIP3   OH252661   2.043   6.372   6.751 -0.4379 -0.1400  0.4307
 9489TIP3    H152662   1.974   6.306   6.754  0.9478 -1.6361  0.4562
 9489TIP3    H252663   2.117   6.328   6.709  0.5483  1.3873  0.4859
 9490TIP3   OH252664   4.238   1.920   6.633  0.6866 -0.0833  0.1075
 9490TIP3    H152665   4.248   1.981   6.705 -0.3878  1.2824 -0.8414
 9490TIP3    H252666   4.322   1.922   6.588  1.1469 -0.4624  0.9273
 9491TIP3   OH252667   7.607   2.509   5.579 -0.5635 -0.0814 -0.2931
 9491TIP3    H152668   7.660   2.430   5.592 -1.6180 -0.8633 -0.6330
 9491TIP3    H252669   7.632   2.567   5.651  1.0695 -0.2401 -0.6944
 9492TIP3   OH252670   6.103   3.696   5.999  0.3080 -0.2453 -0.0656
 9492TIP3    H152671   6.141   3.742   5.925  0.0415 -0.0819 -0.1048
 9492TIP3    H252672   6.020   3.742   6.015 -0.0554 -0.8311 -0.2291
 9493TIP3   OH252673   4.735   7.813   5.615 -0.1990  0.0280  0.2231
 9493TIP3    H152674   4.802   7.754   5.651  1.0591  0.9475 -0.5194
 9493TIP3    H252675   4.683   7.840   5.691  1.2259  0.4740  1.0756
 9494TIP3   OH252676   7.081   0.316   5.319 -0.1358 -0.1522 -0.7259
 9494TIP3    H152677   7.143   0.370   5.271  0.0822 -0.4623 -0.7890
 9494TIP3    H252678   7.005   0.309   5.262 -0.7272  1.2421 -0.1559
 9495TIP3   OH252679   4.837   4.510   5.795 -0.3690 -0.4053 -0.1847
 9495TIP3    H152680   4.820   4.440   5.858 -0.5122 -0.9243 -0.7885
 9495TIP3    H252681   4.763   4.570   5.804  0.1354  0.0831  0.8774
 9496TIP3   OH252682   0.918   4.778   6.357  0.5394  0.6417  0.1539
 9496TIP3    H152683   1.002   4.744   6.325 -0.3805 -1.1729 -0.5211
 9496TIP3    H252684   0.927   4.780   6.452  0.4154 -2.4880  0.3444
 9497TIP3   OH252685   8.447   5.145   5.566 -0.4848 -0.4861  0.5810
 9497TIP3    H152686   8.355   5.157   5.593 -0.8037 -1.0362 -0.2193
 9497TIP3    H252687   8.497   5.194   5.631 -1.3102 -0.6052  1.3427
 9498TIP3   OH252688   5.535   7.848   5.243  0.2154 -0.3177 -0.2727
 9498TIP3    H152689   5.561   7.767   5.200 -0.1220 -0.5289 -0.0795
 9498TIP3    H252690   5.522   7.825   5.335 -0.3644 -0.1582 -0.3082
 9499TIP3   OH252691   3.338   3.859   5.997  0.3077 -0.0996  0.1631
 9499TIP3    H152692   3.328   3.896   6.085 -1.6685  0.6775 -0.3200
 9499TIP3    H252693   3.377   3.773   6.012  0.9054  0.3973  1.7034
 9500TIP3   OH252694   8.981   6.659   6.943 -0.4135  0.5775  0.4299
 9500TIP3    H152695   9.051   6.719   6.918  0.3161  0.4466  2.0288
 9500TIP3    H252696   9.026   6.587   6.988 -1.5514  0.3886  1.3064
 9501TIP3   OH252697   5.147   3.480   6.407 -0.0064  0.1382  0.6095
 9501TIP3    H152698   5.216   3.542   6.381 -0.0936  0.3775  0.9366
 9501TIP3    H252699   5.132   3.500   6.500  0.6932 -1.0580  1.0033
 9502TIP3   OH252700   2.520   8.754   5.131  0.1802  0.0132  0.0784
 9502TIP3    H152701   2.429   8.771   5.106  0.1753 -1.6332 -1.2269
 9502TIP3    H252702   2.513   8.685   5.197  0.4935 -1.4822 -1.3765
 9503TIP3   OH252703   4.138   3.472   6.438  0.3627  0.0395 -0.0662
 9503TIP3    H152704   4.132   3.537   6.368  1.9331 -2.1592 -2.4493
 9503TIP3    H252705   4.061   3.417   6.427  1.2800 -1.1097 -1.0235
 9504TIP3   OH252706   0.816   8.875   7.079  0.0693 -0.2535  0.8487
 9504TIP3    H152707   0.725   8.902   7.068  0.4702  0.5173 -0.8031
 9504TIP3    H252708   0.830   8.879   7.174 -1.2795  0.7651  1.0443
 9505TIP3   OH252709   8.672   0.100   5.901 -0.1322  0.3780  0.3221
 9505TIP3    H152710   8.624   0.073   5.823 -1.5946  0.2254  1.2304
 9505TIP3    H252711   8.613   0.161   5.946  0.0737 -0.5543  1.9704
 9506TIP3   OH252712   7.899   6.600   5.624 -0.4852  0.5919  0.6289
 9506TIP3    H152713   7.947   6.663   5.569 -0.1318 -1.6216 -1.7988
 9506TIP3    H252714   7.808   6.630   5.620 -0.3354  0.9447 -0.5130
 9507TIP3   OH252715   0.090   9.187   5.684  0.2794 -0.0646  0.4758
 9507TIP3    H152716   0.059   9.105   5.723 -1.6377  0.6313  0.5277
 9507TIP3    H252717   0.014   9.245   5.685  1.3854  1.4898 -0.2302
 9508TIP3   OH252718   1.209   0.982   5.451  0.5050  0.0672  0.4166
 9508TIP3    H152719   1.286   0.967   5.396  0.8812  1.4158  0.5383
 9508TIP3    H252720   1.226   1.066   5.493 -0.3516 -0.3458  1.6310
 9509TIP3   OH252721   0.090   0.469   6.075 -0.0825  0.2212 -0.2185
 9509TIP3    H152722   0.063   0.522   6.000 -0.7507 -0.1066 -0.2195
 9509TIP3    H252723   0.063   0.521   6.151  1.7636  1.1664 -0.1564
 9510TIP3   OH252724   2.365   6.488   4.890 -0.1694 -0.0931  0.0279
 9510TIP3    H152725   2.341   6.469   4.981  0.6739 -1.2936  0.0299
 9510TIP3    H252726   2.283   6.483   4.841 -0.5821  0.2668  0.6697
 9511TIP3   OH252727   3.858   3.145   5.751  0.3317 -0.3363  0.2450
 9511TIP3    H152728   3.935   3.177   5.704 -0.2461  1.5305  0.5047
 9511TIP3    H252729   3.882   3.152   5.843  0.3363 -1.0653  0.3064
 9512TIP3   OH252730   2.937   8.310   5.046  0.1515  0.2820  0.1115
 9512TIP3    H152731   2.969   8.274   5.129 -1.2277  0.5100  0.7768
 9512TIP3    H252732   3.016   8.330   4.996  1.0059 -0.1689  1.2386
 9513TIP3   OH252733   8.358   1.914   5.663 -0.5240 -0.1358  0.1214
 9513TIP3    H152734   8.359   2.007   5.640  0.5764 -0.6160 -2.0539
 9513TIP3    H252735   8.415   1.908   5.740 -0.8782  1.0153  0.4958
 9514TIP3   OH252736   0.239   6.163   5.322  0.1433 -0.3822  0.3038
 9514TIP3    H152737   0.216   6.240   5.374 -2.5570 -1.1890  0.4749
 9514TIP3    H252738   0.333   6.171   5.306  0.6824  1.0240  3.4486
 9515TIP3   OH252739   2.203   2.514   5.179  0.3259 -0.1994  0.0571
 9515TIP3    H152740   2.272   2.497   5.114  1.6169 -0.3664  1.4125
 9515TIP3    H252741   2.136   2.561   5.131  1.9099  1.0146 -1.0675
 9516TIP3   OH252742   8.119   7.342   6.002  0.3229  0.2292  0.0641
 9516TIP3    H152743   8.092   7.432   5.985 -0.5847 -0.1695 -0.7208
 9516TIP3    H252744   8.042   7.302   6.042  0.2570 -0.5369 -0.7994
 9517TIP3   OH252745   7.882   5.563   5.929 -0.3646  0.0066 -0.2311
 9517TIP3    H152746   7.836   5.623   5.870 -1.2668  0.8288  1.2376
 9517TIP3    H252747   7.813   5.507   5.966  0.3504 -1.3314 -0.8718
 9518TIP3   OH252748   7.707   0.878   6.113  0.7861 -0.5109 -0.3516
 9518TIP3    H152749   7.671   0.964   6.090 -0.6675 -1.3984 -1.5980
 9518TIP3    H252750   7.668   0.859   6.199 -0.3082 -0.6498 -0.8574
 9519TIP3   OH252751   6.644   7.200   6.203  0.1162 -0.1705  0.3772
 9519TIP3    H152752   6.667   7.220   6.112 -1.3563 -0.7938 -0.1771
 9519TIP3    H252753   6.664   7.280   6.251  1.4034 -0.0055 -0.3998
 9520TIP3   OH252754   8.602   3.530   6.715  0.0098  0.8562 -0.9140
 9520TIP3    H152755   8.588   3.443   6.751 -1.0515  0.2496 -2.6658
 9520TIP3    H252756   8.632   3.583   6.789  0.7338 -0.9940  0.1674
 9521TIP3   OH252757   3.026   7.350   6.039  0.7509  0.9931  0.4676
 9521TIP3    H152758   3.022   7.255   6.053  1.6314  1.1034  1.6069
 9521TIP3    H252759   3.012   7.361   5.945  2.4512 -0.4091 -0.0055
 9522TIP3   OH252760   7.400   1.553   5.519  0.1941 -0.5411  0.0684
 9522TIP3    H152761   7.436   1.483   5.465 -1.2173 -1.0910 -0.2045
 9522TIP3    H252762   7.323   1.584   5.471  0.3022  0.6177  0.6007
 9523TIP3   OH252763   1.775   2.478   5.727 -0.3789 -0.5162 -0.1115
 9523TIP3    H152764   1.749   2.562   5.690 -1.8469 -0.6945  0.4467
 9523TIP3    H252765   1.868   2.472   5.709 -0.6745  0.2261 -2.1075
 9524TIP3   OH252766   1.356   0.124   5.298 -0.0921 -0.2174 -0.5464
 9524TIP3    H152767   1.309   0.204   5.323  1.0975 -0.1235  1.5403
 9524TIP3    H252768   1.329   0.059   5.362  1.5436 -0.5322 -0.1341
 9525TIP3   OH252769   8.371   6.243   5.254 -0.5291  0.0937  0.3472
 9525TIP3    H152770   8.361   6.175   5.188  3.8045  0.9446 -1.4943
 9525TIP3    H252771   8.431   6.205   5.319  0.7586  1.5873  0.0794
 9526TIP3   OH252772   3.935   6.068   5.941 -0.0065 -0.0127  0.1286
 9526TIP3    H152773   3.902   6.157   5.951  0.6746  0.2935 -0.2196
 9526TIP3    H252774   3.872   6.013   5.988 -0.8498  0.5680 -0.2863
 9527TIP3   OH252775   3.296   7.205   6.028  0.0624 -0.1493  0.5639
 9527TIP3    H152776   3.278   7.220   5.935  2.4110 -0.2964  0.0052
 9527TIP3    H252777   3.263   7.117   6.045  1.6905 -1.0990 -0.8321
 9528TIP3   OH252778   6.159   5.823   5.661  0.0863 -0.1596 -0.9676
 9528TIP3    H152779   6.144   5.900   5.607 -0.4626 -0.7255 -1.6350
 9528TIP3    H252780   6.252   5.803   5.649  0.3710  0.7292 -0.3338
 9529TIP3   OH252781   1.013   7.560   6.593 -0.1531 -0.2555  0.3821
 9529TIP3    H152782   0.951   7.630   6.613  0.6044  0.5360  0.0398
 9529TIP3    H252783   1.098   7.604   6.587  0.3303 -1.1933  0.0837
 9530TIP3   OH252784   2.238   4.485   6.182  0.2441  0.2294  0.2117
 9530TIP3    H152785   2.169   4.460   6.121  0.9895 -2.2267  0.2449
 9530TIP3    H252786   2.316   4.494   6.128  0.1774  1.7822  0.3366
 9531TIP3   OH252787   5.597   5.116   5.568  0.4180  0.2176  0.9346
 9531TIP3    H152788   5.610   5.076   5.654  2.5067  1.3715  1.2130
 9531TIP3    H252789   5.629   5.050   5.506 -1.6729 -0.8764  0.9249
 9532TIP3   OH252790   8.461   4.640   5.760  0.2513  0.2137 -0.0789
 9532TIP3    H152791   8.500   4.559   5.728  2.8503  0.5327  1.9886
 9532TIP3    H252792   8.476   4.703   5.690 -1.5851 -0.9304 -1.6105
 9533TIP3   OH252793   5.071   0.017   5.721  0.4512 -0.0304  0.1584
 9533TIP3    H152794   5.150   0.059   5.753  0.9450 -0.9346  0.1603
 9533TIP3    H252795   5.023  -0.007   5.800  0.3903  0.1127  0.1653
 9534TIP3   OH252796   1.675   5.558   4.972 -0.4325 -0.6796 -0.1200
 9534TIP3    H152797   1.683   5.501   5.048  0.8007 -0.2233  0.1242
 9534TIP3    H252798   1.754   5.541   4.920  0.1796  1.0687  0.1735
 9535TIP3   OH252799   1.535   3.781   5.888  0.2163 -0.0367 -0.2138
 9535TIP3    H152800   1.627   3.801   5.907  0.1294  1.0220 -0.8186
 9535TIP3    H252801   1.513   3.709   5.946  1.2744  0.0699  0.3320
 9536TIP3   OH252802   5.726   5.104   6.498  0.2226 -0.3616  0.4332
 9536TIP3    H152803   5.814   5.071   6.486  0.7739  1.8447 -2.8703
 9536TIP3    H252804   5.693   5.121   6.409 -3.1888 -0.2272  1.5443
 9537TIP3   OH252805   2.908   5.399   5.171 -0.1338  0.3224  0.1192
 9537TIP3    H152806   2.996   5.422   5.201  0.8159  0.3370 -2.5097
 9537TIP3    H252807   2.914   5.307   5.146 -0.1442  0.9258 -2.3274
 9538TIP3   OH252808   3.464   3.326   7.160  0.7581 -0.2513 -0.3823
 9538TIP3    H152809   3.543   3.295   7.116  0.2957 -0.3084 -1.1902
 9538TIP3    H252810   3.410   3.247   7.171  0.3437 -0.0358 -0.8349
 9539TIP3   OH252811   7.514   0.437   5.514  0.8224  0.4400 -0.8263
 9539TIP3    H152812   7.575   0.450   5.587  0.6404 -1.1587 -0.3459
 9539TIP3    H252813   7.480   0.348   5.527  0.2303  0.3940 -2.4554
 9540TIP3   OH252814   0.614   4.634   6.593 -0.1696  0.1613 -0.5154
 9540TIP3    H152815   0.555   4.561   6.613  1.0239 -0.5956  0.3248
 9540TIP3    H252816   0.568   4.711   6.627 -1.8809  0.0055 -2.2352
 9541TIP3   OH252817   0.469   3.179   5.191  0.0573  0.7110  0.1392
 9541TIP3    H152818   0.542   3.121   5.168  0.1152  0.3431  1.1764
 9541TIP3    H252819   0.496   3.218   5.274 -1.8016 -1.0303  1.6806
 9542TIP3   OH252820   2.713   2.614   5.709 -0.3278 -0.1898  0.4669
 9542TIP3    H152821   2.720   2.565   5.627 -0.9789 -0.0163  0.2981
 9542TIP3    H252822   2.662   2.692   5.686  1.4480  1.0457  0.5214
 9543TIP3   OH252823   7.647   2.606   5.323  0.1364  0.4784  0.0505
 9543TIP3    H152824   7.640   2.550   5.400  0.3811  1.7593  1.0563
 9543TIP3    H252825   7.596   2.561   5.256 -0.1742 -0.6305  0.9907
 9544TIP3   OH252826   2.108   5.721   6.729  0.6540  0.0103 -0.2336
 9544TIP3    H152827   2.080   5.658   6.662  1.4245 -0.3223 -0.2490
 9544TIP3    H252828   2.188   5.760   6.693  2.0059 -1.3315  1.1671
 9545TIP3   OH252829   1.972   7.254   5.103 -0.3821 -0.2665 -0.2873
 9545TIP3    H152830   1.881   7.246   5.074 -0.4902  0.1000 -0.0439
 9545TIP3    H252831   1.966   7.261   5.198 -0.1201  0.1134 -0.2985
 9546TIP3   OH252832   0.702   7.548   5.992 -0.0574  0.7127 -0.1182
 9546TIP3    H152833   0.648   7.510   5.923  1.0073  0.2745 -0.7380
 9546TIP3    H252834   0.750   7.474   6.028  0.7378  1.2076 -0.1404
 9547TIP3   OH252835   7.978   5.805   5.300 -0.2376 -0.0147 -0.0766
 9547TIP3    H152836   8.015   5.716   5.301  1.8979  0.8073 -0.4556
 9547TIP3    H252837   7.959   5.822   5.208 -0.3579  0.0283 -0.0438
 9548TIP3   OH252838   5.541   8.462   6.130  0.4312  0.5279 -0.1899
 9548TIP3    H152839   5.519   8.433   6.041  0.6420  1.0223 -0.4032
 9548TIP3    H252840   5.626   8.506   6.121 -0.5279  2.4906 -0.1246
 9549TIP3   OH252841   5.574   8.866   5.683  0.1979 -0.1300 -0.4499
 9549TIP3    H152842   5.529   8.945   5.711  1.9483  0.6211  0.3825
 9549TIP3    H252843   5.528   8.838   5.604 -2.1892  0.1271  0.7656
 9550TIP3   OH252844   4.149   7.081   5.396 -0.0550  0.6977 -0.2354
 9550TIP3    H152845   4.142   7.168   5.355 -1.3771  0.6785 -0.1123
 9550TIP3    H252846   4.175   7.099   5.486 -1.2337  1.0559  0.0513
 9551TIP3   OH252847   6.929   6.092   6.475  0.1005  0.0149 -0.3162
 9551TIP3    H152848   6.962   6.049   6.554 -0.9036  0.0810  0.1618
 9551TIP3    H252849   6.844   6.051   6.460  1.2124 -1.6425 -2.7097
 9552TIP3   OH252850   4.198   6.800   6.324  0.5556 -0.2447  0.6379
 9552TIP3    H152851   4.199   6.847   6.241 -2.3662 -1.7611 -0.4076
 9552TIP3    H252852   4.274   6.833   6.371  1.6809  1.5289 -2.1438
 9553TIP3   OH252853   1.607   6.529   6.204  0.7991 -0.0989  0.0516
 9553TIP3    H152854   1.634   6.621   6.196  0.6423 -0.1784 -1.7683
 9553TIP3    H252855   1.514   6.530   6.179  0.5928 -0.6446  0.7842
 9554TIP3   OH252856   3.419   2.599   5.342 -0.2063 -0.0669  0.1826
 9554TIP3    H152857   3.400   2.529   5.404 -2.6797  0.2717 -0.1102
 9554TIP3    H252858   3.508   2.627   5.365 -0.8725 -0.1436  3.3861
 9555TIP3   OH252859   1.714   1.745   5.651 -0.2629  0.2826 -0.4888
 9555TIP3    H152860   1.628   1.710   5.630 -0.1235 -1.3138  1.2667
 9555TIP3    H252861   1.753   1.768   5.567 -0.6892 -3.2211 -1.7936
 9556TIP3   OH252862   7.117   4.169   5.079 -0.4903  0.5174  0.0864
 9556TIP3    H152863   7.110   4.203   5.168 -0.1592  1.5094 -0.2566
 9556TIP3    H252864   7.042   4.205   5.033  0.2324  1.3667 -0.4590
 9557TIP3   OH252865   7.274   0.691   7.033  0.7551 -0.4191 -0.0932
 9557TIP3    H152866   7.222   0.735   7.100 -0.2134  0.6130 -1.4672
 9557TIP3    H252867   7.303   0.761   6.974  2.0228 -1.2255 -0.4826
 9558TIP3   OH252868   6.998   8.476   5.470 -0.0095 -0.1150  0.2552
 9558TIP3    H152869   6.991   8.509   5.380  2.9182  1.2443  0.4303
 9558TIP3    H252870   7.045   8.394   5.462  1.2076  0.5278  0.5856
 9559TIP3   OH252871   0.772   7.679   6.422 -0.1471  0.7428  0.2073
 9559TIP3    H152872   0.738   7.687   6.511 -1.4059 -1.5513  0.0180
 9559TIP3    H252873   0.696   7.652   6.370  0.9346  0.3321 -1.2204
 9560TIP3   OH252874   5.116   7.640   7.134 -0.1818  0.2030  0.7288
 9560TIP3    H152875   5.055   7.567   7.131 -0.6746  0.6216  0.2270
 9560TIP3    H252876   5.060   7.718   7.129  0.4377  0.5934 -1.6967
 9561TIP3   OH252877   5.322   1.389   5.759 -0.1279 -0.5995  0.0742
 9561TIP3    H152878   5.354   1.337   5.685  1.8530 -0.2751  0.6412
 9561TIP3    H252879   5.299   1.324   5.826 -0.0749 -0.8281 -0.1257
 9562TIP3   OH252880   7.901   2.258   5.341 -0.0734 -0.3576 -0.2190
 9562TIP3    H152881   7.996   2.268   5.334 -0.2546  0.7132 -1.3026
 9562TIP3    H252882   7.867   2.347   5.340 -1.2473 -0.7662 -2.4634
 9563TIP3   OH252883   1.362   5.778   6.070 -0.0764  0.1362 -0.3556
 9563TIP3    H152884   1.345   5.739   5.984 -2.4102  0.2874 -0.0214
 9563TIP3    H252885   1.326   5.867   6.064  1.5706  0.8883  0.1697
 9564TIP3   OH252886   1.390   7.334   6.198 -0.2749  0.2549 -0.7156
 9564TIP3    H152887   1.483   7.310   6.195 -0.7004 -1.4376 -2.1576
 9564TIP3    H252888   1.390   7.429   6.203  1.5272  0.2803 -0.3907
 9565TIP3   OH252889   5.919   5.490   6.101  0.0799 -0.1781 -0.5947
 9565TIP3    H152890   5.953   5.555   6.039  0.4534  0.1088 -0.0936
 9565TIP3    H252891   5.997   5.454   6.142 -0.1762 -0.2583 -0.1771
 9566TIP3   OH252892   7.597   5.506   5.649 -0.0654  0.1371  0.0627
 9566TIP3    H152893   7.564   5.518   5.738  3.2862  1.0348  1.3520
 9566TIP3    H252894   7.677   5.455   5.660  0.8129  0.8370 -2.3630
 9567TIP3   OH252895   7.131   7.837   6.123  0.7085  0.6126  0.5788
 9567TIP3    H152896   7.126   7.795   6.208 -0.8198  1.9635  1.2076
 9567TIP3    H252897   7.053   7.807   6.077  2.5448 -1.7871 -1.2442
 9568TIP3   OH252898   8.311   8.940   4.824  0.1060  0.0826  0.4199
 9568TIP3    H152899   8.334   9.015   4.769 -1.1396  0.4479  0.3622
 9568TIP3    H252900   8.228   8.964   4.865  0.0519 -0.9663  0.9785
 9569TIP3   OH252901   8.220   0.037   5.993 -0.0304 -0.0566  0.4524
 9569TIP3    H152902   8.150   0.082   6.040 -0.9045 -0.2752 -0.5752
 9569TIP3    H252903   8.191   0.037   5.902  1.9611  1.0395 -0.2404
 9570TIP3   OH252904   0.321   5.757   5.473 -0.1681 -0.9579  0.4829
 9570TIP3    H152905   0.376   5.683   5.500  3.4197 -0.1615 -3.5960
 9570TIP3    H252906   0.369   5.834   5.501  0.6121 -0.2340 -2.4967
 9571TIP3   OH252907   3.884   4.821   6.091  0.2269  0.7289  0.4609
 9571TIP3    H152908   3.919   4.856   6.173  2.2099 -1.4508  0.6724
 9571TIP3    H252909   3.819   4.757   6.118  0.0065  0.8770  0.2823
 9572TIP3   OH252910   5.312   3.655   6.279 -0.1891 -0.3711 -0.1809
 9572TIP3    H152911   5.402   3.622   6.288  0.0987  0.4001 -0.1978
 9572TIP3    H252912   5.309   3.731   6.337 -0.4509  0.3701 -1.1491
 9573TIP3   OH252913   9.090   1.306   5.507  0.0184 -0.2304  0.0742
 9573TIP3    H152914   9.081   1.401   5.505 -0.0528 -0.1925  1.2153
 9573TIP3    H252915   9.160   1.290   5.570  0.7641 -0.9039 -0.9005
 9574TIP3   OH252916   1.348   8.196   4.711 -0.8258 -0.4222 -0.3067
 9574TIP3    H152917   1.283   8.265   4.720 -1.5743 -0.7220 -2.6968
 9574TIP3    H252918   1.391   8.214   4.627  2.9439  0.3406  1.5646
 9575TIP3   OH252919   6.933   5.818   5.389  0.2650  0.5395 -0.7847
 9575TIP3    H152920   7.019   5.798   5.426  0.1432  0.4038 -0.5722
 9575TIP3    H252921   6.950   5.882   5.321  0.1781  3.1537  1.4796
 9576TIP3   OH252922   7.367   8.380   5.517 -0.2468 -0.3224 -0.1357
 9576TIP3    H152923   7.350   8.467   5.552  1.1639  0.9596 -2.4144
 9576TIP3    H252924   7.426   8.339   5.581  0.3663  1.0166  0.1796
 9577TIP3   OH252925   2.719   1.084   6.519  0.0915 -0.6016  0.1865
 9577TIP3    H152926   2.791   1.053   6.574 -0.0057 -1.7297 -0.3078
 9577TIP3    H252927   2.718   1.179   6.533  2.2594 -0.4199 -0.5068
 9578TIP3   OH252928   6.961   6.070   6.175 -0.1344 -0.0259  0.3643
 9578TIP3    H152929   6.959   6.154   6.131  1.9557  0.1715  0.5734
 9578TIP3    H252930   6.992   6.089   6.264 -0.9182 -0.8533  0.8341
 9579TIP3   OH252931   1.208   6.316   5.645  0.8578  0.1171  0.7612
 9579TIP3    H152932   1.214   6.319   5.549 -3.0442 -2.7597  0.1746
 9579TIP3    H252933   1.217   6.224   5.667  0.3641  0.5486  3.0530
 9580TIP3   OH252934   7.574   4.081   6.067 -0.4715  0.1102 -0.5339
 9580TIP3    H152935   7.548   4.106   6.155 -1.6951  1.3170 -1.1967
 9580TIP3    H252936   7.669   4.091   6.065 -0.3223 -0.7965  0.8840
 9581TIP3   OH252937   0.186   3.840   5.917 -0.0705 -0.5309 -0.0739
 9581TIP3    H152938   0.175   3.917   5.861  1.7516  0.3752  0.7465
 9581TIP3    H252939   0.098   3.824   5.952 -0.4092  1.5144  0.1475
 9582TIP3   OH252940   8.778   0.226   4.795  0.6338  0.7672  0.2290
 9582TIP3    H152941   8.843   0.161   4.768  0.3601  1.1462 -1.4419
 9582TIP3    H252942   8.720   0.178   4.854  1.8417  0.1658  0.9708
 9583TIP3   OH252943   3.181   6.547   6.202 -0.2574  0.3436  0.4654
 9583TIP3    H152944   3.153   6.558   6.293  0.5272  3.3608  0.4388
 9583TIP3    H252945   3.158   6.630   6.159  2.1159  0.1940 -1.3264
 9584TIP3   OH252946   0.021   3.674   5.527 -0.1689 -0.2771 -0.3223
 9584TIP3    H152947  -0.069   3.705   5.543  0.9584  2.2235  1.9992
 9584TIP3    H252948   0.054   3.652   5.614  1.9004  0.1824 -0.9465
 9585TIP3   OH252949   2.198   7.393   4.992  0.3148 -0.0914  0.2625
 9585TIP3    H152950   2.179   7.486   5.009 -0.9947 -0.3349  0.1781
 9585TIP3    H252951   2.123   7.346   5.027  1.6439 -1.2658  1.7143
 9586TIP3   OH252952   8.741   4.045   6.269  0.0929  1.2287 -0.2654
 9586TIP3    H152953   8.813   3.996   6.231  0.4117  0.7041  0.9556
 9586TIP3    H252954   8.772   4.135   6.273  0.0072  1.3155 -1.3123
 9587TIP3   OH252955   7.723   2.223   6.266  0.1718  0.4063 -0.1634
 9587TIP3    H152956   7.681   2.141   6.289 -0.6383  0.9692  0.3984
 9587TIP3    H252957   7.784   2.240   6.338  1.3708 -0.3765 -0.9460
 9588TIP3   OH252958   4.028   2.413   7.037  0.1516 -0.2712  0.7807
 9588TIP3    H152959   3.948   2.407   7.090  0.2035 -1.7534  0.7242
 9588TIP3    H252960   3.998   2.400   6.947  0.2344  0.9876  0.5585
 9589TIP3   OH252961   7.419   7.358   5.357  1.3145  0.0757  0.3471
 9589TIP3    H152962   7.380   7.391   5.276 -0.1024  0.2002  1.0438
 9589TIP3    H252963   7.457   7.436   5.398  1.3531  0.1533  0.1639
 9590TIP3   OH252964   3.711   5.832   6.923  0.0112  0.2581 -0.1296
 9590TIP3    H152965   3.736   5.880   6.844  0.5852  0.1515 -0.0185
 9590TIP3    H252966   3.747   5.745   6.910 -0.6696 -0.0255 -0.1459
 9591TIP3   OH252967   7.366   7.251   6.026 -0.2921 -0.0450 -0.1161
 9591TIP3    H152968   7.358   7.157   6.010 -0.1675  0.1130 -1.1461
 9591TIP3    H252969   7.390   7.289   5.941 -0.2356  0.9062  0.3058
 9592TIP3   OH252970   4.869   7.373   4.932  0.1863  0.0864  0.2666
 9592TIP3    H152971   4.821   7.403   4.855  0.3182  0.2670  0.2559
 9592TIP3    H252972   4.854   7.278   4.934 -0.8442  0.2401  0.7135
 9593TIP3   OH252973   8.188   3.540   5.472  0.3629  0.0463 -0.2902
 9593TIP3    H152974   8.278   3.548   5.503 -0.0615  1.5767  0.7023
 9593TIP3    H252975   8.169   3.626   5.433 -0.6841 -0.2289 -0.4080
 9594TIP3   OH252976   2.549   0.439   6.549  0.8772  0.2200  0.0960
 9594TIP3    H152977   2.638   0.472   6.561  1.1911 -0.0148 -1.3881
 9594TIP3    H252978   2.549   0.402   6.460 -0.7684  0.4580 -0.0364
 9595TIP3   OH252979   7.652   8.934   7.068  0.5531  0.0097 -0.4658
 9595TIP3    H152980   7.673   8.957   7.159 -1.1913  0.4619 -0.1465
 9595TIP3    H252981   7.679   8.843   7.059  2.1400  0.3970  0.0319
 9596TIP3   OH252982   5.416   3.102   6.074  0.0108  0.1234 -0.0138
 9596TIP3    H152983   5.404   3.194   6.054 -1.2671 -0.3169 -1.4395
 9596TIP3    H252984   5.365   3.088   6.155 -1.5980  0.2525 -0.9611
 9597TIP3   OH252985   1.874   2.683   6.084 -0.1046  0.3181 -1.0706
 9597TIP3    H152986   1.937   2.691   6.011 -0.6037 -0.7266 -1.6466
 9597TIP3    H252987   1.866   2.588   6.098  1.0173  0.5167  1.2885
 9598TIP3   OH252988   4.275   8.564   5.641  0.3695 -0.3307  0.4330
 9598TIP3    H152989   4.311   8.499   5.701  1.2090 -0.5668 -0.3001
 9598TIP3    H252990   4.332   8.640   5.650  0.2408 -0.2108  0.2559
 9599TIP3   OH252991   5.679   8.369   5.451  0.1131  0.9022 -0.3281
 9599TIP3    H152992   5.675   8.323   5.534 -0.5123  0.1685 -0.7536
 9599TIP3    H252993   5.592   8.357   5.412  0.3239  1.4175 -0.9891
 9600TIP3   OH252994   1.841   7.122   5.682  0.0191 -0.0001  0.0538
 9600TIP3    H152995   1.930   7.097   5.657  0.6091 -1.2608  2.9076
 9600TIP3    H252996   1.791   7.040   5.679 -1.0175  0.6418 -1.2343
 9601TIP3   OH252997   7.144   7.601   5.241  0.1411 -0.2266  0.4567
 9601TIP3    H152998   7.124   7.694   5.250  1.2031  0.0462  0.1121
 9601TIP3    H252999   7.142   7.568   5.331  0.8825  0.3783  0.7037
 9602TIP3   OH253000   2.006   2.653   4.984  0.1739  0.2655  0.1014
 9602TIP3    H153001   1.937   2.694   5.037  0.5271  0.9282  0.0683
 9602TIP3    H253002   1.960   2.614   4.911 -0.2403  0.0429  0.4757
 9603TIP3   OH253003   1.914   3.446   6.469  0.1966 -0.1054  0.2645
 9603TIP3    H153004   1.997   3.421   6.427  0.0504 -0.1462 -0.0042
 9603TIP3    H253005   1.879   3.515   6.412  0.3461  0.3504  0.7186
 9604TIP3   OH253006   1.401   3.020   6.365 -0.4002 -0.0947  0.0995
 9604TIP3    H153007   1.464   2.956   6.397  1.4605  1.8409  0.6109
 9604TIP3    H253008   1.406   3.013   6.270  3.7372  2.5038 -0.1843
 9605TIP3   OH253009   0.313   2.755   6.555 -0.1705 -0.0556  0.2439
 9605TIP3    H153010   0.325   2.674   6.505  1.4219  1.2653 -1.6650
 9605TIP3    H253011   0.289   2.820   6.490 -0.6673  1.1974  1.6221
 9606TIP3   OH253012   0.968   3.353   5.028  0.0808 -0.0791  0.2440
 9606TIP3    H153013   0.988   3.442   5.055  0.7731 -1.1478  3.7521
 9606TIP3    H253014   0.996   3.349   4.936 -0.1677  3.2832 -0.0963
 9607TIP3   OH253015   8.387   7.473   5.659 -0.0578 -0.2954 -0.1524
 9607TIP3    H153016   8.396   7.519   5.742 -1.3302 -0.8127  0.3044
 9607TIP3    H253017   8.431   7.528   5.595  1.0491  0.0521  0.8822
 9608TIP3   OH253018   9.037   8.029   7.235  0.1429 -0.0474  0.2445
 9608TIP3    H153019   9.075   8.097   7.291 -0.1128  0.9985 -0.8263
 9608TIP3    H253020   8.995   8.076   7.164 -0.3283 -1.3213 -0.3588
 9609TIP3   OH253021   6.434   3.997   5.040  0.3069 -0.2882  0.0037
 9609TIP3    H153022   6.505   4.046   5.082 -0.0002 -0.5468  0.8415
 9609TIP3    H253023   6.432   3.914   5.088 -0.3531 -0.4061 -0.2288
 9610TIP3   OH253024   5.416   7.347   5.761  0.5015 -0.0087 -0.2237
 9610TIP3    H153025   5.461   7.374   5.841 -0.4697 -0.5541  0.5291
 9610TIP3    H253026   5.476   7.370   5.690  1.5049  0.2122  0.6808
 9611TIP3   OH253027   8.561   9.215   5.670 -0.1760  0.0161 -0.1444
 9611TIP3    H153028   8.489   9.251   5.618  0.2474 -0.1497 -0.8590
 9611TIP3    H253029   8.570   9.125   5.640  0.5398  0.1326 -0.2965
 9612TIP3   OH253030   7.049   1.324   6.460  0.2226  0.1586  0.6092
 9612TIP3    H153031   6.986   1.289   6.396 -0.5575  1.3923  0.6672
 9612TIP3    H253032   7.009   1.304   6.545  0.4851 -0.0694  0.6818
 9613TIP3   OH253033   8.369   8.855   6.893  0.3142  0.2081 -0.1898
 9613TIP3    H153034   8.412   8.781   6.850 -1.7638 -1.0600 -0.1989
 9613TIP3    H253035   8.396   8.931   6.842  0.0319 -0.9250 -2.1280
 9614TIP3   OH253036   8.029   2.253   6.066 -0.4417 -0.4582 -0.0629
 9614TIP3    H153037   7.947   2.297   6.043 -0.0274  0.6548  0.5391
 9614TIP3    H253038   8.001   2.179   6.120 -1.0714 -0.2214 -0.0561
 9615TIP3   OH253039   8.421   9.037   5.120 -0.5196  0.1576 -0.1089
 9615TIP3    H153040   8.498   9.028   5.065  0.0147  0.1281  0.6322
 9615TIP3    H253041   8.389   9.126   5.102 -0.2432  0.2138 -0.3280
 9616TIP3   OH253042   2.352   1.721   4.854 -0.0561 -0.6386  0.2366
 9616TIP3    H153043   2.409   1.755   4.924 -0.1425  0.3040 -0.1377
 9616TIP3    H253044   2.343   1.628   4.874  0.3893 -0.4991  1.1587
 9617TIP3   OH253045   7.165   0.527   6.369 -0.0146 -0.0528  0.1991
 9617TIP3    H153046   7.226   0.460   6.400 -1.1172 -0.5098  1.5340
 9617TIP3    H253047   7.096   0.529   6.436  0.1757  2.7176  0.4247
 9618TIP3   OH253048   4.523   7.119   4.935 -0.0016 -0.0525  0.5422
 9618TIP3    H153049   4.437   7.093   4.902  0.0634  0.4825 -0.0612
 9618TIP3    H253050   4.545   7.198   4.886  0.0273  0.8798  2.0099
 9619TIP3   OH253051   4.004   3.857   5.824 -0.0450 -0.2782 -0.2978
 9619TIP3    H153052   4.028   3.825   5.737  2.0920 -0.9398  0.4764
 9619TIP3    H253053   4.087   3.866   5.870 -1.2193 -2.1701  2.4327
 9620TIP3   OH253054   3.642   6.292   6.035 -0.4414 -0.1592 -0.4554
 9620TIP3    H153055   3.652   6.328   5.947 -0.2577 -1.9463 -1.2147
 9620TIP3    H253056   3.655   6.367   6.093  0.9347  0.7836 -1.8912
 9621TIP3   OH253057   5.637   1.255   5.646 -0.1483 -0.1304 -0.0056
 9621TIP3    H153058   5.658   1.263   5.739  2.5674  1.2747 -0.6295
 9621TIP3    H253059   5.673   1.335   5.606 -1.8242 -0.3762 -2.1895
 9622TIP3   OH253060   5.084   8.609   5.619  0.1521 -0.1679 -0.5627
 9622TIP3    H153061   5.131   8.683   5.657  0.0978 -0.5008  0.1891
 9622TIP3    H253062   5.041   8.644   5.542 -0.2085  0.6798  0.0123
 9623TIP3   OH253063   7.075   2.669   5.992  0.5410  0.6022  0.5350
 9623TIP3    H153064   7.049   2.690   5.903  1.1967 -0.7773 -0.0131
 9623TIP3    H253065   7.111   2.580   5.987  0.0947  0.2728  2.2676
 9624TIP3   OH253066   1.688   2.476   4.830 -0.2262  0.2577  1.0752
 9624TIP3    H153067   1.660   2.528   4.905 -0.7611  0.6632  0.6057
 9624TIP3    H253068   1.778   2.505   4.813  0.1640 -0.3745  2.0092
 9625TIP3   OH253069   2.429   7.671   5.346  0.0624 -0.9582  0.2072
 9625TIP3    H153070   2.378   7.658   5.266 -1.7965 -0.5431  1.2633
 9625TIP3    H253071   2.422   7.589   5.394  1.4133 -1.3077 -0.1549
 9626TIP3   OH253072   0.009   4.923   6.719  0.9289  0.0906 -0.5905
 9626TIP3    H153073   0.070   4.934   6.647  1.3746  0.8765 -0.0977
 9626TIP3    H253074   0.052   4.862   6.779  2.3851  2.4838  0.9618
 9627TIP3   OH253075   7.484   6.939   6.595  0.2986 -0.4100  1.0020
 9627TIP3    H153076   7.525   6.888   6.525  0.4173  0.8982  0.0747
 9627TIP3    H253077   7.410   6.886   6.623 -0.0835 -0.7283 -0.5043
 9628TIP3   OH253078   8.668   6.985   6.511 -0.3506  0.1057 -0.1015
 9628TIP3    H153079   8.729   7.051   6.545 -1.2377  0.8895  0.0373
 9628TIP3    H253080   8.630   6.945   6.590  0.1535 -0.5414 -0.1867
 9629TIP3   OH253081   0.243   7.833   4.610 -0.0864  0.5367  0.5220
 9629TIP3    H153082   0.149   7.826   4.623 -0.6501  1.7992 -2.1047
 9629TIP3    H253083   0.257   7.923   4.582  2.2439  0.9771  2.7885
 9630TIP3   OH253084   8.970   0.598   4.862  0.3022 -0.5311 -0.0331
 9630TIP3    H153085   8.884   0.556   4.864  0.2996 -0.7044 -1.8091
 9630TIP3    H253086   9.033   0.526   4.863  0.4544 -0.4048  1.2538
 9631TIP3   OH253087   6.435   8.527   5.751 -1.0149 -0.3320  0.0749
 9631TIP3    H153088   6.486   8.547   5.829 -1.0756 -0.8701  0.2541
 9631TIP3    H253089   6.431   8.610   5.703 -2.1661  0.3758  1.3352
 9632TIP3   OH253090   5.800   8.957   6.100 -0.4465 -0.0376 -0.0205
 9632TIP3    H153091   5.751   9.039   6.107  1.4393  1.0892  0.5310
 9632TIP3    H253092   5.732   8.890   6.088 -2.0204  1.6168 -0.9212
 9633TIP3   OH253093   3.373   7.504   6.108  0.2869 -0.2038 -0.0289
 9633TIP3    H153094   3.338   7.556   6.035 -0.9656 -0.3106  0.4607
 9633TIP3    H253095   3.357   7.413   6.083  1.0835 -0.2923 -0.2138
 9634TIP3   OH253096   5.087   3.566   6.657  0.2943 -0.2891 -0.2208
 9634TIP3    H153097   5.093   3.658   6.629 -1.0135 -0.2919 -0.6003
 9634TIP3    H253098   4.993   3.551   6.667  0.5753 -1.1558  1.3711
 9635TIP3   OH253099   9.195   7.849   4.676 -0.3756  0.2523 -0.2271
 9635TIP3    H153100   9.167   7.925   4.727 -1.6151  0.1012 -0.6607
 9635TIP3    H253101   9.117   7.794   4.669  0.6915 -1.5313  0.8432
 9636TIP3   OH253102   8.375   3.801   5.853 -1.1791  0.6814  0.3641
 9636TIP3    H153103   8.358   3.871   5.790  0.8752  0.7595 -0.1837
 9636TIP3    H253104   8.471   3.796   5.857 -1.2856 -1.0218  1.6013
 9637TIP3   OH253105   8.430   4.462   6.001  0.0818 -0.1820  0.3401
 9637TIP3    H153106   8.462   4.528   5.939 -0.4292 -0.1107  0.1448
 9637TIP3    H253107   8.504   4.447   6.060  0.1854  0.5986  0.4169
 9638TIP3   OH253108   7.349   8.090   5.269 -0.3010  0.7131 -0.0236
 9638TIP3    H153109   7.416   8.026   5.294 -0.2051 -0.1596 -2.3243
 9638TIP3    H253110   7.396   8.174   5.268  0.7092  0.1641 -1.2551
 9639TIP3   OH253111   6.825   2.513   5.954  0.5457 -0.1019  0.0383
 9639TIP3    H153112   6.836   2.435   5.900  2.2160 -0.9740  1.5492
 9639TIP3    H253113   6.913   2.531   5.988 -0.0614  1.6671  0.7788
 9640TIP3   OH253114   5.479   5.959   5.701 -0.5624  0.2501  0.2059
 9640TIP3    H153115   5.557   6.005   5.730  0.8801 -1.2416 -1.1496
 9640TIP3    H253116   5.471   5.981   5.608 -0.2288 -1.6224 -0.3040
 9641TIP3   OH253117   2.902   6.520   4.983  0.2943 -0.6337  0.0635
 9641TIP3    H153118   2.814   6.525   4.945  0.1739 -0.8735  0.3133
 9641TIP3    H253119   2.946   6.598   4.948  0.4179 -1.2269 -1.1561
 9642TIP3   OH253120   2.971   8.419   6.017  0.7103 -0.5875 -0.5864
 9642TIP3    H153121   2.904   8.469   5.971  1.0244 -0.3147 -0.7445
 9642TIP3    H253122   2.929   8.335   6.037  0.4369 -0.5446 -0.9911
 9643TIP3   OH253123   6.875   5.068   5.293 -0.1918 -0.3734  0.3564
 9643TIP3    H153124   6.889   5.106   5.206 -2.0567 -0.0285  0.1524
 9643TIP3    H253125   6.836   5.139   5.344  0.3652 -0.7437  1.3162
 9644TIP3   OH253126   1.964   6.969   6.478 -0.0696  0.0579  0.8448
 9644TIP3    H153127   1.922   6.886   6.456 -0.3132  0.2147  0.7189
 9644TIP3    H253128   1.904   7.036   6.447  0.8474  0.2988 -0.4879
 9645TIP3   OH253129   6.285   3.406   6.176 -0.8617 -0.7391  0.0837
 9645TIP3    H153130   6.232   3.468   6.226 -0.3327 -0.9003  0.8708
 9645TIP3    H253131   6.269   3.322   6.218 -0.2024 -0.8348  0.1578
 9646TIP3   OH253132   2.710   7.369   5.574 -0.1969  0.3020  0.5150
 9646TIP3    H153133   2.646   7.315   5.621 -0.2285  0.2747  0.4422
 9646TIP3    H253134   2.786   7.372   5.631  0.1362 -0.5482  0.1394
 9647TIP3   OH253135   0.095   8.921   5.045  0.2790  0.3729  0.4904
 9647TIP3    H153136   0.184   8.894   5.070 -0.2510 -0.8146  1.1658
 9647TIP3    H253137   0.100   9.017   5.041  1.8889  0.2849 -0.6910
 9648TIP3   OH253138   3.634   4.854   5.650 -0.0789  0.4664 -0.0987
 9648TIP3    H153139   3.649   4.946   5.631  1.1352  0.1343 -0.8863
 9648TIP3    H253140   3.721   4.819   5.673 -0.3704 -0.6377 -0.5832
 9649TIP3   OH253141   7.268   0.780   5.357 -0.2202  0.5928 -0.1225
 9649TIP3    H153142   7.354   0.776   5.399  0.3088 -2.1040 -1.2860
 9649TIP3    H253143   7.208   0.797   5.430  1.0866  0.5009  1.0369
 9650TIP3   OH253144   6.936   1.473   6.684 -0.3654 -0.1870 -0.2157
 9650TIP3    H153145   6.977   1.534   6.745 -1.2913 -0.4753  0.7203
 9650TIP3    H253146   6.915   1.527   6.607  1.4244  0.0300 -0.6060
 9651TIP3   OH253147   3.134   6.620   6.451 -0.2629  0.3788  0.1366
 9651TIP3    H153148   3.222   6.600   6.484 -0.3360 -0.7737 -0.3238
 9651TIP3    H253149   3.097   6.679   6.517 -0.1492 -1.3101  1.8100
 9652TIP3   OH253150   5.908   3.435   6.014  0.4412  0.5834  0.0898
 9652TIP3    H153151   5.968   3.491   5.964  0.5258  0.1433 -0.3077
 9652TIP3    H253152   5.879   3.490   6.087  1.1827  0.8700  0.1808
 9653TIP3   OH253153   4.757   0.387   5.454  0.1138  0.1637  0.1136
 9653TIP3    H153154   4.805   0.318   5.500  0.1629 -0.1550 -0.4050
 9653TIP3    H253155   4.800   0.468   5.480  0.5740 -0.0733  0.1020
 9654TIP3   OH253156   6.996   0.262   6.983  0.2782  0.2518  0.4925
 9654TIP3    H153157   7.033   0.174   6.994  0.3385  0.4432  2.0318
 9654TIP3    H253158   7.061   0.309   6.933  0.3881 -0.4968 -0.0842
 9655TIP3   OH253159   3.163   5.445   5.274 -0.4428 -0.5722  0.3958
 9655TIP3    H153160   3.258   5.438   5.266 -0.4070  0.8815 -1.0210
 9655TIP3    H253161   3.148   5.535   5.304 -1.4024 -0.2635 -0.9192
 9656TIP3   OH253162   0.282   6.599   5.249  0.4952 -0.5756  0.1361
 9656TIP3    H153163   0.337   6.579   5.173  1.4805  1.5946  0.1891
 9656TIP3    H253164   0.264   6.692   5.242 -0.2478 -0.5223  2.0366
 9657TIP3   OH253165   7.786   3.513   5.650 -0.7020  0.3314 -0.3879
 9657TIP3    H153166   7.785   3.595   5.601  0.1468 -0.3485 -1.6330
 9657TIP3    H253167   7.875   3.479   5.638 -0.3949  0.2222  1.8462
 9658TIP3   OH253168   6.437   8.934   6.041 -0.6730 -0.2328 -0.2012
 9658TIP3    H153169   6.531   8.929   6.057 -0.7019  1.1027  0.6332
 9658TIP3    H253170   6.412   9.020   6.077 -2.2187 -0.6067 -0.3152
 9659TIP3   OH253171   2.513   0.698   5.309  0.3089 -0.3830  0.5331
 9659TIP3    H153172   2.463   0.694   5.390  0.9393  0.8809  1.0114
 9659TIP3    H253173   2.600   0.663   5.332  1.1947  1.9555  1.0208
 9660TIP3   OH253174   6.089   5.008   5.616 -0.5635  0.3497 -0.3652
 9660TIP3    H153175   6.048   4.925   5.640 -1.8348  0.8175 -0.8442
 9660TIP3    H253176   6.044   5.073   5.669 -0.5002  0.8882 -0.9569
 9661TIP3   OH253177   0.673   6.436   5.442 -0.0597 -0.2062  0.0049
 9661TIP3    H153178   0.591   6.388   5.434 -1.1093  1.0550  2.3640
 9661TIP3    H253179   0.711   6.407   5.524  2.3788 -1.3846 -1.4137
 9662TIP3   OH253180   0.757   4.185   4.793  0.1618  0.0266  0.2734
 9662TIP3    H153181   0.726   4.127   4.862  2.0221  0.1475  1.2501
 9662TIP3    H253182   0.701   4.263   4.800 -0.0889 -0.2314  1.2161
 9663TIP3   OH253183   5.986   3.659   5.646  0.0729 -0.0564 -0.2644
 9663TIP3    H153184   6.039   3.579   5.649 -0.2538 -0.2861 -0.6263
 9663TIP3    H253185   5.954   3.670   5.736 -1.3557 -1.3287 -0.5858
 9664TIP3   OH253186   0.081   4.065   5.506  0.1269  0.0640 -0.4982
 9664TIP3    H153187   0.157   4.122   5.521  0.9399 -1.2607  0.7565
 9664TIP3    H253188   0.050   4.044   5.594 -1.6589  0.4847 -0.9978
 9665TIP3   OH253189   1.261   8.504   5.603  0.2588  0.2721  0.4112
 9665TIP3    H153190   1.300   8.505   5.516  0.5331 -0.9576  0.5088
 9665TIP3    H253191   1.172   8.472   5.589  0.4305 -0.3089  0.6291
 9666TIP3   OH253192   8.125   0.818   5.268  0.4402 -0.1463  0.1540
 9666TIP3    H153193   8.211   0.858   5.254  0.5199  0.2177  1.5048
 9666TIP3    H253194   8.111   0.826   5.363 -1.1825  0.0037 -0.0806
 9667TIP3   OH253195   8.604   5.249   5.762  0.8833 -0.1943 -0.2465
 9667TIP3    H153196   8.643   5.268   5.847 -1.5816  0.0628  0.9049
 9667TIP3    H253197   8.637   5.163   5.739  2.0446 -0.0199  0.6788
 9668TIP3   OH253198   4.391   0.442   5.920 -0.0625  0.4276  0.2568
 9668TIP3    H153199   4.302   0.464   5.948 -0.3129  0.1192 -0.2738
 9668TIP3    H253200   4.397   0.477   5.831  0.0279 -0.3526 -0.0517
 9669TIP3   OH253201   1.387   2.219   5.863 -0.2219  1.3633  0.8032
 9669TIP3    H153202   1.473   2.248   5.893 -0.8328  2.4557  1.5609
 9669TIP3    H253203   1.364   2.147   5.920  1.9142 -1.8048 -1.9565
 9670TIP3   OH253204   8.710   8.160   6.761  1.1316  0.4071  0.0582
 9670TIP3    H153205   8.755   8.085   6.722 -0.6303 -0.8980  0.4186
 9670TIP3    H253206   8.702   8.138   6.854  2.6051  2.1233  0.6660
 9671TIP3   OH253207   4.856   6.858   5.537 -0.1644 -0.3904 -0.6076
 9671TIP3    H153208   4.860   6.823   5.626  0.5886 -0.1237 -0.5289
 9671TIP3    H253209   4.872   6.782   5.481  1.0229 -0.2839 -0.4501
 9672TIP3   OH253210   3.184   0.699   6.569  0.9126 -0.3399 -0.3276
 9672TIP3    H153211   3.161   0.789   6.547  2.0046 -0.3518 -1.6240
 9672TIP3    H253212   3.124   0.646   6.517  0.7215 -0.3759 -0.0758
 9673TIP3   OH253213   3.044   1.016   5.569  0.0917  0.0240 -0.3452
 9673TIP3    H153214   3.082   1.092   5.613  0.4527  0.5472 -1.5280
 9673TIP3    H253215   3.118   0.973   5.527 -0.4157  0.2727 -1.5208
 9674TIP3   OH253216   4.152   3.326   5.441 -0.9937  0.0675 -0.3359
 9674TIP3    H153217   4.209   3.265   5.394  0.8202  1.0869  0.4528
 9674TIP3    H253218   4.145   3.402   5.383  0.4221  0.9120  0.5524
 9675TIP3   OH253219   8.980   2.641   5.258 -0.1743  0.0477 -0.4566
 9675TIP3    H153220   9.059   2.680   5.220 -0.1776  0.7283  0.1967
 9675TIP3    H253221   8.960   2.566   5.202  1.2531 -0.4725 -0.3096
 9676TIP3   OH253222   6.717   9.175   5.434  0.2418  0.1155 -0.0678
 9676TIP3    H153223   6.806   9.202   5.413  0.0444  0.1647 -0.8779
 9676TIP3    H253224   6.661   9.227   5.377 -0.3513  0.5038  0.8438
 9677TIP3   OH253225   1.637   2.331   5.928 -0.1006 -0.0346 -0.1790
 9677TIP3    H153226   1.705   2.369   5.873 -0.3271  0.6344 -0.0097
 9677TIP3    H253227   1.656   2.364   6.016  0.8132 -1.8418  0.3493
 9678TIP3   OH253228   6.506   7.849   6.297 -0.5764 -0.1143 -0.6556
 9678TIP3    H153229   6.469   7.906   6.365  0.8117 -0.8228  0.7612
 9678TIP3    H253230   6.585   7.893   6.268 -0.5679 -0.3568 -1.0114
 9679TIP3   OH253231   7.755   2.903   5.312  0.1869 -0.1467 -0.3026
 9679TIP3    H153232   7.752   2.820   5.359  1.5508  0.2279  0.4972
 9679TIP3    H253233   7.848   2.919   5.297 -0.1239  0.6615 -1.5034
 9680TIP3   OH253234   8.690   6.704   6.111  0.5138  0.2444 -0.5325
 9680TIP3    H153235   8.766   6.678   6.059  1.7478  0.6315  1.0226
 9680TIP3    H253236   8.726   6.749   6.187 -1.2365 -0.0596  0.5525
 9681TIP3   OH253237   1.011   4.052   6.745  0.4133 -0.5237  0.0340
 9681TIP3    H153238   1.015   4.137   6.702 -2.0518 -0.4943 -0.2570
 9681TIP3    H253239   1.086   4.052   6.805  0.3789  1.9107  0.1640
 9682TIP3   OH253240   4.399   3.875   5.060 -0.5818 -0.2351 -0.0349
 9682TIP3    H153241   4.327   3.928   5.026 -1.2624 -1.2789 -0.2775
 9682TIP3    H253242   4.446   3.933   5.120  0.0235  1.3468 -1.9234
 9683TIP3   OH253243   3.591   7.183   4.943 -0.4265  0.5826  0.1599
 9683TIP3    H153244   3.614   7.229   5.024 -2.0466 -0.6317  1.3783
 9683TIP3    H253245   3.674   7.147   4.911  0.3550  1.7076  0.8694
 9684TIP3   OH253246   5.782   9.055   5.680  0.2996  0.3264 -0.5398
 9684TIP3    H153247   5.726   8.986   5.715  2.5569 -1.0280  0.6091
 9684TIP3    H253248   5.853   9.009   5.635  2.7968  1.6958  1.6855
 9685TIP3   OH253249   9.093   2.955   5.035  0.7557  0.1782  0.0552
 9685TIP3    H153250   9.011   2.984   5.076 -0.0107 -1.0792 -0.5429
 9685TIP3    H253251   9.128   2.889   5.095  0.3025 -0.7110 -0.6293
 9686TIP3   OH253252   6.482   0.489   5.224  0.5063  0.0380  0.3647
 9686TIP3    H153253   6.550   0.540   5.179 -0.2133  0.6088 -0.0901
 9686TIP3    H253254   6.418   0.554   5.253  0.1174 -0.5012  0.7434
 9687TIP3   OH253255   1.329   8.745   6.285 -0.6668 -0.0786 -0.3623
 9687TIP3    H153256   1.419   8.735   6.317 -0.2115  1.5040 -1.0215
 9687TIP3    H253257   1.297   8.656   6.274  1.2878 -0.7196 -1.3464
 9688TIP3   OH253258   3.001   2.846   5.191 -0.7817  0.0565  0.1996
 9688TIP3    H153259   3.013   2.818   5.282 -1.9267  0.7633  0.5826
 9688TIP3    H253260   2.925   2.796   5.160 -1.4512  1.0555  0.1839
 9689TIP3   OH253261   2.216   7.421   6.380 -0.5931 -0.0284  0.0859
 9689TIP3    H153262   2.241   7.351   6.439  0.8623 -0.0991 -0.5875
 9689TIP3    H253263   2.270   7.496   6.407  0.4756 -0.2090 -1.4509
 9690TIP3   OH253264   1.132   6.986   6.382 -0.3952  0.5399  0.4595
 9690TIP3    H153265   1.129   6.918   6.315  0.4895  1.3425 -0.4285
 9690TIP3    H253266   1.167   6.942   6.460  0.0277 -0.0646 -0.0625
 9691TIP3   OH253267   5.608   0.666   5.140 -0.2920  0.2486  0.3869
 9691TIP3    H153268   5.592   0.630   5.227 -0.5450 -0.0910  0.1986
 9691TIP3    H253269   5.694   0.708   5.148 -0.7997  1.1946  1.1075
 9692TIP3   OH253270   3.523   1.095   5.177 -0.3339 -0.1431 -0.2104
 9692TIP3    H153271   3.532   1.124   5.268 -1.2776  0.7257 -0.3755
 9692TIP3    H253272   3.564   1.165   5.126 -3.7300  1.7126 -0.6967
 9693TIP3   OH253273   0.362   0.224   5.347 -0.2918  0.0728  0.1389
 9693TIP3    H153274   0.374   0.311   5.310 -0.3168 -0.6192 -1.5991
 9693TIP3    H253275   0.283   0.230   5.400 -0.0164  1.2232  0.4303
 9694TIP3   OH253276   6.323   6.262   6.138  0.0430  0.2537  0.4151
 9694TIP3    H153277   6.383   6.282   6.209  0.4558  1.4038 -0.2280
 9694TIP3    H253278   6.362   6.304   6.061 -0.9130 -0.0895 -0.2796
 9695TIP3   OH253279   6.697   1.264   6.783 -0.1719  0.4070 -0.3571
 9695TIP3    H153280   6.737   1.350   6.786  0.1976  0.2075  0.9185
 9695TIP3    H253281   6.607   1.280   6.753  0.5466  0.9493 -2.3532
 9696TIP3   OH253282   6.290   7.798   6.098  0.5929  0.0038  0.0568
 9696TIP3    H153283   6.353   7.837   6.158  0.5835 -1.9716  1.4334
 9696TIP3    H253284   6.338   7.728   6.054  0.3482  0.8442 -1.6490
 9697TIP3   OH253285   8.462   7.150   6.385 -0.4551  0.4952  0.4753
 9697TIP3    H153286   8.459   7.210   6.311  0.1276  2.1432  1.7027
 9697TIP3    H253287   8.550   7.160   6.421 -0.7418 -0.1993  1.4253
 9698TIP3   OH253288   8.659   8.995   4.707 -0.3545  0.2388  0.0980
 9698TIP3    H153289   8.617   9.077   4.680  0.2526  0.5784  0.1539
 9698TIP3    H253290   8.684   9.009   4.798  2.2064  1.0735 -0.6277
 9699TIP3   OH253291   3.717   5.308   6.095  0.8972 -0.5612 -0.6354
 9699TIP3    H153292   3.739   5.222   6.061  2.6151 -0.1507 -0.6783
 9699TIP3    H253293   3.674   5.353   6.022 -2.0727 -2.0571  0.0596
 9700TIP3   OH253294   8.023   4.651   6.617 -0.5681 -0.2499 -0.2663
 9700TIP3    H153295   7.954   4.609   6.565  0.9968 -1.7863 -1.1861
 9700TIP3    H253296   8.092   4.586   6.623  1.0048  1.3889  0.2925
 9701TIP3   OH253297   8.572   4.766   5.387 -0.3003  0.1261 -0.4324
 9701TIP3    H153298   8.543   4.676   5.381  0.3773 -0.2207  0.9287
 9701TIP3    H253299   8.508   4.808   5.445  0.1667  0.1495  0.0727
 9702TIP3   OH253300   5.430   3.989   5.713 -0.2936 -0.5208 -0.3673
 9702TIP3    H153301   5.465   4.076   5.735  0.3270 -0.4982 -1.3706
 9702TIP3    H253302   5.375   4.004   5.636 -0.3551 -0.9778 -0.4161
 9703TIP3   OH253303   8.417   6.913   5.990 -0.1670  0.1485  0.0256
 9703TIP3    H153304   8.405   6.923   6.085 -0.9448 -0.0307 -0.0497
 9703TIP3    H253305   8.391   6.998   5.954  2.7686  1.2386  0.1556
 9704TIP3   OH253306   3.372   2.080   5.574 -0.0786  0.4562 -0.0045
 9704TIP3    H153307   3.466   2.076   5.594 -0.0495  0.8963 -0.0450
 9704TIP3    H253308   3.343   1.989   5.576  0.0983  0.4169  1.1785
 9705TIP3   OH253309   5.247   2.171   5.460 -0.2057 -0.3255 -0.3253
 9705TIP3    H153310   5.296   2.222   5.525  0.9223 -0.0150 -1.3928
 9705TIP3    H253311   5.239   2.084   5.501  1.1492 -0.3555 -0.0582
 9706TIP3   OH253312   3.855   2.701   7.046  0.0846  0.3168 -0.0572
 9706TIP3    H153313   3.933   2.728   7.094  0.5430  1.7164 -1.4933
 9706TIP3    H253314   3.873   2.727   6.955 -1.8384  0.1750 -0.5161
 9707TIP3   OH253315   2.556   5.976   6.446 -0.0951 -0.6969  0.3492
 9707TIP3    H153316   2.503   5.943   6.373  0.2442  0.4381 -0.4249
 9707TIP3    H253317   2.516   5.936   6.523 -3.1968  1.3598  0.0165
 9708TIP3   OH253318   8.732   5.402   6.459 -0.5317 -0.3038  0.2453
 9708TIP3    H153319   8.683   5.463   6.403 -0.2129  0.6516  0.9865
 9708TIP3    H253320   8.790   5.356   6.399 -0.9123 -0.0067 -0.3595
 9709TIP3   OH253321   1.166   2.461   4.827 -0.1517 -0.3017 -0.3388
 9709TIP3    H153322   1.101   2.466   4.757  1.9804  1.2886 -2.3905
 9709TIP3    H253323   1.201   2.550   4.833  1.4692 -0.9775  0.9967
 9710TIP3   OH253324   6.844   6.672   5.981 -0.1926  0.3462 -0.7391
 9710TIP3    H153325   6.897   6.634   6.051  0.8598  0.6619 -1.3464
 9710TIP3    H253326   6.823   6.598   5.924 -0.8086  0.1405 -0.2575
 9711TIP3   OH253327   0.761   8.889   7.332  0.0200 -0.3697  0.4957
 9711TIP3    H153328   0.692   8.824   7.348 -0.6558  0.1413 -0.2069
 9711TIP3    H253329   0.730   8.967   7.377 -0.5500  0.2580 -0.9133
 9712TIP3   OH253330   0.172   5.657   5.732  0.2365  0.0044 -0.2704
 9712TIP3    H153331   0.215   5.708   5.664  1.1179  2.1643  1.7752
 9712TIP3    H253332   0.241   5.603   5.769  0.4226  0.8361  0.6472
 9713TIP3   OH253333   8.110   1.168   7.112 -0.3653 -0.2407  0.2092
 9713TIP3    H153334   8.096   1.229   7.039  1.0205 -0.6478 -0.4417
 9713TIP3    H253335   8.197   1.191   7.145  0.4477 -2.2359 -0.4409
 9714TIP3   OH253336   6.406   1.335   6.367 -0.0331 -0.5939 -0.9970
 9714TIP3    H153337   6.431   1.245   6.349  0.3793 -0.6220 -0.2878
 9714TIP3    H253338   6.336   1.329   6.432  0.7815 -0.3754 -0.0704
 9715TIP3   OH253339   8.204   2.576   5.932  0.0308  0.4529  0.2085
 9715TIP3    H153340   8.250   2.516   5.990  0.2593  0.1040 -0.3222
 9715TIP3    H253341   8.265   2.591   5.860 -0.3907  0.5798 -0.1281
 9716TIP3   OH253342   2.567   4.146   5.028 -0.0377 -0.3086 -0.1505
 9716TIP3    H153343   2.494   4.206   5.043 -0.2435 -0.8407  1.1225
 9716TIP3    H253344   2.546   4.070   5.081  0.9050 -0.9357 -0.6555
 9717TIP3   OH253345   1.353   2.295   6.914  0.0243 -0.4978 -0.1471
 9717TIP3    H153346   1.424   2.232   6.905  1.6939  1.3246 -0.3874
 9717TIP3    H253347   1.392   2.379   6.890 -1.8414  0.7926  1.0649
 9718TIP3   OH253348   4.353   3.467   6.879 -0.4634 -0.1929 -0.2304
 9718TIP3    H153349   4.338   3.537   6.816 -0.2894 -0.6483 -0.7859
 9718TIP3    H253350   4.274   3.467   6.934 -0.5272  0.3379 -0.3144
 9719TIP3   OH253351   0.213   1.461   5.820  0.1997  0.3000  0.6228
 9719TIP3    H153352   0.236   1.551   5.841 -0.3915  0.6733 -0.2506
 9719TIP3    H253353   0.250   1.446   5.733 -0.2850 -0.0669  0.4704
 9720TIP3   OH253354   5.840   8.086   6.236  0.0591 -0.1659 -0.1857
 9720TIP3    H153355   5.852   7.998   6.199  1.6934  0.6775 -1.8307
 9720TIP3    H253356   5.807   8.138   6.163 -3.2428  0.1412  1.3844
 9721TIP3   OH253357   9.185   2.432   5.052 -0.0086  0.4938 -0.6245
 9721TIP3    H153358   9.240   2.504   5.021  0.8816  0.3956  0.6669
 9721TIP3    H253359   9.221   2.354   5.009 -1.4135  0.8398 -2.5867
 9722TIP3   OH253360   2.455   7.833   4.837 -0.4215  0.0798 -0.0867
 9722TIP3    H153361   2.521   7.802   4.899 -0.5193 -3.3557 -1.5135
 9722TIP3    H253362   2.391   7.762   4.831 -1.6468  1.2471 -2.3952
 9723TIP3   OH253363   4.206   2.624   5.462 -0.1144  0.4773 -0.1841
 9723TIP3    H153364   4.300   2.644   5.457 -0.5124  2.8919  0.4880
 9723TIP3    H253365   4.201   2.541   5.510  1.6572  0.5571  0.2062
 9724TIP3   OH253366   3.578   5.887   5.726  0.0788 -0.4432  0.0278
 9724TIP3    H153367   3.580   5.954   5.658 -0.8021 -0.4617 -0.0263
 9724TIP3    H253368   3.546   5.808   5.682  0.6954 -0.7874  0.1876
 9725TIP3   OH253369   2.947   2.162   5.263 -0.2695 -0.5828 -0.2051
 9725TIP3    H153370   3.026   2.143   5.313  0.0339 -1.1495 -0.8846
 9725TIP3    H253371   2.949   2.257   5.250  1.2149 -0.7705 -1.6763
 9726TIP3   OH253372   6.439   5.085   4.897 -0.3846  0.6707  0.3456
 9726TIP3    H153373   6.371   5.152   4.903  0.1550  1.2576  0.0361
 9726TIP3    H253374   6.396   5.004   4.926 -0.9298  1.2239  1.1272
 9727TIP3   OH253375   2.765   4.174   5.593  0.3845 -0.1361 -0.0121
 9727TIP3    H153376   2.709   4.173   5.671 -0.4633 -1.0707 -0.6102
 9727TIP3    H253377   2.730   4.104   5.538  2.4968 -1.1319 -0.1701
 9728TIP3   OH253378   4.159   6.963   6.617  0.0919  0.9090  0.0987
 9728TIP3    H153379   4.238   6.918   6.587  0.2155  1.4540 -0.4178
 9728TIP3    H253380   4.191   7.028   6.679  0.1511  1.6524 -0.6878
 9729TIP3   OH253381   5.764   8.032   5.563  0.3775  0.1651  0.1381
 9729TIP3    H153382   5.854   8.064   5.575  0.5243 -0.0701 -0.3148
 9729TIP3    H253383   5.757   8.015   5.469  0.1086 -0.5787  0.2923
 9730TIP3   OH253384   0.482   4.527   5.237  0.1662 -0.6306  0.8710
 9730TIP3    H153385   0.471   4.432   5.243  2.3102 -0.9969 -0.1500
 9730TIP3    H253386   0.576   4.541   5.246  0.0376  1.2880 -0.3022
 9731TIP3   OH253387   2.886   0.259   5.769  0.1284 -0.0210  0.1344
 9731TIP3    H153388   2.901   0.166   5.788 -1.0732 -0.2500  0.0293
 9731TIP3    H253389   2.871   0.298   5.855 -1.7373 -0.3889  0.0110
 9732TIP3   OH253390   7.764   3.560   5.157 -0.5395 -0.4556 -0.7063
 9732TIP3    H153391   7.819   3.529   5.084 -0.7677 -0.6626 -0.7911
 9732TIP3    H253392   7.739   3.649   5.133  0.1932 -0.1651 -0.4206
 9733TIP3   OH253393   2.719   1.558   5.789  0.0677  0.1754  0.1169
 9733TIP3    H153394   2.768   1.477   5.801  0.9632  0.2568 -2.3768
 9733TIP3    H253395   2.776   1.614   5.736 -1.1980  1.7954  0.3608
 9734TIP3   OH253396   7.831   0.403   5.138 -0.2738  0.1913  0.2315
 9734TIP3    H153397   7.813   0.370   5.050  3.6187 -1.5860 -0.1129
 9734TIP3    H253398   7.919   0.439   5.133  1.0385 -1.9715  3.8207
 9735TIP3   OH253399   2.437   4.538   5.990  0.0273 -0.1370  0.2218
 9735TIP3    H153400   2.493   4.485   5.933 -0.0897 -0.0009 -0.0185
 9735TIP3    H253401   2.427   4.621   5.943 -1.5330 -0.6535 -0.3920
 9736TIP3   OH253402   7.907   4.608   5.389  0.2420 -0.2756 -0.3540
 9736TIP3    H153403   7.890   4.699   5.363 -0.4631 -0.2505  0.1911
 9736TIP3    H253404   7.999   4.594   5.366  1.4089  1.6419  2.6118
 9737TIP3   OH253405   6.326   6.584   6.666 -0.3763 -0.2970  0.3479
 9737TIP3    H153406   6.264   6.652   6.637 -0.3018 -0.3553  0.0412
 9737TIP3    H253407   6.318   6.583   6.761  1.0480  1.5411  0.5569
 9738TIP3   OH253408   1.464   7.307   4.647 -0.0712 -0.1771  0.0296
 9738TIP3    H153409   1.437   7.220   4.617 -0.3316  0.4036 -1.5332
 9738TIP3    H253410   1.390   7.339   4.698 -1.2800  0.2751 -1.8796
 9739TIP3   OH253411   0.843   0.449   6.599  1.1465  0.0593  0.2878
 9739TIP3    H153412   0.794   0.371   6.624  0.6565  0.4415  0.5319
 9739TIP3    H253413   0.904   0.419   6.533 -0.8058 -0.0599 -1.5606
 9740TIP3   OH253414   2.073   2.869   5.197 -0.1583 -0.3220 -0.2490
 9740TIP3    H153415   2.041   2.824   5.274 -1.8064  0.0729 -0.6658
 9740TIP3    H253416   1.996   2.880   5.141  0.5099  1.4533 -0.9234
 9741TIP3   OH253417   1.847   8.709   6.461 -0.4799  0.5255  0.2449
 9741TIP3    H153418   1.903   8.780   6.491  0.3073 -0.1491  0.4188
 9741TIP3    H253419   1.908   8.637   6.443 -1.4313 -0.9246  2.4065
 9742TIP3   OH253420   0.076   9.098   6.110 -0.3614  1.0207  0.0888
 9742TIP3    H153421   0.048   9.178   6.067 -0.3529  0.4363 -1.0476
 9742TIP3    H253422   0.000   9.040   6.105 -0.7101  1.2967  1.8157
 9743TIP3   OH253423   5.731   8.840   5.383  0.5184  0.2200 -0.2536
 9743TIP3    H153424   5.769   8.779   5.446 -1.3280 -0.0681  0.6609
 9743TIP3    H253425   5.637   8.835   5.399  0.1413  1.5558 -1.7855
 9744TIP3   OH253426   6.656   0.420   5.416 -0.2361 -0.2846  0.1374
 9744TIP3    H153427   6.613   0.448   5.335 -0.8460 -0.5145  0.3761
 9744TIP3    H253428   6.742   0.463   5.413  0.1309 -1.0242 -1.0743
 9745TIP3   OH253429   0.342   1.875   6.606 -0.3162  0.1154  0.2387
 9745TIP3    H153430   0.297   1.802   6.564  0.5040 -0.1653 -0.1672
 9745TIP3    H253431   0.314   1.872   6.697  0.0048 -0.9389  0.3103
 9746TIP3   OH253432   3.945   0.331   7.050 -0.3157  0.4242 -0.0868
 9746TIP3    H153433   3.918   0.245   7.081  1.7227 -0.7391 -1.2722
 9746TIP3    H253434   3.872   0.361   6.995 -1.1831 -0.3899  0.5962
 9747TIP3   OH253435   4.079   8.543   6.442 -0.3634  0.0626  0.0126
 9747TIP3    H153436   4.102   8.481   6.373 -1.0135  0.1745 -0.3115
 9747TIP3    H253437   4.009   8.499   6.491 -1.5404  0.9441 -0.8364
 9748TIP3   OH253438   1.002   4.687   5.640  0.2041  0.1051  0.3949
 9748TIP3    H153439   1.050   4.662   5.560  1.1878 -0.4703  1.1427
 9748TIP3    H253440   0.944   4.612   5.657 -0.3444  0.4227 -0.0118
 9749TIP3   OH253441   1.292   0.879   5.732  0.0871  0.2851 -0.3121
 9749TIP3    H153442   1.324   0.947   5.792  0.7192 -1.2933  1.2284
 9749TIP3    H253443   1.340   0.895   5.651  1.5551  0.6352  0.5819
 9750TIP3   OH253444   6.899   2.872   5.082  0.1447  0.5240 -0.3955
 9750TIP3    H153445   6.929   2.933   5.015 -0.0589  1.5170  0.3939
 9750TIP3    H253446   6.945   2.899   5.161 -1.3048  0.8129  0.3823
 9751TIP3   OH253447   8.815   5.993   6.611  0.3898  0.3233  1.0484
 9751TIP3    H153448   8.754   5.921   6.629 -1.0173  1.4051  0.8237
 9751TIP3    H253449   8.880   5.988   6.681  1.4602 -2.3003 -0.0135
 9752TIP3   OH253450   7.575   0.925   6.619  0.9080 -0.1357  0.0655
 9752TIP3    H153451   7.599   1.012   6.649 -1.3386  0.6491 -0.2299
 9752TIP3    H253452   7.611   0.866   6.686  1.2451  1.1105  1.0244
 9753TIP3   OH253453   1.263   6.553   5.403  0.0577  0.1027  0.2689
 9753TIP3    H153454   1.255   6.599   5.487  3.5421 -0.3957  1.0065
 9753TIP3    H253455   1.289   6.464   5.427 -0.8202 -0.6310 -1.3438
 9754TIP3   OH253456   9.092   8.522   5.168  0.1749 -0.1349  0.4961
 9754TIP3    H153457   9.180   8.557   5.154 -0.1424  0.0629 -1.1609
 9754TIP3    H253458   9.039   8.599   5.189 -0.3336  0.3563 -2.2476
 9755TIP3   OH253459   5.677   7.268   6.634  0.4531  0.0148  0.7074
 9755TIP3    H153460   5.719   7.184   6.615  1.5104  0.5472  0.5946
 9755TIP3    H253461   5.721   7.299   6.714 -0.0208  0.3905  0.8243
 9756TIP3   OH253462   4.034   1.301   5.183  0.0519 -0.1226 -0.8055
 9756TIP3    H153463   3.992   1.277   5.266  1.6431 -2.0118 -0.4752
 9756TIP3    H253464   4.128   1.302   5.203  0.5678 -1.7493 -2.8152
 9757TIP3   OH253465   3.431   0.140   5.511 -0.0783  0.2558  0.4191
 9757TIP3    H153466   3.501   0.145   5.575  0.2596  0.5591  0.0324
 9757TIP3    H253467   3.353   0.117   5.562 -0.1089  1.8436  1.1629
 9758TIP3   OH253468   2.202   6.080   6.286 -0.4839  0.3074 -0.7733
 9758TIP3    H153469   2.275   6.142   6.297 -0.8215  0.3474  2.0511
 9758TIP3    H253470   2.245   5.997   6.266 -0.0416  1.3572 -5.0606
 9759TIP3   OH253471   3.487   7.278   6.288  0.2228 -0.0271 -0.7223
 9759TIP3    H153472   3.465   7.221   6.214 -0.7558  2.5521 -2.5659
 9759TIP3    H253473   3.441   7.360   6.270  1.3902  1.3256  1.8741
 9760TIP3   OH253474   3.778   5.702   5.459 -0.3065 -0.9926 -0.0444
 9760TIP3    H153475   3.858   5.656   5.434  0.1595  0.8820 -2.3300
 9760TIP3    H253476   3.715   5.680   5.391 -0.9579 -0.4842  0.3734
 9761TIP3   OH253477   1.140   4.727   5.002 -0.3857  0.6887  0.4532
 9761TIP3    H153478   1.106   4.649   4.957  2.0235 -0.5591  0.6181
 9761TIP3    H253479   1.089   4.800   4.966 -2.0952 -0.8382 -0.3888
 9762TIP3   OH253480   2.700   5.565   5.250  0.0323  0.2039  0.8737
 9762TIP3    H153481   2.765   5.503   5.216  0.6016  0.0872  2.1363
 9762TIP3    H253482   2.667   5.609   5.171  0.5794 -0.7544  0.0771
 9763TIP3   OH253483   1.214   4.383   5.789 -0.2199 -0.4438 -0.2849
 9763TIP3    H153484   1.237   4.476   5.803 -1.8532 -0.0582 -0.0134
 9763TIP3    H253485   1.250   4.362   5.703  0.3344  0.3764 -0.2681
 9764TIP3   OH253486   6.994   6.621   6.229 -0.0136 -0.2771  0.7450
 9764TIP3    H153487   6.970   6.704   6.270  0.8091  0.0130  0.6456
 9764TIP3    H253488   7.065   6.587   6.283  0.1645 -0.5502  0.3398
 9765TIP3   OH253489   8.401   7.685   6.731 -0.3140  0.6557  0.5549
 9765TIP3    H153490   8.407   7.763   6.787  0.3762 -0.2459  1.8049
 9765TIP3    H253491   8.342   7.626   6.778 -0.7193  0.3533 -0.3092
 9766TIP3   OH253492   6.848   2.233   6.541 -0.4155  0.4476  0.2351
 9766TIP3    H153493   6.824   2.178   6.616  0.8023  0.2584  0.5009
 9766TIP3    H253494   6.862   2.320   6.579  0.1456  0.3640  0.2300
 9767TIP3   OH253495   0.387   2.592   5.753 -0.2671 -0.2272  0.3021
 9767TIP3    H153496   0.393   2.627   5.842 -0.0785 -1.8521  0.9515
 9767TIP3    H253497   0.470   2.617   5.712  0.9407 -1.9722  1.5611
 9768TIP3   OH253498   2.928   9.044   4.766 -0.2177 -0.3520 -0.3057
 9768TIP3    H153499   2.841   9.006   4.775  0.2931 -1.6657 -0.6904
 9768TIP3    H253500   2.966   9.000   4.690  0.4131  0.9530 -0.7895
 9769TIP3   OH253501   6.648   1.793   6.606  0.8833 -0.0778 -0.2243
 9769TIP3    H153502   6.624   1.701   6.592 -0.2392  0.2105 -0.2730
 9769TIP3    H253503   6.645   1.832   6.519  0.3633  0.2246 -0.0781
 9770TIP3   OH253504   8.147   3.618   5.830  0.6864 -0.1900 -0.1033
 9770TIP3    H153505   8.229   3.668   5.834  1.5670 -1.2525 -2.6345
 9770TIP3    H253506   8.175   3.527   5.814 -0.9521 -0.6454 -0.6132
 9771TIP3   OH253507   7.954   3.899   5.586  0.1976 -0.1541  0.2069
 9771TIP3    H153508   7.995   3.881   5.501  1.4831  1.9374  0.3110
 9771TIP3    H253509   7.870   3.854   5.582  0.8505 -1.3309 -1.5828
 9772TIP3   OH253510   5.467   3.328   5.759 -0.2740 -0.0190  0.0055
 9772TIP3    H153511   5.491   3.264   5.826  1.4227  1.8280  1.2936
 9772TIP3    H253512   5.373   3.342   5.772 -0.7024 -2.2188 -0.3566
 9773TIP3   OH253513   4.239   3.648   6.711 -0.8407 -0.5077  0.0088
 9773TIP3    H153514   4.174   3.713   6.734 -0.2926  0.4549 -1.0345
 9773TIP3    H253515   4.249   3.657   6.616  2.4893  1.0710  0.3707
 9774TIP3   OH253516   0.176   8.299   5.634  0.3782 -0.0280 -0.0109
 9774TIP3    H153517   0.131   8.335   5.711  0.5446  0.6577 -0.2246
 9774TIP3    H253518   0.140   8.348   5.560  0.1393 -0.7620 -0.3865
 9775TIP3   OH253519   8.810   3.414   5.271 -0.5545 -0.0860 -0.0865
 9775TIP3    H153520   8.765   3.481   5.322  0.9564  0.5130  0.5358
 9775TIP3    H253521   8.897   3.451   5.255  0.1081 -1.6384 -0.2771
 9776TIP3   OH253522   8.971   4.621   6.103 -0.0404 -0.4857  0.0249
 9776TIP3    H153523   8.934   4.681   6.038 -0.4718 -2.1348 -1.3396
 9776TIP3    H253524   8.970   4.670   6.185 -4.1075  0.0680 -0.1458
 9777TIP3   OH253525   4.284   2.357   5.574 -0.4159  0.1412  0.0809
 9777TIP3    H153526   4.344   2.383   5.644 -1.3939 -0.9195  1.3715
 9777TIP3    H253527   4.342   2.337   5.500  0.8420 -0.6513  1.2129
 9778TIP3   OH253528   8.618   3.054   5.528  0.1106 -0.3839 -0.2532
 9778TIP3    H153529   8.609   3.123   5.462 -0.0007  1.9857  2.0730
 9778TIP3    H253530   8.641   2.976   5.478 -0.2741  1.1889 -3.0951
 9779TIP3   OH253531   4.916   7.823   6.351  0.1548  0.3127 -0.7747
 9779TIP3    H153532   4.846   7.876   6.391  0.3644  1.3542 -1.7506
 9779TIP3    H253533   4.901   7.735   6.386  0.7582  1.2617  2.1861
 9780TIP3   OH253534   2.659   5.581   6.324  0.1577  0.5012  0.1422
 9780TIP3    H153535   2.678   5.488   6.337  0.2962  0.3474 -0.9836
 9780TIP3    H253536   2.581   5.598   6.376 -0.6281 -0.5687 -0.6415
 9781TIP3   OH253537   1.385   0.117   6.075  0.6397 -0.2567  1.0810
 9781TIP3    H153538   1.323   0.079   6.013  0.9012  2.5305 -1.1123
 9781TIP3    H253539   1.463   0.062   6.070  1.3482  0.8064 -2.6187
 9782TIP3   OH253540   9.165   0.949   6.191 -0.3066  0.4171  0.5768
 9782TIP3    H153541   9.090   0.891   6.181 -0.6370  0.8797  0.3461
 9782TIP3    H253542   9.132   1.035   6.168  0.3834  0.5748  0.1446
 9783TIP3   OH253543   6.611   0.884   5.414 -0.2328 -0.8298 -0.2989
 9783TIP3    H153544   6.608   0.940   5.492  0.6090  0.2267 -0.9907
 9783TIP3    H253545   6.598   0.795   5.447 -0.6673 -0.3205  0.9429
 9784TIP3   OH253546   6.027   5.587   5.571 -0.7384  1.3457 -0.4973
 9784TIP3    H153547   6.090   5.527   5.530  0.9317  1.2834  1.9867
 9784TIP3    H253548   6.081   5.656   5.609 -2.3885  2.5540 -0.2287
 9785TIP3   OH253549   0.097   4.087   5.790 -0.6731  0.0969 -0.2636
 9785TIP3    H153550   0.034   4.154   5.763 -0.7785  1.2576  2.5408
 9785TIP3    H253551   0.146   4.127   5.861  0.3349 -2.3076  0.5051
 9786TIP3   OH253552   3.078   5.205   5.357 -0.7908  0.7477 -0.9088
 9786TIP3    H153553   3.081   5.172   5.267 -1.3580  0.3251 -0.7805
 9786TIP3    H253554   3.100   5.298   5.349  0.4045  0.4456 -1.3215
 9787TIP3   OH253555   0.697   5.903   5.113  0.3284 -0.1253 -0.2023
 9787TIP3    H153556   0.704   5.809   5.097 -0.4884 -0.6709  2.2849
 9787TIP3    H253557   0.609   5.926   5.085 -0.1416 -0.5192  0.9044
 9788TIP3   OH253558   0.865   6.038   4.929 -0.1462  0.2001 -0.3134
 9788TIP3    H153559   0.795   5.996   4.979  0.0702  0.8407  0.5506
 9788TIP3    H253560   0.857   6.131   4.951  0.2104  0.4439 -1.1645
 9789TIP3   OH253561   7.374   6.202   6.781  0.0599  0.2342  0.2089
 9789TIP3    H153562   7.286   6.241   6.782 -0.1603 -0.2606  0.3072
 9789TIP3    H253563   7.368   6.131   6.717 -0.4249 -1.6529  2.2622
 9790TIP3   OH253564   8.935   2.627   4.832 -0.0428 -0.1819  0.3037
 9790TIP3    H153565   9.022   2.590   4.848 -0.4206 -0.5587  1.6202
 9790TIP3    H253566   8.951   2.722   4.827  0.1795 -0.0030  2.9942
 9791TIP3   OH253567   9.108   1.605   5.526 -0.2796  0.0634  0.4387
 9791TIP3    H153568   9.085   1.666   5.456 -1.7487  0.7611  1.4900
 9791TIP3    H253569   9.189   1.641   5.562  1.8247 -1.5470 -2.2724
 9792TIP3   OH253570   2.374   4.756   5.807  0.1999  0.1720 -0.2828
 9792TIP3    H153571   2.283   4.778   5.827 -0.1899 -2.7161  1.6956
 9792TIP3    H253572   2.384   4.776   5.714 -2.4715  0.5240 -0.5619
 9793TIP3   OH253573   4.140   1.645   5.803  0.1838 -0.2441  0.2262
 9793TIP3    H153574   4.055   1.665   5.765  0.8783  2.3619 -0.1623
 9793TIP3    H253575   4.175   1.730   5.829  2.4027 -1.3022  0.9497
 9794TIP3   OH253576   7.799   4.129   5.546 -0.2595  0.0501 -0.0118
 9794TIP3    H153577   7.860   4.202   5.536  1.1709 -0.9894  0.7669
 9794TIP3    H253578   7.854   4.051   5.539 -1.5727 -0.9374  0.3296
 9795TIP3   OH253579   2.295   3.303   5.604  0.1476  0.1666  0.8286
 9795TIP3    H153580   2.350   3.246   5.658  0.7346 -0.9877 -0.8638
 9795TIP3    H253581   2.351   3.378   5.584 -0.3813  1.0504  2.4818
 9796TIP3   OH253582   5.111   1.794   6.303  0.0073  0.4595 -0.3401
 9796TIP3    H153583   5.030   1.812   6.350 -0.6717 -1.1427 -0.8063
 9796TIP3    H253584   5.176   1.851   6.344 -0.5896 -0.6655  2.4119
 9797TIP3   OH253585   6.299   3.313   5.202  0.3981  0.2789 -0.3727
 9797TIP3    H153586   6.372   3.306   5.140  0.9463  0.7126  0.2083
 9797TIP3    H253587   6.267   3.402   5.192 -1.1789 -0.3945 -1.8325
 9798TIP3   OH253588   3.001   4.239   5.719 -0.6713  0.2286  0.2695
 9798TIP3    H153589   2.930   4.207   5.663  1.0050 -0.1611 -1.7169
 9798TIP3    H253590   3.081   4.224   5.669  0.6944  2.3957  1.6456
 9799TIP3   OH253591   9.071   5.471   6.210 -0.0781 -0.4593 -0.0168
 9799TIP3    H153592   9.006   5.401   6.218 -0.9698  0.5503  3.1962
 9799TIP3    H253593   9.029   5.537   6.156 -0.5765 -0.9943 -0.2909
 9800TIP3   OH253594   7.888   0.279   5.980 -0.5699  0.3893 -0.8441
 9800TIP3    H153595   7.836   0.316   6.051  0.2721  0.2290 -0.1144
 9800TIP3    H253596   7.976   0.272   6.017 -0.3767 -0.8687 -1.4860
 9801TIP3   OH253597   1.581   5.613   5.319  0.3957 -0.6634  0.0381
 9801TIP3    H153598   1.577   5.582   5.410  2.3333 -0.3194  0.2715
 9801TIP3    H253599   1.633   5.547   5.274 -0.6466 -0.8846 -0.8728
 9802TIP3   OH253600   1.109   3.686   6.244 -0.2989  0.1774  0.2292
 9802TIP3    H153601   1.109   3.735   6.161 -0.8236  0.6790  0.5260
 9802TIP3    H253602   1.111   3.754   6.312  2.3377 -0.2062  0.6529
 9803TIP3   OH253603   6.945   8.905   5.456  0.0797 -0.3009  0.0120
 9803TIP3    H153604   6.868   8.857   5.427  0.4645 -1.5440  0.9930
 9803TIP3    H253605   6.968   8.960   5.381 -0.8796 -1.0021 -0.8175
 9804TIP3   OH253606   2.311   2.674   4.820 -0.5718  0.0658 -0.0689
 9804TIP3    H153607   2.274   2.739   4.880  0.8101 -0.1978  1.1095
 9804TIP3    H253608   2.311   2.593   4.870 -0.4841 -0.4287 -0.8592
 9805TIP3   OH253609   8.957   8.415   5.789 -0.3441  0.5057 -0.6737
 9805TIP3    H153610   8.951   8.410   5.884  0.9263  0.4662 -0.5665
 9805TIP3    H253611   8.885   8.471   5.762 -1.0479  0.0585  0.2585
 9806TIP3   OH253612   5.438   0.628   5.869  0.0256 -0.5975  0.3265
 9806TIP3    H153613   5.486   0.671   5.940 -0.8933 -1.2288  1.3750
 9806TIP3    H253614   5.481   0.658   5.789  2.0337 -1.0066  1.1864
 9807TIP3   OH253615   7.359   0.836   6.832 -0.0313 -0.5460  0.6378
 9807TIP3    H153616   7.339   0.795   6.748  0.6508  0.4373 -0.0438
 9807TIP3    H253617   7.323   0.925   6.824 -1.6265 -1.0170  2.1295
 9808TIP3   OH253618   2.006   5.970   6.827 -0.1680  0.3967  1.1418
 9808TIP3    H153619   2.048   5.886   6.807 -1.1494  0.0189  0.6169
 9808TIP3    H253620   2.057   6.034   6.778 -0.9294 -0.2068 -0.5283
 9809TIP3   OH253621   6.887   8.375   5.907  0.3520 -0.0313 -0.1287
 9809TIP3    H153622   6.919   8.331   5.828 -0.0057 -0.4639 -0.0383
 9809TIP3    H253623   6.879   8.305   5.972  0.4195  0.2837  0.2183
 9810TIP3   OH253624   9.103   6.863   5.929  0.2177  0.3042  0.9665
 9810TIP3    H153625   9.173   6.901   5.877  0.7787 -0.3538  1.2271
 9810TIP3    H253626   9.147   6.818   6.000 -0.3709 -1.2916  0.3768
 9811TIP3   OH253627   1.026   3.604   5.101  0.3431  0.1383 -0.0005
 9811TIP3    H153628   1.045   3.605   5.195  0.4647 -0.0182 -0.0228
 9811TIP3    H253629   1.044   3.694   5.072 -0.6179  0.4430  0.3013
 9812TIP3   OH253630   8.450   3.597   5.499 -0.3432  0.7526 -0.5604
 9812TIP3    H153631   8.423   3.626   5.412  0.6750  2.7091 -0.2867
 9812TIP3    H253632   8.541   3.627   5.507  0.5628 -1.8890  0.1356
 9813TIP3   OH253633   1.856   8.429   6.042 -0.0458 -0.0944  0.0796
 9813TIP3    H153634   1.819   8.376   5.972  0.3643  0.4010 -0.5238
 9813TIP3    H253635   1.820   8.392   6.122 -0.0013 -1.0854 -0.3482
 9814TIP3   OH253636   7.457   0.884   7.398  0.0780 -0.1804 -0.5164
 9814TIP3    H153637   7.528   0.865   7.337 -1.7059 -0.1154 -2.7367
 9814TIP3    H253638   7.404   0.804   7.399  0.4004 -0.4334  1.5315
 9815TIP3   OH253639   5.047   8.351   5.729 -0.1161  0.2716 -0.3054
 9815TIP3    H153640   5.066   8.441   5.699 -1.0228  0.7190  0.4138
 9815TIP3    H253641   5.091   8.344   5.813  1.1827 -0.4823 -1.0131
 9816TIP3   OH253642   0.179   1.651   6.476  0.2690  0.3430  0.1209
 9816TIP3    H153643   0.214   1.565   6.451 -0.5406  0.2193 -0.6327
 9816TIP3    H253644   0.166   1.645   6.570  1.6220  0.1597  0.3186
 9817TIP3   OH253645   8.502   7.626   5.856 -0.0034 -0.3562  0.0696
 9817TIP3    H153646   8.507   7.618   5.951 -0.2891 -0.4658  0.0746
 9817TIP3    H253647   8.529   7.716   5.838  0.6233 -0.5084  0.2107
 9818TIP3   OH253648   6.191   1.357   6.512  0.3803 -0.1198  0.2869
 9818TIP3    H153649   6.161   1.438   6.553  0.9154  0.2301  0.0023
 9818TIP3    H253650   6.120   1.294   6.526  0.8663 -0.2641  2.4587
 9819TIP3   OH253651   7.617   6.772   5.973  0.3945  0.2512  0.3468
 9819TIP3    H153652   7.562   6.823   6.033 -0.6804 -0.6326  0.1500
 9819TIP3    H253653   7.584   6.683   5.982  1.2194 -0.1359 -0.4618
 9820TIP3   OH253654   1.790   4.392   6.669  0.3068  0.1638  0.0092
 9820TIP3    H153655   1.880   4.423   6.661 -0.0231  1.3691  0.7634
 9820TIP3    H253656   1.750   4.449   6.735 -1.1935  0.0792 -0.7831
 9821TIP3   OH253657   8.228   0.441   7.254  0.0405 -0.1384  0.0034
 9821TIP3    H153658   8.236   0.373   7.187  0.3886 -0.1710  0.0764
 9821TIP3    H253659   8.134   0.459   7.259  0.1436  1.1935 -1.8343
 9822TIP3   OH253660   3.914   2.752   6.790  0.4180  0.1808  0.1832
 9822TIP3    H153661   3.983   2.817   6.801  0.6292 -0.0397  0.1823
 9822TIP3    H253662   3.852   2.792   6.730 -0.1112  0.8990  1.1841
 9823TIP3   OH253663   2.606   4.877   5.940 -0.4848  0.2965 -0.0094
 9823TIP3    H153664   2.529   4.837   5.899  0.8443 -0.5460 -1.8143
 9823TIP3    H253665   2.680   4.825   5.909  0.8138  0.8392  1.9902
 9824TIP3   OH253666   6.300   5.377   5.934 -0.7514 -0.9288 -0.2248
 9824TIP3    H153667   6.345   5.296   5.955 -0.3761 -1.2831 -2.1865
 9824TIP3    H253668   6.209   5.351   5.917 -0.7702 -0.8398 -0.2637
 9825TIP3   OH253669   8.455   3.281   5.932  0.0917 -0.3530  0.4476
 9825TIP3    H153670   8.363   3.265   5.913 -0.2442  0.9487  0.8667
 9825TIP3    H253671   8.463   3.377   5.935  0.9800 -0.4269  2.5630
 9826TIP3   OH253672   5.844   5.732   5.130 -0.1080 -0.7422 -0.4190
 9826TIP3    H153673   5.777   5.799   5.123  2.3916  1.9401 -0.3747
 9826TIP3    H253674   5.847   5.710   5.223  1.6927  2.1532  0.3210
 9827TIP3   OH253675   6.160   2.891   5.897  0.6877 -0.2125 -0.2883
 9827TIP3    H153676   6.235   2.911   5.952  0.2957  0.0694  0.1472
 9827TIP3    H253677   6.113   2.974   5.889 -1.4958 -1.0342  2.3422
 9828TIP3   OH253678   1.176   4.386   6.463  0.1823  0.1126 -0.3619
 9828TIP3    H153679   1.261   4.367   6.424  0.0160  1.0094 -1.2002
 9828TIP3    H253680   1.131   4.440   6.398 -0.8913 -0.0463  0.2232
 9829TIP3   OH253681   1.336   5.669   5.815 -0.5572  0.1770 -0.8377
 9829TIP3    H153682   1.264   5.666   5.752 -1.8580 -0.5904  0.5880
 9829TIP3    H253683   1.405   5.615   5.776 -1.1245  0.1476 -1.8219
 9830TIP3   OH253684   8.639   1.764   6.761  0.0451  0.0401  0.2345
 9830TIP3    H153685   8.562   1.708   6.754  0.9006 -1.0419 -0.9324
 9830TIP3    H253686   8.710   1.706   6.788  0.7991  0.6900 -0.2905
 9831TIP3   OH253687   6.567   0.265   6.304  0.2848 -0.0982  0.1376
 9831TIP3    H153688   6.644   0.283   6.357 -0.1126  0.8926  0.3887
 9831TIP3    H253689   6.558   0.169   6.307 -0.4012 -0.0389  2.8420
 9832TIP3   OH253690   3.882   2.407   5.435  0.0455 -0.0878 -0.1969
 9832TIP3    H153691   3.814   2.340   5.429 -0.4480  0.2788  0.9349
 9832TIP3    H253692   3.939   2.378   5.506  1.4747 -0.7206 -1.5651
 9833TIP3   OH253693   3.207   5.534   5.935 -0.0606 -0.3557  0.1776
 9833TIP3    H153694   3.278   5.567   5.991  1.6733  0.4955 -2.3404
 9833TIP3    H253695   3.135   5.595   5.949  0.6010  0.2940  0.8692
 9834TIP3   OH253696   3.220   8.745   6.183  0.0640  0.1996  0.6187
 9834TIP3    H153697   3.282   8.749   6.256  1.4677 -0.3213 -0.4895
 9834TIP3    H253698   3.275   8.732   6.106 -1.3784  0.6610 -0.5361
 9835TIP3   OH253699   8.280   8.066   4.887 -0.1128 -0.1139  0.0473
 9835TIP3    H153700   8.367   8.048   4.851 -0.5042  0.6074 -1.3250
 9835TIP3    H253701   8.278   8.161   4.897 -0.0234 -0.2810  2.0454
 9836TIP3   OH253702   4.917   0.752   5.367 -0.3881  0.4867 -0.2278
 9836TIP3    H153703   4.958   0.688   5.309 -1.4785  0.8210 -1.4217
 9836TIP3    H253704   4.878   0.700   5.437 -0.8012 -0.1147 -0.8977
 9837TIP3   OH253705   9.044   5.914   5.967 -0.2875  0.1442 -0.3727
 9837TIP3    H153706   9.035   5.875   5.880 -0.3372  0.2725 -0.4249
 9837TIP3    H253707   9.139   5.920   5.981 -0.2797  0.2000 -0.4523
 9838TIP3   OH253708   4.269   6.508   5.070 -0.2036 -0.0453 -0.1961
 9838TIP3    H153709   4.180   6.538   5.090 -0.7744 -0.2967 -2.1406
 9838TIP3    H253710   4.302   6.475   5.153 -1.0169  2.2404  1.1457
 9839TIP3   OH253711   4.820   6.766   5.784  0.1390  0.1646 -0.4720
 9839TIP3    H153712   4.821   6.813   5.868 -0.1071  1.9106 -1.3870
 9839TIP3    H253713   4.861   6.682   5.803 -1.5757 -0.2515  1.8059
 9840TIP3   OH253714   3.973   1.985   6.623  0.7221  0.0067  0.4049
 9840TIP3    H153715   4.021   2.056   6.665  0.0401  1.0007 -0.4173
 9840TIP3    H253716   4.038   1.918   6.607  1.8151  1.2296 -0.5123
 9841TIP3   OH253717   1.724   5.415   5.197 -1.0405  0.1734  0.2705
 9841TIP3    H153718   1.742   5.327   5.166  1.4067  1.1014 -1.2053
 9841TIP3    H253719   1.761   5.418   5.285 -2.0735 -0.5260  0.7510
 9842TIP3   OH253720   8.472   0.304   6.717  0.0295  0.1520 -0.6825
 9842TIP3    H153721   8.427   0.263   6.791  0.1798 -1.5839 -1.5151
 9842TIP3    H253722   8.535   0.238   6.687  0.4785  1.1001 -1.9158
 9843TIP3   OH253723   8.322   2.947   6.072  0.6993 -0.3776  0.0705
 9843TIP3    H153724   8.368   3.019   6.114 -0.2067  0.9334 -1.0917
 9843TIP3    H253725   8.239   2.940   6.118  1.2795 -1.5286  0.9818
 9844TIP3   OH253726   8.794   4.748   5.551  0.2855 -0.9304  0.5768
 9844TIP3    H153727   8.868   4.719   5.498  1.0666  0.2805  0.9856
 9844TIP3    H253728   8.720   4.747   5.490  1.1315  0.2667 -0.5169
 9845TIP3   OH253729   0.748   6.543   6.459 -0.3862  0.2863 -0.2748
 9845TIP3    H153730   0.703   6.481   6.517 -2.9002  2.0296 -0.2368
 9845TIP3    H253731   0.734   6.508   6.371  1.4767 -1.1318 -0.0802
 9846TIP3   OH253732   1.540   2.227   4.835 -0.3109  0.3287 -0.4217
 9846TIP3    H153733   1.556   2.318   4.810 -0.5639  0.8114  1.0728
 9846TIP3    H253734   1.624   2.183   4.821  0.3780  1.2379  0.6436
 9847TIP3   OH253735   7.271   0.452   5.199  0.2264 -0.2225 -0.1390
 9847TIP3    H153736   7.266   0.536   5.154  1.3328 -0.7106 -1.2289
 9847TIP3    H253737   7.358   0.418   5.178 -0.4459 -1.9566 -0.3084
 9848TIP3   OH253738   0.421   4.029   5.708  0.1174 -0.1193 -0.1728
 9848TIP3    H153739   0.450   4.088   5.777  0.2574 -0.4383  0.0426
 9848TIP3    H253740   0.366   3.965   5.753  1.4956 -1.2842 -0.0754
 9849TIP3   OH253741   0.654   0.591   5.732 -0.0938  0.1117  0.1902
 9849TIP3    H153742   0.625   0.578   5.642 -0.2030 -1.7527  0.4537
 9849TIP3    H253743   0.666   0.502   5.767 -1.0387  0.7341  2.3267
 9850TIP3   OH253744   2.148   0.875   5.842 -0.3139  0.0746  0.0599
 9850TIP3    H153745   2.186   0.879   5.929 -0.2887  1.7460  0.0070
 9850TIP3    H253746   2.220   0.849   5.785  0.1978  0.9884  0.2734
 9851TIP3   OH253747   0.387   0.042   5.724  0.3918  0.6821  0.5858
 9851TIP3    H153748   0.419  -0.033   5.674 -0.2276  0.2533  0.8251
 9851TIP3    H253749   0.292   0.031   5.727  0.3715  1.0059  1.3793
 9852TIP3   OH253750   0.815   5.728   4.885 -0.0046  0.6895  0.1048
 9852TIP3    H153751   0.801   5.667   4.958 -2.0744  0.3212 -0.5376
 9852TIP3    H253752   0.878   5.684   4.828 -0.6981 -0.4188  0.1687
 9853TIP3   OH253753   7.534   5.855   6.102  0.4571 -0.3567  0.1536
 9853TIP3    H153754   7.457   5.897   6.063 -0.0841 -1.6947 -0.2637
 9853TIP3    H253755   7.498   5.797   6.169  1.1010 -0.9911 -0.0413
 9854TIP3   OH253756   1.782   1.094   5.052  0.2968  0.5150  0.6066
 9854TIP3    H153757   1.861   1.128   5.009 -1.0280  1.6594 -1.1124
 9854TIP3    H253758   1.726   1.171   5.061  0.1378  0.1422  3.7616
 9855TIP3   OH253759   1.263   5.624   6.276 -0.6148 -0.3534 -0.2807
 9855TIP3    H153760   1.326   5.683   6.235  0.8118 -1.6979 -0.1270
 9855TIP3    H253761   1.184   5.633   6.223 -0.3088  1.3607 -0.4985
 9856TIP3   OH253762   2.010   8.486   5.604  0.1671 -0.2247 -0.5468
 9856TIP3    H153763   2.099   8.493   5.568  0.4077  1.5537  0.2741
 9856TIP3    H253764   2.009   8.401   5.647  1.5152 -0.2382 -0.4742
 9857TIP3   OH253765   6.816   9.074   5.684  0.6550 -0.5263  0.3980
 9857TIP3    H153766   6.847   8.988   5.654  1.5258 -0.5796  1.4118
 9857TIP3    H253767   6.790   9.119   5.604  1.3863 -1.2701 -0.2778
 9858TIP3   OH253768   2.629   4.510   6.537  0.1094  0.1443 -0.2677
 9858TIP3    H153769   2.657   4.445   6.473 -0.6193  0.4996 -0.9725
 9858TIP3    H253770   2.587   4.459   6.606 -0.5614 -0.1373 -0.8683
 9859TIP3   OH253771   6.870   0.835   5.297  0.2448  0.1131  0.0551
 9859TIP3    H153772   6.937   0.857   5.362 -1.6096 -1.7024  2.8275
 9859TIP3    H253773   6.787   0.858   5.340 -1.1740 -2.6914 -0.9438
 9860TIP3   OH253774   1.817   2.873   5.113 -0.1111  0.4944 -0.5078
 9860TIP3    H153775   1.764   2.953   5.118 -0.9967 -0.1679  1.4706
 9860TIP3    H253776   1.755   2.802   5.130  1.4069 -0.2924  2.1693
 9861TIP3   OH253777   8.501   9.198   6.440 -0.1271  0.3124  0.2547
 9861TIP3    H153778   8.526   9.254   6.514 -0.8678  0.5196  0.3586
 9861TIP3    H253779   8.451   9.255   6.383 -0.3162 -0.0735  0.0295
 9862TIP3   OH253780   3.379   5.635   6.128 -0.2311 -0.1901  0.2297
 9862TIP3    H153781   3.423   5.572   6.186 -0.4847  0.3525  1.0144
 9862TIP3    H253782   3.422   5.718   6.146 -0.1202 -0.0650 -0.5727
 9863TIP3   OH253783   7.108   4.296   5.308  0.4367 -0.5048 -0.4785
 9863TIP3    H153784   7.083   4.234   5.376 -1.1939  1.2524  0.5922
 9863TIP3    H253785   7.179   4.348   5.347  1.3012 -1.1726 -1.1121
 9864TIP3   OH253786   1.763   2.099   5.890  0.1843 -0.4212 -0.3715
 9864TIP3    H153787   1.815   2.147   5.954  1.8315  0.5467 -2.3425
 9864TIP3    H253788   1.689   2.157   5.871 -0.1814 -0.6082  0.4159
 9865TIP3   OH253789   5.402   1.804   5.864 -0.1760 -0.2284  0.9187
 9865TIP3    H153790   5.352   1.885   5.866  0.0174 -0.0686 -0.1783
 9865TIP3    H253791   5.337   1.735   5.882 -1.0199 -0.1125 -1.3876
 9866TIP3   OH253792   6.121   3.029   6.400 -0.3691 -0.1472  0.0276
 9866TIP3    H153793   6.149   2.947   6.439 -0.1096 -0.3490 -0.5677
 9866TIP3    H253794   6.029   3.016   6.380 -0.2938 -0.3417 -0.1903
 9867TIP3   OH253795   0.741   0.289   6.223 -0.5080 -0.7896  0.0225
 9867TIP3    H153796   0.754   0.209   6.275  0.1380 -1.5332 -1.2323
 9867TIP3    H253797   0.647   0.307   6.230 -0.3950 -0.6805  1.6718
 9868TIP3   OH253798   4.433   0.833   5.403  0.3958 -0.1147  0.1893
 9868TIP3    H153799   4.434   0.842   5.498  1.9665  1.3518  0.0652
 9868TIP3    H253800   4.516   0.870   5.374  1.1562 -2.8977 -1.5819
 9869TIP3   OH253801   2.032   7.206   4.741 -0.3012  0.4062 -0.3764
 9869TIP3    H153802   2.099   7.265   4.775  0.5850 -1.2115  0.8620
 9869TIP3    H253803   1.952   7.233   4.785 -0.5247  2.3470 -1.8525
 9870TIP3   OH253804   4.326   2.861   6.443  0.3424  0.1017  0.0249
 9870TIP3    H153805   4.300   2.940   6.490 -0.0564  0.3488 -0.6001
 9870TIP3    H253806   4.373   2.893   6.366 -0.4022 -0.2400 -0.5822
 9871TIP3   OH253807   1.985   1.669   6.450  0.4153 -0.0978  0.1080
 9871TIP3    H153808   1.963   1.649   6.541 -0.0695 -1.9906 -0.3721
 9871TIP3    H253809   1.908   1.644   6.400  1.5154 -1.3879 -1.0375
 9872TIP3   OH253810   5.612   3.361   6.442 -0.3066 -0.8112 -0.1643
 9872TIP3    H153811   5.605   3.451   6.410  0.1102 -0.0912  1.6816
 9872TIP3    H253812   5.706   3.343   6.444 -0.4010 -1.5165 -1.0359
 9873TIP3   OH253813   7.924   4.307   5.856  0.4888  0.8125 -0.1139
 9873TIP3    H153814   8.015   4.278   5.859  0.2575 -0.6746 -3.1276
 9873TIP3    H253815   7.917   4.356   5.774 -1.8623 -1.3112 -1.3480
 9874TIP3   OH253816   2.213   4.093   5.449 -0.1139 -0.0589  0.0851
 9874TIP3    H153817   2.163   4.031   5.396 -1.4753  1.4840 -0.5274
 9874TIP3    H253818   2.183   4.179   5.419  0.2499  0.8787  2.2687
 9875TIP3   OH253819   6.888   8.583   5.192  0.6285 -0.1672 -0.0604
 9875TIP3    H153820   6.907   8.668   5.153 -1.3454 -0.0107 -0.8124
 9875TIP3    H253821   6.933   8.520   5.136 -0.8557  0.1753 -1.7329
 9876TIP3   OH253822   1.931   5.326   5.707 -0.5061 -0.2770  0.1706
 9876TIP3    H153823   1.881   5.339   5.788 -1.0617 -1.5368  0.0454
 9876TIP3    H253824   1.888   5.252   5.664  1.3780 -1.3126 -0.0246
 9877TIP3   OH253825   2.874   1.648   5.185 -0.1920  0.2295  0.5314
 9877TIP3    H153826   2.893   1.736   5.218 -0.6468 -0.1919  1.9946
 9877TIP3    H253827   2.952   1.624   5.134 -0.2877  1.6723 -0.3741
 9878TIP3   OH253828   2.677   6.549   6.035  0.3166 -0.3653 -0.2376
 9878TIP3    H153829   2.727   6.620   6.076  0.5371 -0.6831  0.0448
 9878TIP3    H253830   2.673   6.573   5.942  0.1245  0.1717 -0.0927
 9879TIP3   OH253831   8.399   6.633   5.756 -1.0546  0.0292 -0.1233
 9879TIP3    H153832   8.463   6.590   5.698  0.8410  0.7091  1.3399
 9879TIP3    H253833   8.322   6.576   5.753  0.0183 -1.4528 -1.1009
 9880TIP3   OH253834   8.988   3.804   5.496 -0.4078 -0.1633 -0.3315
 9880TIP3    H153835   8.959   3.857   5.570  0.5564  1.1221 -0.8349
 9880TIP3    H253836   8.954   3.851   5.419  1.9356  0.7699 -0.8824
 9881TIP3   OH253837   3.740   8.451   5.372  0.2210 -0.1552  0.0241
 9881TIP3    H153838   3.681   8.525   5.363 -0.3918 -0.6778 -0.3313
 9881TIP3    H253839   3.827   8.490   5.376 -0.1965  0.7060  1.5403
 9882TIP3   OH253840   8.549   1.769   6.426  0.1996  0.4430  0.2028
 9882TIP3    H153841   8.592   1.808   6.350  0.4651 -0.6968 -0.2550
 9882TIP3    H253842   8.609   1.701   6.455 -1.2868 -1.2849 -0.5335
 9883TIP3   OH253843   1.877   5.670   5.574 -0.2326  0.3101  0.8144
 9883TIP3    H153844   1.965   5.667   5.536 -0.4280  1.7799  0.1757
 9883TIP3    H253845   1.891   5.651   5.667  0.7509  0.4997  0.7228
 9884TIP3   OH253846   0.693   2.492   5.414  0.0146  0.4089  0.1453
 9884TIP3    H153847   0.672   2.525   5.327 -0.6095 -0.4776 -0.0510
 9884TIP3    H253848   0.789   2.495   5.418  0.2924 -2.4016 -1.7758
 9885TIP3   OH253849   0.998   8.984   5.366  0.2120  0.2054 -0.8066
 9885TIP3    H153850   1.046   9.065   5.385  0.9029 -0.1557 -0.9819
 9885TIP3    H253851   0.979   8.989   5.272  0.3611  0.1117 -0.8424
 9886TIP3   OH253852   0.158   5.485   5.029  0.2131  0.2974 -0.5490
 9886TIP3    H153853   0.192   5.396   5.029 -0.1919  0.1123 -2.1303
 9886TIP3    H253854   0.231   5.539   4.998  0.2107  0.4081 -0.3645
 9887TIP3   OH253855   9.062   2.366   4.744  0.3511  0.3123 -0.2634
 9887TIP3    H153856   9.039   2.274   4.756 -2.4832  1.0994  1.1183
 9887TIP3    H253857   9.000   2.398   4.678  0.8524  1.3940 -0.2367
 9888TIP3   OH253858   5.308   7.760   5.815 -0.1865  1.2520 -0.1552
 9888TIP3    H153859   5.225   7.805   5.805 -0.8096  0.1202 -0.1629
 9888TIP3    H253860   5.289   7.686   5.873  0.5826  0.4209 -0.9278
 9889TIP3   OH253861   3.512   0.145   6.333  0.6459 -0.3326  0.5168
 9889TIP3    H153862   3.469   0.060   6.339 -0.1078 -0.0420 -0.4389
 9889TIP3    H253863   3.545   0.162   6.421  2.0776 -2.2449  0.3870
 9890TIP3   OH253864   0.854   6.573   5.855 -0.2259  0.2549  0.0875
 9890TIP3    H153865   0.892   6.561   5.942  0.9865  0.0899 -0.4402
 9890TIP3    H253866   0.893   6.654   5.823 -1.6864  1.0369  0.1945
 9891TIP3   OH253867   3.565   1.457   5.832  0.3323 -0.4640 -0.2360
 9891TIP3    H153868   3.532   1.393   5.895 -1.2134 -0.9315 -1.4478
 9891TIP3    H253869   3.496   1.523   5.827  0.7968 -0.0120 -0.8377
 9892TIP3   OH253870   5.964   5.691   6.344  0.0452  0.2358 -0.4324
 9892TIP3    H153871   6.012   5.752   6.287  0.7072 -0.4873 -0.6781
 9892TIP3    H253872   6.015   5.689   6.425  1.8896 -2.3353 -1.5169
 9893TIP3   OH253873   2.501   4.360   6.239 -0.1177  0.1020  0.0775
 9893TIP3    H153874   2.564   4.303   6.283  0.0923 -0.2785 -0.7052
 9893TIP3    H253875   2.523   4.353   6.146 -0.4628  1.0113 -0.0777
 9894TIP3   OH253876   4.236   1.028   5.297  0.1057 -0.1351 -0.2735
 9894TIP3    H153877   4.296   0.958   5.323  2.2903  0.9356 -2.0187
 9894TIP3    H253878   4.284   1.109   5.316 -1.2447  0.7950 -0.7093
 9895TIP3   OH253879   4.760   7.990   6.471 -0.2434 -0.2330 -0.1694
 9895TIP3    H153880   4.704   8.023   6.541 -0.4882 -1.3883  0.2067
 9895TIP3    H253881   4.793   8.068   6.428 -1.5280  0.4919  0.0950
 9896TIP3   OH253882   4.732   7.868   6.024 -0.1670  0.4529 -0.5310
 9896TIP3    H153883   4.672   7.910   6.086 -1.3590 -0.2431 -1.1597
 9896TIP3    H253884   4.716   7.774   6.034  0.9143  0.2415 -0.6427
 9897TIP3   OH253885   7.180   8.758   4.863 -0.1771  0.0105  0.1368
 9897TIP3    H153886   7.134   8.777   4.945 -1.4039 -1.1517 -0.2365
 9897TIP3    H253887   7.110   8.745   4.799  0.7381  0.0865 -0.9128
 9898TIP3   OH253888   5.344   3.735   5.449 -0.3025 -0.0668 -0.0691
 9898TIP3    H153889   5.368   3.688   5.369  1.5822  0.1005  0.3400
 9898TIP3    H253890   5.340   3.827   5.422 -1.3869 -0.1670 -0.3078
 9899TIP3   OH253891   2.571   1.973   4.935 -0.0147 -0.0641  0.0322
 9899TIP3    H153892   2.614   1.888   4.929  1.7069  0.7317  0.4464
 9899TIP3    H253893   2.544   1.993   4.846  1.0082 -0.3464 -0.3533
 9900TIP3   OH253894   7.073   7.788   5.629  0.6171  0.1877  0.0793
 9900TIP3    H153895   7.077   7.811   5.722  0.6122 -0.0457  0.1374
 9900TIP3    H253896   6.983   7.808   5.603  0.9617  1.5223 -0.2098
 9901TIP3   OH253897   5.395   0.126   6.295 -0.0772  0.2121 -0.2055
 9901TIP3    H153898   5.483   0.159   6.312  1.0686 -2.8650  0.3996
 9901TIP3    H253899   5.405   0.062   6.225 -1.9956  0.3595 -0.6852
 9902TIP3   OH253900   6.084   2.619   6.263  0.1283 -0.3968 -0.0708
 9902TIP3    H153901   6.110   2.533   6.296  1.0014  0.0746  0.5396
 9902TIP3    H253902   6.167   2.666   6.252 -0.2456 -0.0806 -1.6841
 9903TIP3   OH253903   5.678   8.169   6.034  0.5700  0.3106  0.3257
 9903TIP3    H153904   5.736   8.145   5.962  0.1685 -2.1646  0.7512
 9903TIP3    H253905   5.597   8.120   6.017  0.2946  0.0651  2.1819
 9904TIP3   OH253906   4.944   3.479   5.879  0.4691  0.1764 -0.1338
 9904TIP3    H153907   4.961   3.519   5.964  0.0479  0.1339 -0.0282
 9904TIP3    H253908   4.855   3.445   5.885  0.2158  0.6984 -0.7999
 9905TIP3   OH253909   6.962   1.894   6.616  0.1464 -0.1072 -0.5802
 9905TIP3    H153910   7.049   1.929   6.599  0.2263  0.1729  0.3592
 9905TIP3    H253911   6.969   1.852   6.702 -0.7967  0.4466 -0.2174
 9906TIP3   OH253912   7.206   5.228   5.407  0.2153 -0.0943 -0.0545
 9906TIP3    H153913   7.290   5.191   5.435  0.6975  0.1492 -1.1430
 9906TIP3    H253914   7.206   5.219   5.312 -0.6949  0.5454 -0.1304
 9907TIP3   OH253915   6.432   3.948   5.550 -0.3659  0.0318  0.5443
 9907TIP3    H153916   6.407   4.024   5.497 -0.5806  0.2304  0.9248
 9907TIP3    H253917   6.451   3.985   5.636 -0.4664 -0.3493  0.7287
 9908TIP3   OH253918   8.191   3.396   5.087  0.1463  0.5740 -0.2694
 9908TIP3    H153919   8.278   3.365   5.061 -0.4678 -0.9481 -0.6205
 9908TIP3    H253920   8.164   3.335   5.155 -0.9825  0.5118 -0.7611
 9909TIP3   OH253921   6.265   5.683   5.983 -0.2115 -0.2592  0.8055
 9909TIP3    H153922   6.344   5.734   6.003 -0.8352  0.0206  2.7257
 9909TIP3    H253923   6.296   5.593   5.977  0.5878  0.0625 -0.7482
 9910TIP3   OH253924   7.736   0.704   5.673 -0.7047 -0.1827 -0.4562
 9910TIP3    H153925   7.724   0.659   5.757 -0.8866 -1.3642 -1.0814
 9910TIP3    H253926   7.758   0.634   5.612  0.7913  0.8290 -1.1325
 9911TIP3   OH253927   8.081   8.685   5.188 -0.3977  0.1771  0.2424
 9911TIP3    H153928   8.157   8.628   5.201 -0.9157 -0.5192  0.3202
 9911TIP3    H253929   8.056   8.670   5.097  0.9952  2.2421 -0.5563
 9912TIP3   OH253930   5.449   1.204   5.261 -0.2340  0.1889  0.4565
 9912TIP3    H153931   5.368   1.235   5.220 -0.3951  0.3789  0.9118
 9912TIP3    H253932   5.458   1.114   5.231  0.5498  0.8254 -1.3634
 9913TIP3   OH253933   0.225   4.502   5.144 -0.2448  0.3886 -0.8972
 9913TIP3    H153934   0.198   4.560   5.073  1.3946  0.8664 -1.1880
 9913TIP3    H253935   0.321   4.511   5.146 -0.0309 -1.6483 -0.3801
 9914TIP3   OH253936   8.985   0.748   5.895  0.3117  0.1147  0.0535
 9914TIP3    H153937   9.075   0.725   5.872  0.8202  1.4684  0.5654
 9914TIP3    H253938   8.985   0.843   5.900 -0.7477  0.0690  1.6843
 9915TIP3   OH253939   7.019   5.672   6.602  0.1621  0.5153 -0.1974
 9915TIP3    H153940   6.956   5.645   6.535  1.3449 -0.3976 -0.9870
 9915TIP3    H253941   7.038   5.592   6.650  1.4075  0.5669 -0.5740
 9916TIP3   OH253942   1.704   5.389   6.222  0.8241  0.5880 -0.0502
 9916TIP3    H153943   1.671   5.474   6.193  0.2611  0.5258  0.3856
 9916TIP3    H253944   1.644   5.325   6.184  1.5358  0.3483 -0.7835
 9917TIP3   OH253945   0.874   8.946   5.108  0.3800  0.1750 -0.0662
 9917TIP3    H153946   0.886   9.022   5.051  1.4043  1.6995  2.0315
 9917TIP3    H253947   0.808   8.974   5.172  2.0932  0.1119  1.8644
 9918TIP3   OH253948   7.957   5.796   5.027  0.1131 -0.3851  0.6011
 9918TIP3    H153949   7.940   5.884   4.993 -0.0376 -1.1485 -1.4653
 9918TIP3    H253950   7.884   5.743   4.994 -0.7586 -0.9976  3.2747
 9919TIP3   OH253951   3.545   6.142   7.050  0.2380 -0.1207  0.0393
 9919TIP3    H153952   3.490   6.069   7.021  0.9509 -1.3027  1.5589
 9919TIP3    H253953   3.488   6.194   7.107 -0.0620  0.1375 -0.4869
 9920TIP3   OH253954   2.947   8.721   6.921  0.0360 -0.1465  0.0159
 9920TIP3    H153955   2.917   8.636   6.891  0.4450  0.2718 -1.6710
 9920TIP3    H253956   2.901   8.734   7.004  0.0875 -2.0534  0.3905
 9921TIP3   OH253957   3.642   5.960   5.962 -0.4843 -0.5728  0.0686
 9921TIP3    H153958   3.557   5.922   5.984  0.3013 -2.3338  0.1978
 9921TIP3    H253959   3.653   5.943   5.868 -0.1504 -0.6170  0.1131
 9922TIP3   OH253960   4.248   7.076   5.649  0.0906 -0.1086  0.2399
 9922TIP3    H153961   4.339   7.104   5.658 -0.5615  1.7851  1.7655
 9922TIP3    H253962   4.235   7.013   5.721  0.6231 -1.8072 -1.0826
 9923TIP3   OH253963   0.017   0.048   6.806 -0.3542 -0.5154  0.0446
 9923TIP3    H153964   0.070  -0.031   6.804  0.1481 -0.1768 -0.1122
 9923TIP3    H253965   0.073   0.113   6.848 -0.2972  0.1052 -0.9876
 9924TIP3   OH253966   7.448   8.811   5.550 -0.9726 -0.3785 -0.6550
 9924TIP3    H153967   7.354   8.803   5.534 -1.2160  2.8965 -1.5353
 9924TIP3    H253968   7.481   8.859   5.474  1.5232 -1.7242 -0.5373
 9925TIP3   OH253969   1.354   2.793   5.308 -0.2971 -0.6478 -0.2950
 9925TIP3    H153970   1.403   2.870   5.334 -1.8387  0.3702 -0.2761
 9925TIP3    H253971   1.385   2.723   5.365  2.2590 -0.4841 -1.3501
 9926TIP3   OH253972   1.154   1.219   5.646  0.4953  0.2982 -0.3527
 9926TIP3    H153973   1.083   1.283   5.658 -0.4278 -0.0731 -3.0424
 9926TIP3    H253974   1.111   1.134   5.658  1.1473  0.1181  0.7566
 9927TIP3   OH253975   4.322   1.460   5.688  0.8425 -0.0454 -0.4448
 9927TIP3    H153976   4.270   1.533   5.723  0.0078 -1.1409  0.7275
 9927TIP3    H253977   4.360   1.494   5.607 -0.2413  1.3957 -0.3999
 9928TIP3   OH253978   6.645   0.777   6.168  0.1098 -0.6257 -0.1655
 9928TIP3    H153979   6.583   0.762   6.240  3.4032 -1.3313  2.8099
 9928TIP3    H253980   6.608   0.729   6.094 -2.2158 -2.1232  1.8178
 9929TIP3   OH253981   4.633   5.759   5.548  0.5216  0.0018 -0.1271
 9929TIP3    H153982   4.551   5.719   5.577  0.4308  0.0849 -0.2632
 9929TIP3    H253983   4.622   5.853   5.566  0.3328  0.0998 -0.7162
 9930TIP3   OH253984   8.386   4.047   5.721 -0.3491  0.3192  0.0935
 9930TIP3    H153985   8.398   4.073   5.630 -2.5582  0.7027 -0.1473
 9930TIP3    H253986   8.461   4.086   5.768 -0.0853  1.5335 -1.2846
 9931TIP3   OH253987   9.004   6.417   4.627  0.5667  0.0466  0.5174
 9931TIP3    H153988   9.085   6.458   4.658  0.9204  0.8295 -1.2692
 9931TIP3    H253989   8.968   6.481   4.565 -0.8478 -0.7783  0.4552
 9932TIP3   OH253990   8.853   7.531   5.147  0.6187 -0.6527  0.0555
 9932TIP3    H153991   8.825   7.463   5.208 -0.1530 -0.4996 -0.1202
 9932TIP3    H253992   8.779   7.592   5.143  0.6182 -0.7072 -1.1004
 9933TIP3   OH253993   6.780   0.037   5.059 -0.1779 -0.1568  0.1518
 9933TIP3    H153994   6.764   0.076   5.145  0.3566  2.2242 -0.7548
 9933TIP3    H253995   6.696   0.044   5.014  0.0027  0.2719 -0.1231
 9934TIP3   OH253996   3.912   6.870   6.704  0.0120 -0.7908 -0.4818
 9934TIP3    H153997   3.994   6.910   6.676  0.0491 -1.0678 -0.7666
 9934TIP3    H253998   3.860   6.861   6.624  0.1749 -1.7122 -0.4926
 9935TIP3   OH253999   1.994   8.637   6.108 -0.0728 -0.1048 -0.0781
 9935TIP3    H154000   1.966   8.704   6.045 -1.5879 -2.3218 -1.9305
 9935TIP3    H254001   1.951   8.557   6.079  0.2105 -1.5661  3.0783
 9936TIP3   OH254002   6.001   8.204   5.967 -0.7922  0.5237  0.3513
 9936TIP3    H154003   6.010   8.109   5.975 -0.7051  0.4279 -0.7581
 9936TIP3    H254004   6.003   8.221   5.873 -3.1285  1.4014  0.4058
 9937TIP3   OH254005   1.845   7.516   6.096  0.3905 -0.2966  0.1586
 9937TIP3    H154006   1.926   7.540   6.050  0.8994 -0.4612  0.9468
 9937TIP3    H254007   1.875   7.482   6.181 -0.4829 -0.8385  0.2601
 9938TIP3   OH254008   8.058   7.194   5.487 -0.2897  0.2018 -0.3766
 9938TIP3    H154009   8.107   7.113   5.473 -0.7499  0.0477 -1.1105
 9938TIP3    H254010   8.093   7.229   5.569 -0.5200 -1.0494  0.2733
 9939TIP3   OH254011   1.591   9.072   5.395  0.0215 -0.3652  0.4908
 9939TIP3    H154012   1.682   9.097   5.382  0.1596 -0.1540  1.7237
 9939TIP3    H254013   1.579   9.075   5.490 -1.2859 -0.3253  0.3405
 9940TIP3   OH254014   5.652   1.044   6.951  0.3099  0.2264  0.0293
 9940TIP3    H154015   5.605   0.962   6.944  0.6957  0.1139 -2.0352
 9940TIP3    H254016   5.738   1.020   6.985  0.5243 -0.2989 -0.8469
 9941TIP3   OH254017   8.456   3.317   5.090  0.7599 -0.1761  0.3688
 9941TIP3    H154018   8.466   3.224   5.072  0.7323 -0.1299  0.1133
 9941TIP3    H254019   8.545   3.353   5.086  1.1755 -0.6437  3.0999
 9942TIP3   OH254020   7.300   1.377   5.173 -0.4372 -0.0837  0.2933
 9942TIP3    H154021   7.362   1.346   5.239 -0.5537 -0.7452  0.1029
 9942TIP3    H254022   7.322   1.325   5.095  0.1730  1.1860 -0.4044
 9943TIP3   OH254023   7.272   5.390   6.131  0.8409 -0.4806  0.5848
 9943TIP3    H154024   7.221   5.394   6.050  2.6251  1.8120 -0.5768
 9943TIP3    H254025   7.351   5.341   6.107  1.3569  0.1646  0.9216
 9944TIP3   OH254026   2.151   6.114   6.576  0.2632  0.0729 -0.1015
 9944TIP3    H154027   2.123   6.110   6.484  0.8039 -1.0518 -0.2387
 9944TIP3    H254028   2.228   6.171   6.575  0.4860 -0.2240 -0.4261
 9945TIP3   OH254029   1.335   0.769   5.072  0.1749 -0.8534 -0.6895
 9945TIP3    H154030   1.267   0.703   5.086 -1.6748  1.1580  0.4975
 9945TIP3    H254031   1.351   0.805   5.159  1.5798 -0.1477 -1.2221
 9946TIP3   OH254032   6.506   6.303   6.317  0.6958 -0.3320  0.2008
 9946TIP3    H154033   6.494   6.256   6.399  3.4182 -0.5752  0.5802
 9946TIP3    H254034   6.601   6.300   6.302  0.6976  2.6762 -1.1793
 9947TIP3   OH254035   0.415   4.793   5.044  0.0910 -0.0188 -0.3822
 9947TIP3    H154036   0.468   4.713   5.045 -0.2130 -0.2328 -0.9286
 9947TIP3    H254037   0.452   4.846   5.115  0.3210 -0.6220 -0.0337
 9948TIP3   OH254038   2.195   5.933   5.358 -0.2818 -0.4651  0.4769
 9948TIP3    H154039   2.111   5.977   5.357  0.3357  0.7951  1.4902
 9948TIP3    H254040   2.192   5.873   5.283 -1.1130  1.3821 -1.0518
 9949TIP3   OH254041   8.641   3.887   4.908  0.0915 -0.7020 -0.5725
 9949TIP3    H154042   8.713   3.948   4.893  0.5505 -1.0868  0.0114
 9949TIP3    H254043   8.565   3.930   4.869  0.3654  0.3267 -0.0221
 9950TIP3   OH254044   8.330   8.572   5.271 -0.0647  0.5680  0.2852
 9950TIP3    H154045   8.348   8.522   5.351  2.8718  1.5251  0.3313
 9950TIP3    H254046   8.407   8.557   5.215  0.3709  3.9475 -0.2290
 9951TIP3   OH254047   0.363   4.016   5.394 -0.1513 -0.0318 -0.8962
 9951TIP3    H154048   0.289   3.959   5.373 -0.2331  0.1925 -1.2271
 9951TIP3    H254049   0.386   3.994   5.484  0.6170 -1.4951 -1.4107
 9952TIP3   OH254050   7.560   0.347   6.706  0.2355  0.0582  0.3206
 9952TIP3    H154051   7.527   0.273   6.655  0.4903  0.2244 -0.0897
 9952TIP3    H254052   7.587   0.411   6.640 -2.4860  1.6623  0.6425
 9953TIP3   OH254053   1.627   4.188   5.723  0.4635  0.1981 -1.0164
 9953TIP3    H154054   1.556   4.135   5.757  0.6695  0.5203 -0.0597
 9953TIP3    H254055   1.595   4.221   5.639  0.9084 -2.6687 -2.4229
 9954TIP3   OH254056   0.642   6.872   5.218 -0.2145 -0.4324 -0.1241
 9954TIP3    H154057   0.623   6.815   5.144 -2.6066  0.0602  0.0356
 9954TIP3    H254058   0.623   6.818   5.295  0.0043 -0.2126  0.0861
 9955TIP3   OH254059   8.737   6.691   4.884  0.0218 -0.3104  0.7642
 9955TIP3    H154060   8.646   6.661   4.879 -0.5414  1.3831  0.2252
 9955TIP3    H254061   8.772   6.645   4.961 -0.1936 -3.6338 -0.9267
 9956TIP3   OH254062   8.880   5.329   4.842 -0.1196  0.3925  0.0579
 9956TIP3    H154063   8.811   5.281   4.798 -0.4199  0.0875  0.8532
 9956TIP3    H254064   8.884   5.291   4.930 -1.3620  2.7438  1.2251
 9957TIP3   OH254065   1.275   1.835   4.915  0.3448  0.4558  0.0305
 9957TIP3    H154066   1.347   1.884   4.954 -0.0054 -0.5547  2.0668
 9957TIP3    H254067   1.242   1.892   4.846  2.0563  1.6235  0.1141
 9958TIP3   OH254068   8.587   2.676   6.157  0.0811  0.4068  0.5908
 9958TIP3    H154069   8.576   2.763   6.195  1.2662  1.1499 -0.6771
 9958TIP3    H254070   8.598   2.618   6.232 -1.1262  1.2705  1.4711
 9959TIP3   OH254071   8.824   7.980   4.674  0.5516 -0.2261 -0.3545
 9959TIP3    H154072   8.867   7.990   4.590  1.8125 -1.4283  0.1101
 9959TIP3    H254073   8.785   7.893   4.671  0.2074 -0.0974  0.1338
 9960TIP3   OH254074   5.057   0.511   5.275  0.6092 -0.3064  0.2313
 9960TIP3    H154075   5.131   0.514   5.216  0.5783 -3.1191 -0.0407
 9960TIP3    H254076   5.065   0.428   5.321 -0.7577  0.6540  2.3822
 9961TIP3   OH254077   7.073   2.134   6.406 -0.2834 -0.3362  0.1951
 9961TIP3    H154078   7.143   2.081   6.446 -0.8925 -1.7533 -0.5755
 9961TIP3    H254079   7.022   2.166   6.481  2.2683  2.4352  0.9597
 9962TIP3   OH254080   8.923   7.168   6.522  0.6719  0.3806 -0.3900
 9962TIP3    H154081   8.838   7.195   6.557 -0.0718  0.8853 -2.4205
 9962TIP3    H254082   8.944   7.234   6.456  3.4535  1.1552  1.1349
 9963TIP3   OH254083   1.116   4.680   6.042  0.0994  0.3844  0.1443
 9963TIP3    H154084   1.189   4.710   6.096  0.3284  0.3661 -0.1535
 9963TIP3    H254085   1.149   4.683   5.952  0.0183 -0.4298  0.0782
 9964TIP3   OH254086   4.815   1.367   6.344  0.0933 -0.0587 -0.4779
 9964TIP3    H154087   4.789   1.459   6.356 -0.9951 -0.6029  1.8765
 9964TIP3    H254088   4.745   1.329   6.293  0.1491  0.2409 -0.7824
 9965TIP3   OH254089   2.540   8.702   5.415 -0.0574  0.1114 -0.6221
 9965TIP3    H154090   2.586   8.708   5.499  1.1731  0.3624 -1.2869
 9965TIP3    H254091   2.535   8.608   5.398 -1.1163  0.0097  0.1377
 9966TIP3   OH254092   6.912   0.994   5.770 -0.3649 -0.0597 -0.1525
 9966TIP3    H154093   6.976   1.064   5.784  0.7020 -0.8312 -1.0069
 9966TIP3    H254094   6.842   1.036   5.719  0.5969  0.2544 -1.2773
 9967TIP3   OH254095   2.837   5.103   5.459  0.2799 -0.2125 -0.7314
 9967TIP3    H154096   2.918   5.143   5.429 -0.6298  1.6939 -0.7744
 9967TIP3    H254097   2.843   5.103   5.555 -0.1696  1.0969 -0.6855
 9968TIP3   OH254098   9.067   5.522   4.772 -0.0280  0.6185 -0.1994
 9968TIP3    H154099   9.151   5.489   4.740 -0.9701 -0.3209 -1.8454
 9968TIP3    H254100   9.018   5.444   4.796 -1.2609  0.9386 -1.4910
 9969TIP3   OH254101   2.514   9.133   5.075  0.5391  0.0279 -0.1072
 9969TIP3    H154102   2.468   9.111   4.994  0.5054 -1.7073  0.3491
 9969TIP3    H254103   2.604   9.151   5.047  0.4928 -0.3963 -0.5413
 9970TIP3   OH254104   1.463   6.860   6.775 -0.1963 -0.2098  0.4602
 9970TIP3    H154105   1.471   6.765   6.786  0.8678 -0.0328  1.4088
 9970TIP3    H254106   1.553   6.893   6.784 -0.3794  0.7868 -1.0406
 9971TIP3   OH254107   1.193   6.036   5.129  0.2792  0.1079 -0.7391
 9971TIP3    H154108   1.130   6.000   5.191  0.3347 -0.0408 -0.7679
 9971TIP3    H254109   1.163   6.125   5.113  0.2732  0.1534 -0.4857
 9972TIP3   OH254110   1.091   4.043   5.473 -0.1226 -0.1274  0.2749
 9972TIP3    H154111   1.187   4.037   5.478 -0.0566  1.2905  1.6010
 9972TIP3    H254112   1.060   3.957   5.502  0.7366 -0.8444 -0.8578
 9973TIP3   OH254113   7.939   0.321   7.352  0.2148 -0.2366 -0.2662
 9973TIP3    H154114   7.942   0.393   7.289  3.6580 -1.5504 -1.8831
 9973TIP3    H254115   7.941   0.363   7.438  1.3498  1.6539 -1.1541
 9974TIP3   OH254116   6.548   1.453   5.269 -0.4141 -0.2042  0.5492
 9974TIP3    H154117   6.571   1.499   5.188  0.6227  0.0259  0.9570
 9974TIP3    H254118   6.456   1.429   5.257 -0.4832  0.4455 -0.3973
 9975TIP3   OH254119   6.857   4.906   4.966 -0.4770  0.3997 -0.2789
 9975TIP3    H154120   6.803   4.984   4.956 -0.4734  0.7856  2.0635
 9975TIP3    H254121   6.808   4.851   5.027  0.8094 -0.1805  0.2580
 9976TIP3   OH254122   0.291   5.292   5.662  0.5346  0.4515 -0.1015
 9976TIP3    H154123   0.329   5.375   5.690  0.9926 -0.4722  2.2410
 9976TIP3    H254124   0.241   5.261   5.738  1.2838 -1.9134 -0.4774
 9977TIP3   OH254125   9.195   5.307   6.703 -0.2996  0.1376 -0.0323
 9977TIP3    H154126   9.257   5.282   6.634  0.3642  1.8425 -0.1026
 9977TIP3    H254127   9.178   5.226   6.750  1.0226 -0.6150 -0.7926
 9978TIP3   OH254128   2.955   0.587   5.109 -0.3645  0.3844 -0.1172
 9978TIP3    H154129   2.977   0.560   5.020 -0.7991  1.3449 -0.5329
 9978TIP3    H254130   2.995   0.673   5.119 -0.0033  0.1339  0.7625
 9979TIP3   OH254131   8.102   6.919   6.301 -0.2626  0.1198  0.2932
 9979TIP3    H154132   8.074   6.923   6.393  0.6078 -1.6661  0.6700
 9979TIP3    H254133   8.197   6.919   6.305 -0.2164 -0.1426 -0.6111
 9980TIP3   OH254134   8.888   4.262   6.284  0.7776 -0.6309 -0.1963
 9980TIP3    H154135   8.972   4.289   6.246 -0.6345  1.3510 -2.1288
 9980TIP3    H254136   8.906   4.255   6.378  2.7742  1.1863 -0.3629
 9981TIP3   OH254137   7.238   6.932   5.098 -0.2794 -0.3198 -0.2715
 9981TIP3    H154138   7.319   6.978   5.118 -1.3408  1.3452  0.5207
 9981TIP3    H254139   7.185   6.942   5.177 -1.7379 -0.1802 -1.2225
 9982TIP3   OH254140   5.519   5.016   5.277 -0.5010  0.0809 -0.2535
 9982TIP3    H154141   5.449   5.066   5.318  0.1284  0.6198  0.1947
 9982TIP3    H254142   5.532   4.941   5.334 -0.6940 -0.0005 -0.3179
 9983TIP3   OH254143   4.294   0.166   5.708  0.2746  0.2789 -0.0121
 9983TIP3    H154144   4.251   0.088   5.671 -0.7650  1.3847 -1.2196
 9983TIP3    H254145   4.370   0.181   5.652  0.1689  0.4592 -0.1056
 9984TIP3   OH254146   0.012   8.992   5.320  0.2033 -0.4379  0.2073
 9984TIP3    H154147   0.044   8.946   5.243  0.0098  1.2832 -0.9531
 9984TIP3    H254148   0.091   9.024   5.363  0.2885  2.5303 -1.8494
 9985TIP3   OH254149   8.666   1.641   5.679  0.5502 -0.1031 -0.2041
 9985TIP3    H154150   8.671   1.727   5.639  0.8206  0.0685  0.2043
 9985TIP3    H254151   8.755   1.620   5.705  0.2750  0.1007  0.9669
 9986TIP3   OH254152   7.897   4.805   6.014 -0.8999  0.0857  0.1979
 9986TIP3    H154153   7.864   4.854   6.090  0.4959  1.6036 -0.1264
 9986TIP3    H254154   7.964   4.861   5.976  0.0650 -1.6608 -0.8167
 9987TIP3   OH254155   7.984   2.641   5.777  0.1089  0.8204  0.1093
 9987TIP3    H154156   8.062   2.594   5.807  0.1080  0.7810  0.0527
 9987TIP3    H254157   7.985   2.723   5.825  0.1667  0.8049  0.1352
 9988TIP3   OH254158   6.225   2.984   5.450 -0.9152  0.1206  0.1676
 9988TIP3    H154159   6.168   2.923   5.496 -1.1014  0.0500 -0.1499
 9988TIP3    H254160   6.313   2.949   5.462 -0.9652  0.0854  0.4399
 9989TIP3   OH254161   5.103   5.932   5.293 -0.2200  0.1332 -0.1659
 9989TIP3    H154162   5.070   6.018   5.320 -0.4481 -0.0949  0.2942
 9989TIP3    H254163   5.198   5.938   5.303 -0.1286  0.7020 -1.2238
 9990TIP3   OH254164   1.284   4.090   5.142  0.4786 -0.6837 -0.2130
 9990TIP3    H154165   1.284   4.175   5.186  0.5820 -1.2792  0.9787
 9990TIP3    H254166   1.377   4.067   5.134  0.4661 -0.5620 -0.8252
 9991TIP3   OH254167   2.935   5.978   6.107  0.0505 -0.3645 -0.1244
 9991TIP3    H154168   2.883   6.051   6.074 -0.1652  0.2116  1.3925
 9991TIP3    H254169   2.880   5.938   6.174  2.1514  1.4323  2.9352
 9992TIP3   OH254170   5.988   1.124   5.512  0.0057 -0.5759 -0.1266
 9992TIP3    H154171   6.008   1.032   5.531 -0.0015 -0.6876 -0.6553
 9992TIP3    H254172   5.932   1.151   5.585 -0.0326 -1.0074  0.0078
 9993TIP3   OH254173   4.154   8.708   6.957 -0.7504  0.0816  0.6226
 9993TIP3    H154174   4.107   8.726   7.038  0.5107  2.2123  0.9578
 9993TIP3    H254175   4.112   8.764   6.892  0.0385  0.5421  0.4885
 9994TIP3   OH254176   7.639   8.666   5.327 -0.1937  0.4363 -0.0174
 9994TIP3    H154177   7.699   8.602   5.364  1.4062  0.5554 -2.1744
 9994TIP3    H254178   7.552   8.635   5.352  0.6636 -0.7709  1.6562
 9995TIP3   OH254179   8.927   8.193   7.017  0.3127  0.0550  0.2790
 9995TIP3    H154180   8.839   8.221   7.044  0.5163 -0.1336  1.1729
 9995TIP3    H254181   8.980   8.273   7.022 -0.2523  0.6724 -2.3877
 9996TIP3   OH254182   5.746   7.434   5.146  0.7996 -0.4468  0.0361
 9996TIP3    H154183   5.716   7.358   5.196  0.3165 -0.0633  0.3350
 9996TIP3    H254184   5.841   7.429   5.148  0.7710 -0.9721  0.1641
 9997TIP3   OH254185   0.910   1.441   6.400  0.4276 -0.2559  0.2366
 9997TIP3    H154186   0.921   1.349   6.378  0.6863  0.3884 -2.8365
 9997TIP3    H254187   0.999   1.475   6.404  0.3041  0.0686  0.2652
 9998TIP3   OH254188   2.028   8.545   6.369 -0.4090  0.3933 -0.0922
 9998TIP3    H154189   2.018   8.587   6.284 -1.0595  1.1736  0.3534
 9998TIP3    H254190   1.975   8.465   6.363  0.5592 -0.1979 -0.8304
 9999TIP3   OH254191   5.338   4.351   6.037  0.2041  0.1793  0.2251
 9999TIP3    H154192   5.410   4.378   5.979  1.0619 -0.3083  1.0224
 9999TIP3    H254193   5.344   4.410   6.112  1.2734 -1.2770  1.3707
10000TIP3   OH254194   8.012   5.300   5.170 -0.5353 -0.1917  0.1683
10000TIP3    H154195   8.058   5.234   5.117 -1.2969 -1.1510  0.6536
10000TIP3    H254196   7.997   5.373   5.110  0.7645 -0.2352 -0.2549
10001TIP3   OH254197   6.867   8.194   6.107  0.1446  0.2256  0.2500
10001TIP3    H154198   6.843   8.259   6.174  0.4101  0.8787 -0.2752
10001TIP3    H254199   6.952   8.162   6.135  1.4556  2.3362 -1.0566
10002TIP3   OH254200   3.148   1.649   5.382  0.3655  0.1383  0.1821
10002TIP3    H154201   3.132   1.560   5.413  2.4327 -1.3289 -2.5686
10002TIP3    H254202   3.078   1.666   5.319  0.9814 -0.3142 -0.6469
10003TIP3   OH254203   6.049   8.849   5.028  0.4296  0.0690  0.3478
10003TIP3    H154204   6.004   8.765   5.017 -1.7419  1.5123 -4.0632
10003TIP3    H254205   6.068   8.853   5.122 -1.7214 -4.1235  1.2374
10004TIP3   OH254206   4.128   3.295   5.744 -0.5126  0.5883 -0.1806
10004TIP3    H154207   4.128   3.385   5.776  1.4946  0.3520  0.5876
10004TIP3    H254208   4.119   3.303   5.649  0.0620  1.6173 -0.1558
10005TIP3   OH254209   6.963   7.439   6.636  0.1154  0.4797 -0.5131
10005TIP3    H154210   7.058   7.424   6.634  0.2622  1.3468 -2.1525
10005TIP3    H254211   6.955   7.533   6.650 -0.4948  0.4413 -0.6139
10006TIP3   OH254212   8.863   3.155   5.447  0.1300 -0.1694 -0.8844
10006TIP3    H154213   8.825   3.242   5.434  1.5606  1.1137  2.2552
10006TIP3    H254214   8.797   3.107   5.497 -0.0397 -0.3431 -1.2740
10007TIP3   OH254215   2.165   5.467   5.731  0.6856  0.0607 -0.2100
10007TIP3    H154216   2.080   5.425   5.717  1.7228 -1.7223 -1.8159
10007TIP3    H254217   2.162   5.546   5.678  0.6247 -0.9728 -1.8436
10008TIP3   OH254218   2.881   5.931   5.788  0.2287 -0.1342 -0.0956
10008TIP3    H154219   2.875   6.016   5.743  1.9047  0.4835  0.7625
10008TIP3    H254220   2.794   5.918   5.825  0.1041  1.5207  0.2785
10009TIP3   OH254221   6.467   6.453   5.570  0.0827 -0.4886 -0.6670
10009TIP3    H154222   6.419   6.475   5.490 -0.1635 -1.9546 -0.9585
10009TIP3    H254223   6.400   6.442   5.637  0.1348 -0.9743 -0.6900
10010TIP3   OH254224   7.238   0.546   5.526 -0.3436  0.2604  0.4708
10010TIP3    H154225   7.270   0.523   5.438 -0.4623 -0.7179  0.6671
10010TIP3    H254226   7.317   0.547   5.580 -0.4830 -1.1007  0.7385
10011TIP3   OH254227   3.453   3.945   5.526  0.3086  0.0875 -0.1957
10011TIP3    H154228   3.480   3.876   5.587 -2.1112 -0.6489  0.1393
10011TIP3    H254229   3.404   3.899   5.458  1.0587  1.1756 -1.5165
10012TIP3   OH254230   4.662   4.872   6.035 -0.1807  0.3445  0.2054
10012TIP3    H154231   4.681   4.960   6.001  1.6985 -0.2754 -0.4870
10012TIP3    H254232   4.693   4.873   6.125 -0.1934  0.3930  0.2094
10013TIP3   OH254233   0.726   6.865   6.236  0.4082 -0.3910  0.1475
10013TIP3    H154234   0.796   6.818   6.281 -0.4291 -0.9978  0.8634
10013TIP3    H254235   0.699   6.805   6.166  0.0076 -0.5632  0.4425
10014TIP3   OH254236   1.016   0.044   6.528 -0.5490 -0.2403  0.0168
10014TIP3    H154237   1.108   0.054   6.502 -0.6720  0.5583 -0.1445
10014TIP3    H254238   1.019   0.031   6.623 -0.2497 -0.5126 -0.0308
10015TIP3   OH254239   8.893   7.091   6.234  0.0634  0.2201 -0.3932
10015TIP3    H154240   8.981   7.110   6.265 -1.6401  3.5094  3.2380
10015TIP3    H254241   8.887   7.134   6.149  1.6832  0.5800 -0.3550
10016TIP3   OH254242   1.537   3.698   5.338  0.0672  0.1221 -0.2516
10016TIP3    H154243   1.586   3.616   5.336  1.0952  0.7400 -1.1111
10016TIP3    H254244   1.479   3.689   5.414  1.9947 -0.3543  1.2315
10017TIP3   OH254245   7.241   6.979   5.762  0.1771 -0.2062  0.0749
10017TIP3    H154246   7.213   7.070   5.764  1.3172  0.1633  1.3734
10017TIP3    H254247   7.308   6.976   5.694 -2.7589 -1.0957 -3.0507
10018TIP3   OH254248   5.861   5.151   5.796 -0.1131 -0.3372  0.1930
10018TIP3    H154249   5.853   5.204   5.717  2.1760  0.9269  0.7312
10018TIP3    H254250   5.776   5.106   5.804 -1.1860  1.2158 -1.7167
10019TIP3   OH254251   0.906   8.198   5.531 -0.5959 -0.0805 -0.0886
10019TIP3    H154252   0.976   8.140   5.502  0.7556  0.9434  0.9902
10019TIP3    H254253   0.852   8.212   5.453  2.0401  1.4114 -1.7839
10020TIP3   OH254254   6.564   2.394   5.796 -0.0367  0.0276  0.2305
10020TIP3    H154255   6.540   2.351   5.714 -1.4381  0.2742  0.4823
10020TIP3    H254256   6.493   2.457   5.812  0.2952  0.1074  1.5346
10021TIP3   OH254257   3.067   5.713   5.344 -0.3711 -0.4630  0.3028
10021TIP3    H154258   3.063   5.755   5.430 -4.2095 -0.6173  0.4088
10021TIP3    H254259   2.993   5.751   5.296 -1.6414 -4.1258 -0.9932
10022TIP3   OH254260   9.131   7.187   4.926 -0.8901  0.4516 -0.1885
10022TIP3    H154261   9.094   7.244   4.993 -0.4173  1.0366 -0.4238
10022TIP3    H254262   9.224   7.211   4.922 -0.8151  0.0884 -0.7216
10023TIP3   OH254263   7.629   7.179   6.854  0.5419  0.0825 -0.3342
10023TIP3    H154264   7.617   7.258   6.906  0.9264 -0.3614  0.4432
10023TIP3    H254265   7.667   7.115   6.915  0.1184 -0.7423 -0.9089
10024TIP3   OH254266   7.597   8.609   6.284  0.6956 -0.2830 -0.2588
10024TIP3    H154267   7.539   8.534   6.272  0.6061 -0.1086 -0.9741
10024TIP3    H254268   7.685   8.573   6.276  0.7077 -0.5802  1.0154
10025TIP3   OH254269   3.443   1.334   5.594 -0.1308 -0.1377 -0.3716
10025TIP3    H154270   3.439   1.399   5.524  0.4254  0.2308 -0.0686
10025TIP3    H254271   3.505   1.371   5.657  1.2630 -1.5975 -0.8351
10026TIP3   OH254272   4.280   4.838   6.459  1.1237  0.1471  0.6289
10026TIP3    H154273   4.196   4.826   6.503  0.9638  0.9893  0.5683
10026TIP3    H254274   4.345   4.828   6.529  0.9607 -0.1555  0.7397
10027TIP3   OH254275   6.278   9.087   5.676  0.2041 -0.6752 -0.2039
10027TIP3    H154276   6.277   9.069   5.770  0.2735 -0.3401 -0.1394
10027TIP3    H254277   6.282   9.000   5.636  2.1438 -0.7839  0.1264
10028TIP3   OH254278   7.451   5.360   5.229  0.4239  0.1055 -0.0250
10028TIP3    H154279   7.356   5.375   5.238  0.6635  1.1923  1.0638
10028TIP3    H254280   7.460   5.314   5.146 -1.2760 -2.3006  0.9904
10029TIP3   OH254281   5.883   3.123   5.493  0.3125 -0.1204 -0.4511
10029TIP3    H154282   5.869   3.204   5.443  1.6863 -0.5515 -1.6220
10029TIP3    H254283   5.858   3.054   5.433 -0.4371 -0.5977  0.3927
10030TIP3   OH254284   7.977   0.621   6.259  0.1278 -0.8110  0.1008
10030TIP3    H154285   8.064   0.620   6.220  0.2735  0.3108  0.3501
10030TIP3    H254286   7.942   0.534   6.242  2.3224 -2.2747  2.3656
10031TIP3   OH254287   6.049   7.930   6.010  0.6361 -0.1004  0.4387
10031TIP3    H154288   6.137   7.919   6.045  0.3062  0.7498  1.5853
10031TIP3    H254289   5.991   7.896   6.078  0.0663 -0.8995 -0.4117
10032TIP3   OH254290   2.039   5.171   6.540 -0.2769  0.2545 -0.4319
10032TIP3    H154291   1.954   5.214   6.541 -0.8092 -0.7831  0.1867
10032TIP3    H254292   2.085   5.206   6.616 -0.4031  0.3180 -0.3843
10033TIP3   OH254293   6.097   6.788   5.520 -0.4855 -0.2744  0.4227
10033TIP3    H154294   6.188   6.762   5.533  0.1527 -0.3598 -3.1728
10033TIP3    H254295   6.099   6.884   5.518  0.1519 -0.2704 -2.4947
10034TIP3   OH254296   3.825   0.868   5.110  0.1343 -0.3870  0.7650
10034TIP3    H154297   3.748   0.899   5.156  0.7821  0.7985  1.0888
10034TIP3    H254298   3.895   0.928   5.135  0.9308 -0.7964 -0.3419
10035TIP3   OH254299   0.917   0.718   5.467  0.6937  0.4106  0.1726
10035TIP3    H154300   0.979   0.721   5.540 -0.2085 -0.6938  1.0112
10035TIP3    H254301   0.838   0.761   5.501  0.9722  1.8398 -0.8982
10036TIP3   OH254302   0.712   6.409   6.232 -0.3392 -0.1264  0.1246
10036TIP3    H154303   0.760   6.326   6.229 -0.6586 -0.3642  1.1791
10036TIP3    H254304   0.622   6.385   6.252 -0.5263  0.4444 -0.0024
10037TIP3   OH254305   1.439   2.033   5.247 -0.2639 -0.3342  0.4012
10037TIP3    H154306   1.452   1.943   5.278  0.7311 -0.3429  0.0058
10037TIP3    H254307   1.457   2.029   5.153 -1.5391  0.0257  0.1310
10038TIP3   OH254308   5.807   6.537   6.684 -0.2770  0.5550  0.2557
10038TIP3    H154309   5.787   6.500   6.598 -0.0126  0.3725  0.2695
10038TIP3    H254310   5.776   6.627   6.679 -2.1471 -0.0317  0.6786
10039TIP3   OH254311   2.860   1.906   5.277  0.1807 -0.4730  0.2607
10039TIP3    H154312   2.889   1.996   5.262  1.4400 -0.8778  0.1329
10039TIP3    H254313   2.857   1.898   5.372  0.2054 -0.3310  0.2744
10040TIP3   OH254314   8.261   8.584   4.934 -0.3825 -0.6100 -0.9224
10040TIP3    H154315   8.182   8.635   4.919 -1.2217 -1.1648  1.1924
10040TIP3    H254316   8.331   8.650   4.940 -1.2610  0.2456  0.5777
10041TIP3   OH254317   8.346   3.965   6.078  0.1965 -0.1854 -0.1418
10041TIP3    H154318   8.436   3.992   6.060  0.5596 -0.4557  1.1348
10041TIP3    H254319   8.326   3.898   6.013  1.2778 -0.8369  0.1789
10042TIP3   OH254320   8.025   4.012   6.893 -0.7715 -0.2673  0.4870
10042TIP3    H154321   8.121   4.001   6.891 -0.6355  0.9387 -0.4181
10042TIP3    H254322   8.001   4.030   6.803 -1.9005 -0.7659  0.6762
10043TIP3   OH254323   8.954   5.133   5.061 -0.4728  0.3799 -0.0867
10043TIP3    H154324   8.874   5.121   5.112 -0.3320 -4.0902 -0.5276
10043TIP3    H254325   9.019   5.161   5.125 -1.6014  0.6508  0.9783
10044TIP3   OH254326   4.127   8.132   6.820 -0.1457  1.0911  0.1159
10044TIP3    H154327   4.216   8.149   6.851  0.3074 -2.5199  1.2409
10044TIP3    H254328   4.071   8.156   6.894  0.2659 -0.1417  0.8542
10045TIP3   OH254329   3.035   9.096   5.040 -0.4204 -0.3941 -0.3932
10045TIP3    H154330   3.020   9.089   4.946 -1.4386 -1.5140 -0.1674
10045TIP3    H254331   3.127   9.071   5.051  0.5011  2.2703 -1.3279
10046TIP3   OH254332   1.584   0.269   5.009 -0.0020  0.2428  0.0465
10046TIP3    H154333   1.519   0.199   5.005  0.5600 -0.2718 -0.2907
10046TIP3    H254334   1.536   0.345   5.041 -0.6349 -0.2846  0.3646
10047TIP3   OH254335   7.523   4.682   5.970  0.1487  0.5170 -0.0099
10047TIP3    H154336   7.511   4.607   6.028 -2.0408  0.8328  0.0510
10047TIP3    H254337   7.607   4.667   5.927  0.1177 -1.5706  0.5655
10048TIP3   OH254338   8.490   7.447   5.196 -0.7844 -0.2049  0.7527
10048TIP3    H154339   8.467   7.539   5.183 -1.6978 -0.3810  1.0661
10048TIP3    H254340   8.417   7.410   5.246  0.0717 -0.8579  1.5606
10049TIP3   OH254341   7.180   0.860   7.214 -0.6617  0.1266  0.2519
10049TIP3    H154342   7.087   0.852   7.192 -0.6711 -0.3463  0.4597
10049TIP3    H254343   7.184   0.936   7.273 -0.8843  0.2794  0.0714
10050TIP3   OH254344   8.833   2.218   6.696 -0.3801  0.5898 -0.2297
10050TIP3    H154345   8.926   2.213   6.718 -0.1351  0.8307 -1.1571
10050TIP3    H254346   8.805   2.127   6.689 -0.3777  0.5108  0.6720
10051TIP3   OH254347   1.115   8.063   5.387 -0.4796  0.1418 -0.8331
10051TIP3    H154348   1.139   7.973   5.411 -1.1983 -0.1039 -1.0035
10051TIP3    H254349   1.183   8.092   5.327 -0.2386 -0.2912 -0.7690
10052TIP3   OH254350   8.369   4.193   5.174  0.8979 -0.4055  0.8895
10052TIP3    H154351   8.410   4.262   5.227 -1.4369 -0.7105  3.3153
10052TIP3    H254352   8.288   4.172   5.221 -0.1259 -2.4808 -1.5791
10053TIP3   OH254353   5.131   6.438   5.725 -0.1784  0.2923  0.7376
10053TIP3    H154354   5.156   6.499   5.795 -0.8710 -0.5807  1.7850
10053TIP3    H254355   5.069   6.379   5.767 -1.2580  0.2500 -0.8591
10054TIP3   OH254356   8.906   6.833   4.701  0.5507 -0.2006  0.2373
10054TIP3    H154357   8.838   6.881   4.655  1.0327  0.1573 -0.1201
10054TIP3    H254358   8.860   6.764   4.749  0.1494 -1.6398 -2.0756
10055TIP3   OH254359   1.760   7.201   5.929  0.2814 -0.4555 -0.3854
10055TIP3    H154360   1.775   7.181   5.837  0.7662 -0.1519 -0.3756
10055TIP3    H254361   1.664   7.202   5.938  0.1937  1.0112 -1.2281
10056TIP3   OH254362   2.005   1.050   4.901 -0.1511 -0.2855  0.3548
10056TIP3    H154363   2.097   1.030   4.882 -0.1495 -0.7119  0.7883
10056TIP3    H254364   1.956   0.980   4.859 -0.3210  0.2374 -0.3371
10057TIP3   OH254365   3.530   6.067   5.492 -0.2415  0.4264 -0.2705
10057TIP3    H154366   3.569   6.074   5.405 -1.2887  0.6440 -0.7403
10057TIP3    H254367   3.436   6.070   5.476 -0.4574 -0.0602  0.8310
10058TIP3   OH254368   7.361   4.379   5.946 -0.4434 -0.1351  0.1061
10058TIP3    H154369   7.342   4.286   5.929 -1.8548 -0.0915  1.2916
10058TIP3    H254370   7.419   4.378   6.022  0.2902 -0.0587 -0.4388
10059TIP3   OH254371   1.028   1.877   6.300 -0.1210 -0.2364 -0.3977
10059TIP3    H154372   1.089   1.909   6.366 -0.3723  0.7870 -0.6441
10059TIP3    H254373   1.044   1.933   6.224 -0.2237 -1.0377 -1.0209
10060TIP3   OH254374   1.730   1.839   4.886 -0.0980  0.0835  0.7807
10060TIP3    H154375   1.746   1.932   4.903 -0.4096  0.8834 -2.4508
10060TIP3    H254376   1.816   1.802   4.870  0.0920 -0.4022  2.7604
10061TIP3   OH254377   3.248   0.084   6.630 -0.5712  0.4265 -0.3588
10061TIP3    H154378   3.339   0.097   6.660 -0.9841 -0.7040  1.5855
10061TIP3    H254379   3.242  -0.010   6.614 -1.1853  0.6238 -1.3674
10062TIP3   OH254380   0.200   0.776   6.189  0.3645 -0.3795  0.3084
10062TIP3    H154381   0.130   0.757   6.251  0.3164  0.0848  0.3989
10062TIP3    H254382   0.184   0.866   6.161  0.1912 -0.6859 -0.6334
10063TIP3   OH254383   5.080   6.644   6.157  0.1010 -0.1005 -0.4134
10063TIP3    H154384   5.075   6.558   6.200 -0.2637 -0.9869 -2.1565
10063TIP3    H254385   5.151   6.635   6.094  0.2604  1.0032 -0.4042
10064TIP3   OH254386   2.601   6.976   5.166 -0.2748 -0.1586 -0.5792
10064TIP3    H154387   2.578   6.983   5.074 -1.4110 -1.1417 -0.3925
10064TIP3    H254388   2.672   6.911   5.168 -0.5352 -0.4470 -0.7178
10065TIP3   OH254389   7.766   5.726   5.729  0.5804  0.4474 -0.3443
10065TIP3    H154390   7.780   5.778   5.649 -1.9051 -0.8139 -1.7043
10065TIP3    H254391   7.703   5.659   5.704 -0.1224 -0.1665  2.6526
10066TIP3   OH254392   9.198   2.482   6.886 -0.5123  0.0524 -0.1930
10066TIP3    H154393   9.282   2.436   6.889 -0.4946  0.0689 -0.4710
10066TIP3    H254394   9.209   2.549   6.819 -0.6362  0.2737  0.0029
10067TIP3   OH254395   2.632   1.054   5.002 -0.1477 -0.1971  0.0383
10067TIP3    H154396   2.709   1.110   5.012 -0.5202  0.5308 -0.9987
10067TIP3    H254397   2.657   0.972   5.045  1.0085  0.2018  0.1802
10068TIP3   OH254398   5.512   9.168   5.290  0.2175  0.1125  0.5019
10068TIP3    H154399   5.462   9.216   5.356 -0.8539  1.8358 -1.4364
10068TIP3    H254400   5.457   9.092   5.270 -0.1650  0.3690  0.5526
10069TIP3   OH254401   8.168   4.822   5.507 -0.4594 -0.2110  0.0109
10069TIP3    H154402   8.110   4.850   5.435  0.1117  0.5175 -0.1771
10069TIP3    H254403   8.109   4.813   5.582 -0.7683  0.9844 -0.0555
10070TIP3   OH254404   4.071   5.429   6.668 -0.1870  0.1484 -0.3154
10070TIP3    H154405   4.110   5.377   6.599  0.6325 -0.2337  0.4254
10070TIP3    H254406   4.079   5.376   6.747 -1.7019  0.2927 -0.0264
10071TIP3   OH254407   7.407   7.824   5.014 -0.1473  0.5112 -0.0828
10071TIP3    H154408   7.363   7.774   4.945 -0.7751 -0.6809  1.1309
10071TIP3    H254409   7.450   7.758   5.069 -0.0134  1.3777  0.9037
10072TIP3   OH254410   4.167   7.761   6.397 -0.2953 -0.2439 -0.2260
10072TIP3    H154411   4.174   7.798   6.485  0.4005  2.0875 -1.1849
10072TIP3    H254412   4.073   7.765   6.377 -0.2259  1.3391 -0.3863
10073TIP3   OH254413   5.085   0.638   5.728 -0.0149 -0.6734 -0.3962
10073TIP3    H154414   5.158   0.591   5.690  0.5166 -0.1766  0.0001
10073TIP3    H254415   5.108   0.649   5.820 -0.8005 -0.9311 -0.1547
10074TIP3   OH254416   2.150   3.309   5.852 -0.3540 -0.0754  0.0030
10074TIP3    H154417   2.067   3.357   5.851  0.1332  0.7780 -0.8518
10074TIP3    H254418   2.176   3.304   5.760  0.9346  0.3804  0.3193
10075TIP3   OH254419   5.953   2.988   6.111 -0.1303  0.0444 -0.7980
10075TIP3    H154420   5.878   3.038   6.079 -1.0907 -2.2436 -2.4851
10075TIP3    H254421   6.028   3.023   6.063 -0.5271  0.7472 -0.9179
10076TIP3   OH254422   4.324   0.590   6.612  0.1357 -0.4378  0.6503
10076TIP3    H154423   4.254   0.637   6.568  1.1607  0.4216 -0.1308
10076TIP3    H254424   4.282   0.545   6.685 -0.9540  1.3698  1.1899
10077TIP3   OH254425   0.633   0.317   5.841 -0.2555  0.5134  0.1610
10077TIP3    H154426   0.567   0.278   5.897  0.5105  1.4569  1.7863
10077TIP3    H254427   0.673   0.242   5.796 -2.0882 -0.0977 -0.5302
10078TIP3   OH254428   3.687   2.062   6.747  0.2093 -0.0952  0.1820
10078TIP3    H154429   3.720   2.050   6.657  0.8194  0.5291  0.3122
10078TIP3    H254430   3.694   1.975   6.787 -0.6853 -0.5314 -0.5659
10079TIP3   OH254431   2.493   3.536   5.103  0.2911  0.8277 -0.0064
10079TIP3    H154432   2.587   3.536   5.091  0.0983  1.8799 -1.8784
10079TIP3    H254433   2.462   3.462   5.050  0.0116  0.9531 -0.0233
10080TIP3   OH254434   2.783   2.234   4.815  0.2364 -0.0333  0.3293
10080TIP3    H154435   2.804   2.148   4.778  0.3834  0.5140 -0.9291
10080TIP3    H254436   2.865   2.263   4.855  0.7350  0.2979 -0.8804
10081TIP3   OH254437   2.034   3.539   5.703  0.6810 -0.3425  0.6087
10081TIP3    H154438   1.956   3.493   5.735 -0.6933  1.0271 -0.6224
10081TIP3    H254439   2.047   3.505   5.614  0.6407  0.4463  0.2940
10082TIP3   OH254440   2.859   8.176   6.084  0.2546  0.5133 -0.0041
10082TIP3    H154441   2.847   8.136   5.998 -2.9704  2.2163 -0.4718
10082TIP3    H254442   2.826   8.111   6.146 -1.0431  0.7867 -0.3974
10083TIP3   OH254443   1.342   3.659   6.618 -0.2070  0.1611 -0.8074
10083TIP3    H154444   1.404   3.607   6.566 -0.2961 -1.2148  0.3941
10083TIP3    H254445   1.396   3.727   6.658  0.2090  0.0436 -1.1521
10084TIP3   OH254446   3.092   5.142   6.760  0.3129 -0.4110  0.4147
10084TIP3    H154447   3.160   5.168   6.698  0.6526 -2.2404 -0.0362
10084TIP3    H254448   3.010   5.151   6.710  0.6800 -3.1677 -0.8670
10085TIP3   OH254449   5.234   7.830   5.189 -0.5139 -0.5619 -1.1493
10085TIP3    H154450   5.315   7.835   5.240  0.3434  0.8449 -2.5668
10085TIP3    H254451   5.232   7.741   5.154 -0.2968 -1.0249 -0.0319
10086TIP3   OH254452   6.327   7.683   6.449  0.1621 -0.2200 -0.3067
10086TIP3    H154453   6.271   7.622   6.401  2.7583 -1.8061 -1.5542
10086TIP3    H254454   6.385   7.719   6.382  2.8692 -1.2743  1.3273
10087TIP3   OH254455   0.403   1.777   4.703 -0.7322 -0.9155 -0.5135
10087TIP3    H154456   0.387   1.798   4.795  2.3130  1.3869 -0.3517
10087TIP3    H254457   0.444   1.691   4.705  0.2189 -0.4711  0.4516
10088TIP3   OH254458   1.636   7.120   5.481 -0.0622  0.2111  0.4335
10088TIP3    H154459   1.671   7.059   5.416 -1.9144 -0.3427 -0.1081
10088TIP3    H254460   1.700   7.118   5.553  0.7457 -1.0835 -0.2870
10089TIP3   OH254461   6.297   5.873   5.246  0.3457  0.5893  0.5916
10089TIP3    H154462   6.369   5.810   5.257  0.9392  0.3081 -3.2965
10089TIP3    H254463   6.218   5.824   5.268  1.0759 -0.3372  1.2048
10090TIP3   OH254464   7.762   2.240   5.781 -0.6034 -0.2597  0.0742
10090TIP3    H154465   7.696   2.171   5.789  0.4121 -1.2164  0.4382
10090TIP3    H254466   7.764   2.281   5.868  0.4828 -1.3894  0.6209
10091TIP3   OH254467   4.823   2.754   5.194  0.3192 -0.1614 -0.4391
10091TIP3    H154468   4.895   2.725   5.138  1.2337  0.4378  0.3793
10091TIP3    H254469   4.806   2.844   5.166  1.0546  0.2834  0.4737
10092TIP3   OH254470   8.649   8.882   6.267 -0.3436  0.4073 -0.2702
10092TIP3    H154471   8.716   8.942   6.301  1.5496 -2.6845  2.0071
10092TIP3    H254472   8.584   8.878   6.337 -1.5677  1.3213 -1.3167
10093TIP3   OH254473   6.711   8.894   6.019 -0.1052  0.1758 -0.1245
10093TIP3    H154474   6.782   8.898   6.084 -0.4582 -1.8422  0.4591
10093TIP3    H254475   6.744   8.836   5.950 -1.5462 -1.8166  0.7470
10094TIP3   OH254476   0.712   3.050   5.105  0.4512 -0.3111  0.3463
10094TIP3    H154477   0.789   3.059   5.162  0.4983  2.4737 -0.0002
10094TIP3    H254478   0.742   3.084   5.021 -0.5975 -1.1560 -0.3843
10095TIP3   OH254479   1.632   0.353   5.674 -0.1351 -0.4129 -0.2442
10095TIP3    H154480   1.714   0.401   5.682 -0.5315  0.6010 -1.7724
10095TIP3    H254481   1.659   0.264   5.650  0.5531  0.3085 -2.4238
10096TIP3   OH254482   8.170   9.026   5.761 -0.2246 -0.2628  0.3029
10096TIP3    H154483   8.121   8.988   5.688  0.7130 -0.0731 -0.4458
10096TIP3    H254484   8.149   8.969   5.835 -0.0204 -1.3771 -0.4578
10097TIP3   OH254485   6.717   1.749   6.853 -0.3373 -0.3559 -0.3905
10097TIP3    H154486   6.691   1.771   6.764 -0.6129  0.9966 -0.0009
10097TIP3    H254487   6.642   1.701   6.889  0.4813 -2.5256 -1.4252
10098TIP3   OH254488   1.202   2.063   6.891 -0.1780 -0.2672  0.2877
10098TIP3    H154489   1.259   2.007   6.838 -0.8617 -0.1490 -0.6138
10098TIP3    H254490   1.252   2.144   6.902 -0.7400  0.4522 -1.8698
10099TIP3   OH254491   0.144   8.478   6.495 -0.5024  0.7287 -0.0141
10099TIP3    H154492   0.201   8.464   6.570  1.4342  3.9056 -0.6977
10099TIP3    H254493   0.199   8.458   6.419 -1.5078  0.3538 -0.6694
10100TIP3   OH254494   6.235   2.581   6.678  0.6086 -0.2735 -0.1105
10100TIP3    H154495   6.317   2.629   6.680  0.6409 -0.1027 -2.6146
10100TIP3    H254496   6.247   2.515   6.610 -1.3745 -0.1194 -0.6837
10101TIP3   OH254497   2.327   0.601   6.649 -0.2876 -0.3034  1.2272
10101TIP3    H154498   2.394   0.607   6.717 -0.8013 -0.3562  1.7379
10101TIP3    H254499   2.368   0.546   6.581  0.1455 -0.4273  1.5799
10102TIP3   OH254500   9.005   9.145   5.534  0.0863 -0.1338  0.2737
10102TIP3    H154501   8.989   9.149   5.628  2.3899 -2.3269  0.8447
10102TIP3    H254502   9.096   9.173   5.524 -0.2412  0.4449 -1.3756
10103TIP3   OH254503   3.795   3.417   6.877 -0.2817  0.2981 -0.0562
10103TIP3    H154504   3.853   3.355   6.833  1.5374  0.9723  1.2470
10103TIP3    H254505   3.808   3.499   6.830 -0.6338  0.3091 -0.1333
10104TIP3   OH254506   5.263   5.028   5.610  0.3401  0.0144 -0.0041
10104TIP3    H154507   5.232   5.096   5.671 -0.0188  0.2611 -0.4600
10104TIP3    H254508   5.290   5.076   5.532  1.5704 -0.2234  0.2536
10105TIP3   OH254509   0.053   4.883   6.237  0.7786  0.4743 -0.1627
10105TIP3    H154510  -0.029   4.839   6.257  0.9186  0.6123  0.7298
10105TIP3    H254511   0.029   4.949   6.171  0.2503  0.2606 -0.1846
10106TIP3   OH254512   4.573   4.191   5.666 -0.5870  0.3455 -0.8404
10106TIP3    H154513   4.596   4.153   5.750 -1.2817  0.5407 -0.5602
10106TIP3    H254514   4.656   4.224   5.631 -0.2819  0.1779 -0.2785
10107TIP3   OH254515   4.186   2.461   5.871 -0.1775  0.9131 -0.1583
10107TIP3    H154516   4.131   2.478   5.794  0.2019  0.5354 -0.5207
10107TIP3    H254517   4.150   2.380   5.908  0.6513  0.1957 -0.8877
10108TIP3   OH254518   8.801   3.533   6.538  0.1039  0.0589  0.3764
10108TIP3    H154519   8.723   3.539   6.593  1.2412  0.5394  1.9940
10108TIP3    H254520   8.808   3.440   6.517 -2.4015  0.2868 -2.1386
10109TIP3   OH254521   3.801   4.326   5.293 -0.5705 -0.6033 -0.0419
10109TIP3    H154522   3.746   4.271   5.348  1.5224 -1.1968  1.5872
10109TIP3    H254523   3.744   4.399   5.269 -2.1451 -1.3059  1.2882
10110TIP3   OH254524   3.077   3.048   5.546 -0.5332  0.4860 -0.2890
10110TIP3    H154525   3.151   3.006   5.501  0.1318  1.9799 -0.6423
10110TIP3    H254526   3.101   3.047   5.638  0.7100  2.3550 -0.5407
10111TIP3   OH254527   8.677   6.504   6.287  0.3740 -0.3006  0.1181
10111TIP3    H154528   8.615   6.532   6.354  1.2533  1.1545  0.3611
10111TIP3    H254529   8.660   6.563   6.213  0.8279 -0.5254 -0.1699
10112TIP3   OH254530   8.725   7.396   5.326  0.1104  0.3534  0.1546
10112TIP3    H154531   8.732   7.313   5.374 -1.0110  1.1921  1.8897
10112TIP3    H254532   8.642   7.389   5.279 -1.6044  1.5618  2.7342
10113TIP3   OH254533   7.285   0.647   6.138  0.7297  0.8635 -0.3480
10113TIP3    H154534   7.326   0.569   6.100 -0.4680  0.3986 -0.7310
10113TIP3    H254535   7.249   0.616   6.221 -1.4328  0.4735 -1.3609
10114TIP3   OH254536   8.816   3.152   4.809 -0.4427 -0.4633  0.3599
10114TIP3    H154537   8.817   3.216   4.881 -1.0596 -1.5847  1.4074
10114TIP3    H254538   8.741   3.177   4.756  0.0909  0.4523  0.0201
10115TIP3   OH254539   2.773   6.800   5.114  0.4004 -0.0809  0.0084
10115TIP3    H154540   2.721   6.732   5.071 -0.2457  0.7460 -0.5543
10115TIP3    H254541   2.862   6.786   5.082 -0.0139  0.3243 -1.3859
10116TIP3   OH254542   4.594   7.561   5.171 -0.1410  0.1089 -0.4373
10116TIP3    H154543   4.560   7.601   5.091  1.2770  1.7985 -0.2660
10116TIP3    H254544   4.679   7.603   5.185  1.3153 -2.7228  0.0264
10117TIP3   OH254545   6.127   1.563   5.466 -0.2379  0.3784  0.6315
10117TIP3    H154546   6.215   1.556   5.503 -0.5093 -1.9255  1.0110
10117TIP3    H254547   6.136   1.626   5.394  1.5264  0.7747  1.1477
10118TIP3   OH254548   0.415   5.187   5.940 -0.4533 -0.0672 -0.2745
10118TIP3    H154549   0.441   5.279   5.933 -0.4246 -0.1478 -1.3780
10118TIP3    H254550   0.463   5.143   5.870 -1.0956 -0.7859 -0.2794
10119TIP3   OH254551   5.126   7.273   6.043  0.2499 -0.3043 -0.3113
10119TIP3    H154552   5.159   7.278   5.953  1.0974  1.3309  0.0435
10119TIP3    H254553   5.205   7.267   6.096 -0.1654  0.5161  0.4086
10120TIP3   OH254554   0.596   8.517   6.681 -0.9181 -0.4935  0.5831
10120TIP3    H154555   0.639   8.484   6.760 -0.6706 -0.4346  0.4758
10120TIP3    H254556   0.666   8.519   6.615 -1.8203 -3.7718 -0.6492
10121TIP3   OH254557   1.047   4.439   5.142 -0.5564  0.5782  0.1846
10121TIP3    H154558   1.019   4.406   5.057  0.1111  1.3618 -0.3576
10121TIP3    H254559   1.037   4.365   5.201 -0.8794 -0.0270 -0.6100
10122TIP3   OH254560   4.539   2.958   6.666 -0.4403 -0.7583  0.4103
10122TIP3    H154561   4.543   3.032   6.726 -1.1871  0.1284 -0.5856
10122TIP3    H254562   4.592   2.985   6.591 -0.1263 -1.5437  0.3349
10123TIP3   OH254563   4.258   3.887   5.915 -0.0643 -0.4051  0.0068
10123TIP3    H154564   4.331   3.831   5.888  1.8825  1.4926  0.9284
10123TIP3    H254565   4.260   3.883   6.011  0.4418  1.5063  0.1184
10124TIP3   OH254566   8.030   2.869   5.932 -0.1415  0.0651 -0.4263
10124TIP3    H154567   7.952   2.894   5.983 -0.6455 -0.7498 -0.7785
10124TIP3    H254568   8.029   2.929   5.857 -1.7096 -1.3454 -1.6102
10125TIP3   OH254569   8.936   0.287   6.114  0.1857  0.4254 -0.3070
10125TIP3    H154570   8.941   0.340   6.193 -0.8086  1.8723 -1.1524
10125TIP3    H254571   8.924   0.351   6.043 -0.8484 -0.9192 -1.4079
10126TIP3   OH254572   7.989   7.431   5.746 -0.2129  0.1192  0.7465
10126TIP3    H154573   8.066   7.380   5.720  0.0229  1.1637 -0.7127
10126TIP3    H254574   8.024   7.497   5.806  0.0785  0.6846 -0.0273
10127TIP3   OH254575   8.697   3.913   5.660 -0.8919 -0.1093  0.0369
10127TIP3    H154576   8.687   3.970   5.736 -3.1070 -0.4844  0.0943
10127TIP3    H254577   8.748   3.964   5.597 -2.2210  1.6786  0.3438
10128TIP3   OH254578   2.843   3.048   6.035 -0.3102  0.6967  0.1410
10128TIP3    H154579   2.927   3.095   6.037  0.5203 -0.6058 -1.5312
10128TIP3    H254580   2.853   2.984   5.964 -2.2634 -0.3769  0.7619
10129TIP3   OH254581   5.846   7.504   6.168 -0.0313 -0.2423  0.4188
10129TIP3    H154582   5.813   7.421   6.133  1.5972 -1.1224  0.8830
10129TIP3    H254583   5.830   7.499   6.262  1.9054 -0.9491  0.7384
10130TIP3   OH254584   9.002   4.977   5.426 -0.1226 -0.5910  0.1458
10130TIP3    H154585   8.945   4.925   5.369  0.0144 -0.7595  0.1629
10130TIP3    H254586   9.090   4.944   5.410 -0.0032 -0.2100 -0.0135
10131TIP3   OH254587   4.429   8.048   6.792 -0.3640 -0.1597 -0.5498
10131TIP3    H154588   4.419   8.132   6.837  1.6632  1.2370 -2.5367
10131TIP3    H254589   4.388   8.061   6.707  0.6776 -0.9061 -1.1868
10132TIP3   OH254590   7.314   0.815   6.573 -0.5219  0.4593 -0.0236
10132TIP3    H154591   7.295   0.809   6.480  1.2208 -2.2528 -0.3177
10132TIP3    H254592   7.388   0.874   6.580 -1.3600  1.5635 -0.1820
10133TIP3   OH254593   4.498   8.054   5.243 -0.0970  0.6454  0.0558
10133TIP3    H154594   4.475   7.984   5.304  0.9346  0.1252 -0.1492
10133TIP3    H254595   4.424   8.115   5.249 -1.4365 -0.8447 -0.3829
10134TIP3   OH254596   9.154   6.102   5.415 -0.0505 -0.6201 -0.2313
10134TIP3    H154597   9.194   6.021   5.448  0.9589 -0.4009 -0.8467
10134TIP3    H254598   9.222   6.141   5.360 -0.8406  0.2077 -0.6496
10135TIP3   OH254599   4.096   1.471   6.336  0.0246 -0.6161  0.3920
10135TIP3    H154600   4.014   1.497   6.295  0.1717  0.2177  0.6150
10135TIP3    H254601   4.108   1.534   6.408  1.3009 -0.1736 -0.1835
10136TIP3   OH254602   7.180   8.236   4.737  0.6532  0.5823 -0.3007
10136TIP3    H154603   7.190   8.173   4.666  1.4955 -0.6707  0.8719
10136TIP3    H254604   7.207   8.188   4.816  1.3286  2.4033  0.6473
10137TIP3   OH254605   5.195   1.812   5.540  0.0338  0.5194 -0.4317
10137TIP3    H154606   5.195   1.842   5.631 -0.1161 -1.4413  0.2521
10137TIP3    H254607   5.272   1.755   5.534 -0.9622 -0.8116 -0.9959
10138TIP3   OH254608   7.850   7.189   5.277 -0.5819 -0.0629  0.7519
10138TIP3    H154609   7.883   7.104   5.248 -2.2079 -0.4714 -0.0195
10138TIP3    H254610   7.902   7.210   5.354  0.9870 -0.9514 -0.0102
10139TIP3   OH254611   0.258   8.577   7.109 -0.1302  0.1198 -0.4777
10139TIP3    H154612   0.176   8.619   7.083  0.8866  2.1965 -0.5171
10139TIP3    H254613   0.325   8.618   7.055  0.9776 -1.5211 -0.4429
10140TIP3   OH254614   8.532   6.568   5.025 -0.0540  0.6473  0.1908
10140TIP3    H154615   8.444   6.545   5.055  0.7406 -1.2205  1.2197
10140TIP3    H254616   8.576   6.599   5.104  1.0197 -1.0297  0.2771
10141TIP3   OH254617   5.352   2.534   5.507 -0.5576  0.3116 -0.1095
10141TIP3    H154618   5.389   2.516   5.594 -0.5289  0.2977 -0.1245
10141TIP3    H254619   5.402   2.609   5.474  1.2943 -1.3508 -1.2627
10142TIP3   OH254620   3.339   3.374   5.664 -0.5243  0.0968  0.1845
10142TIP3    H154621   3.354   3.443   5.728 -0.9381  0.2141  0.1598
10142TIP3    H254622   3.311   3.299   5.715  4.7476 -1.8335  0.8995
10143TIP3   OH254623   6.700   4.452   5.942 -0.1619  0.3528 -0.0889
10143TIP3    H154624   6.700   4.424   6.034 -1.0711  1.7528  0.3568
10143TIP3    H254625   6.707   4.547   5.945 -0.1508  0.4206 -1.4853
10144TIP3   OH254626   9.093   1.746   5.834  0.2728 -0.4663  0.1696
10144TIP3    H154627   9.167   1.772   5.779 -1.4170 -1.6908 -2.9334
10144TIP3    H254628   9.050   1.828   5.858  0.8402  0.0971 -0.7026
10145TIP3   OH254629   2.824   1.019   5.732  0.8779  0.1098  0.3274
10145TIP3    H154630   2.754   0.961   5.700  0.5833  1.1302 -0.9633
10145TIP3    H254631   2.896   1.004   5.671  1.1105  0.4585  0.5178
10146TIP3   OH254632   8.707   2.553   5.013 -0.1077  0.0210 -0.0816
10146TIP3    H154633   8.766   2.596   4.950 -0.9534 -0.4969 -1.2612
10146TIP3    H254634   8.762   2.487   5.055  0.0542 -0.8149 -1.5486
10147TIP3   OH254635   7.155   3.411   5.715  0.0337  0.3190  0.1876
10147TIP3    H154636   7.185   3.461   5.792 -0.5099 -1.8682  1.9469
10147TIP3    H254637   7.191   3.458   5.640  0.6550  2.5399  1.7755
10148TIP3   OH254638   6.626   2.146   5.889 -0.1557 -0.1710 -0.8002
10148TIP3    H154639   6.615   2.241   5.883 -1.9439 -0.3333 -0.5957
10148TIP3    H254640   6.694   2.134   5.956 -2.0121  0.9263  1.3959
10149TIP3   OH254641   1.008   5.143   5.431  0.5329  0.1712  0.2307
10149TIP3    H154642   1.060   5.173   5.357  0.0326  1.6789  0.4511
10149TIP3    H254643   1.072   5.127   5.501  0.7764  1.5390  0.3494
10150TIP3   OH254644   2.273   6.249   5.946 -0.6774  0.8349  0.0048
10150TIP3    H154645   2.340   6.295   5.997 -1.6887  1.7381  0.5579
10150TIP3    H254646   2.221   6.319   5.906 -1.9766  0.1884  0.4878
10151TIP3   OH254647   1.004   2.944   5.870 -0.4967  0.2348  0.6057
10151TIP3    H154648   0.936   2.877   5.874 -0.1846 -0.0975  0.3371
10151TIP3    H254649   0.977   3.002   5.798 -0.2202 -0.1970  0.1521
10152TIP3   OH254650   8.680   0.388   6.333 -0.1602 -0.0448 -0.3881
10152TIP3    H154651   8.686   0.306   6.285 -0.0179 -0.2754  0.0135
10152TIP3    H254652   8.760   0.392   6.386  0.1403  0.6625 -0.8764
10153TIP3   OH254653   0.731   5.925   6.098  0.2665  0.1500  0.1119
10153TIP3    H154654   0.727   5.962   6.186  1.2650  1.2967 -0.2927
10153TIP3    H254655   0.800   5.975   6.055  0.9324 -1.4799 -0.8143
10154TIP3   OH254656   1.638   4.552   6.855 -0.5282 -0.0066 -0.3599
10154TIP3    H154657   1.568   4.589   6.802  0.5927  1.8112 -0.6665
10154TIP3    H254658   1.647   4.613   6.928 -0.7681 -1.4541  0.9276
10155TIP3   OH254659   8.962   1.024   5.826 -0.6739 -0.1458  0.2103
10155TIP3    H154660   9.050   1.058   5.843 -0.1855 -1.5615  0.6467
10155TIP3    H254661   8.913   1.100   5.793  0.5603  0.7836  0.4367
10156TIP3   OH254662   3.267   8.954   5.954 -0.0292  0.1949 -0.7294
10156TIP3    H154663   3.262   8.979   6.046  4.1506  2.0763 -0.7902
10156TIP3    H254664   3.292   8.862   5.955  0.8503  0.4274  0.0858
10157TIP3   OH254665   6.656   7.821   5.983  0.4332 -0.2634  0.4485
10157TIP3    H154666   6.721   7.863   5.927 -0.6148 -0.4062 -0.9376
10157TIP3    H254667   6.606   7.893   6.020 -0.4936 -0.2129 -0.8466
10158TIP3   OH254668   6.417   4.822   5.751 -0.1674  0.1802  0.3105
10158TIP3    H154669   6.347   4.851   5.810  0.6865  0.9366  0.9708
10158TIP3    H254670   6.497   4.855   5.790  0.6660 -1.4069  0.0146
10159TIP3   OH254671   2.451   6.512   5.730 -0.5548  0.1575 -0.5960
10159TIP3    H154672   2.367   6.543   5.766 -0.0483  1.0621 -0.1626
10159TIP3    H254673   2.473   6.575   5.662  0.4393  0.7192  0.2251
10160TIP3   OH254674   0.778   6.201   5.301  0.0705  0.1126  0.1914
10160TIP3    H154675   0.690   6.163   5.313  0.6515 -1.0127  1.1651
10160TIP3    H254676   0.772   6.287   5.342 -0.3950 -0.2445  0.9081
10161TIP3   OH254677   7.798   8.474   4.981  0.3869  0.4627  0.5299
10161TIP3    H154678   7.711   8.512   4.984 -0.5648 -1.6140  1.4257
10161TIP3    H254679   7.783   8.379   4.988  2.6679 -0.0077 -0.0947
10162TIP3   OH254680   0.565   2.000   6.509 -0.2949 -0.5255  0.7396
10162TIP3    H154681   0.497   1.946   6.549 -0.6379 -1.8454 -1.4542
10162TIP3    H254682   0.533   2.016   6.420  1.3140  0.5856  0.3308
10163TIP3   OH254683   2.429   1.547   5.195 -0.0565  0.3026 -0.1505
10163TIP3    H154684   2.471   1.495   5.127  4.1782 -0.0142  2.3651
10163TIP3    H254685   2.448   1.500   5.277 -0.2325  3.2665  1.7474
10164TIP3   OH254686   1.804   0.960   7.083 -0.0289 -0.3762  0.1513
10164TIP3    H154687   1.807   1.044   7.036 -1.6168 -0.2052  0.3169
10164TIP3    H254688   1.765   0.982   7.168 -1.1645 -1.4037 -0.0899
10165TIP3   OH254689   8.137   8.281   7.327  0.2017 -0.2139 -0.3238
10165TIP3    H154690   8.195   8.340   7.375 -2.7541 -0.7579  4.6602
10165TIP3    H254691   8.177   8.195   7.335  0.2697 -0.1278  0.3201
10166TIP3   OH254692   1.499   3.528   6.011 -0.6630  0.2067  0.0273
10166TIP3    H154693   1.493   3.448   6.064  0.4768 -2.1879 -3.1054
10166TIP3    H254694   1.591   3.552   6.015 -0.8997  1.0403  0.5083
10167TIP3   OH254695   0.240   2.841   5.135 -0.1867 -0.0058  0.1732
10167TIP3    H154696   0.249   2.934   5.114  1.9922 -0.5927 -1.9937
10167TIP3    H254697   0.314   2.822   5.193 -0.3156 -0.4789  0.1850
10168TIP3   OH254698   0.854   4.562   6.680 -0.4780 -0.3840  0.0692
10168TIP3    H154699   0.847   4.498   6.751  0.7039  0.5742  1.1078
10168TIP3    H254700   0.764   4.584   6.658 -0.8818 -1.8134  0.2407
10169TIP3   OH254701   3.652   5.911   5.255  0.2890 -0.1716  0.0189
10169TIP3    H154702   3.649   6.002   5.228 -0.8370 -0.5938 -1.4324
10169TIP3    H254703   3.745   5.890   5.257  0.5443  0.9193  0.0483
10170TIP3   OH254704   0.349   8.894   5.117  0.2252  0.0831  0.0763
10170TIP3    H154705   0.370   8.988   5.114 -1.5964  0.5016 -1.8460
10170TIP3    H254706   0.350   8.873   5.210  2.4921  1.5392  0.4641
10171TIP3   OH254707   0.300   7.929   6.573  0.0887 -0.1596 -0.0936
10171TIP3    H154708   0.309   7.959   6.664  2.2225 -0.6479 -0.1068
10171TIP3    H254709   0.331   7.839   6.574 -0.7573 -0.4825 -1.1674
10172TIP3   OH254710   2.645   0.408   5.744  0.2957 -0.6134  0.2483
10172TIP3    H154711   2.659   0.499   5.768  1.3223  0.1640 -2.7968
10172TIP3    H254712   2.727   0.364   5.769  0.6746 -0.1950 -0.2263
10173TIP3   OH254713   5.017   1.014   5.327 -0.0254  0.0667  0.1797
10173TIP3    H154714   5.018   0.982   5.417 -0.2719 -0.0384  0.1445
10173TIP3    H254715   4.984   0.941   5.275 -1.7544  0.7429  0.2465
10174TIP3   OH254716   8.577   0.030   4.634  0.7678 -0.2880  0.2809
10174TIP3    H154717   8.511   0.073   4.688  1.1494  1.7639 -0.7698
10174TIP3    H254718   8.626   0.102   4.594  2.5405 -1.7363 -0.3217
10175TIP3   OH254719   2.853   1.025   5.343 -0.7956  0.4403  0.1031
10175TIP3    H154720   2.918   0.956   5.359 -0.8137  0.5301  0.5746
10175TIP3    H254721   2.770   0.979   5.337 -0.7429  0.3684 -0.0967
10176TIP3   OH254722   7.197   0.432   6.861  0.5377  0.5825 -0.2382
10176TIP3    H154723   7.253   0.484   6.919  2.7492  0.5131 -2.1468
10176TIP3    H254724   7.178   0.490   6.788 -0.4502  0.0066 -0.4599
10177TIP3   OH254725   8.256   1.921   6.235 -0.2724 -0.3227  0.5027
10177TIP3    H154726   8.180   1.962   6.195  0.0940  0.9945  1.0808
10177TIP3    H254727   8.229   1.903   6.325  0.0070 -0.0755  0.6389
10178TIP3   OH254728   3.044   7.946   5.906  0.0294 -0.3081 -0.2286
10178TIP3    H154729   3.076   7.901   5.984 -0.6079 -0.3069  0.0373
10178TIP3    H254730   2.963   7.900   5.884  0.2736 -0.3950 -0.9697
10179TIP3   OH254731   7.068   3.565   5.397  0.1430  0.2750  0.2727
10179TIP3    H154732   7.073   3.476   5.361 -1.6187 -0.3841  1.5179
10179TIP3    H254733   7.123   3.562   5.475 -0.2244  0.1631  0.5279
10180TIP3   OH254734   0.444   6.291   5.539 -0.0362  0.6239  0.5583
10180TIP3    H154735   0.426   6.221   5.603 -0.4291  0.4616  0.2729
10180TIP3    H254736   0.427   6.372   5.587 -0.8832  0.4929  0.5067
10181TIP3   OH254737   5.986   3.946   6.351  0.0892 -0.1835  0.1647
10181TIP3    H154738   5.907   3.906   6.387 -0.2476  0.0575 -0.2909
10181TIP3    H254739   5.968   4.040   6.355  0.9827 -0.0389  1.4916
10182TIP3   OH254740   4.059   2.194   5.587  0.5087 -0.6112 -0.1862
10182TIP3    H154741   4.013   2.228   5.665  1.2273  0.2608 -0.1223
10182TIP3    H254742   4.141   2.244   5.584  1.0786 -1.5600 -0.7719
10183TIP3   OH254743   0.515   5.466   6.048 -0.1790 -0.5437  0.0364
10183TIP3    H154744   0.464   5.508   6.117  0.8700 -0.5743  0.8539
10183TIP3    H254745   0.601   5.451   6.087  0.4346 -0.5889 -1.2743
10184TIP3   OH254746   3.840   3.496   5.502  0.1446 -0.1444 -0.3366
10184TIP3    H154747   3.753   3.538   5.500  0.7649  1.1779 -1.3161
10184TIP3    H254748   3.824   3.407   5.472 -0.7123  0.4735 -1.8305
10185TIP3   OH254749   4.172   0.761   6.465 -0.3291 -0.0983  0.4204
10185TIP3    H154750   4.185   0.856   6.462 -2.3132  0.2057  0.4102
10185TIP3    H254751   4.105   0.744   6.400 -0.1999 -1.4892  0.6332
10186TIP3   OH254752   1.296   6.383   4.861 -0.5978 -0.0348  0.0100
10186TIP3    H154753   1.271   6.292   4.849  1.0352 -0.6349  0.7951
10186TIP3    H254754   1.360   6.400   4.792 -0.5514  0.3628  0.1448
10187TIP3   OH254755   2.461   5.481   5.548 -0.6068 -0.3199 -0.2284
10187TIP3    H154756   2.420   5.405   5.509 -0.8985 -0.3185  0.0722
10187TIP3    H254757   2.450   5.551   5.483  0.4251 -0.7419 -0.8784
10188TIP3   OH254758   8.383   1.030   5.664 -0.3714 -1.0232 -0.4578
10188TIP3    H154759   8.350   1.076   5.741  1.5241 -1.7241  0.8504
10188TIP3    H254760   8.434   1.096   5.616  2.0968 -1.5588  1.2597
10189TIP3   OH254761   0.701   8.091   6.019  0.3301 -0.6735 -0.2749
10189TIP3    H154762   0.704   8.076   5.925 -3.2850 -0.1377 -0.6181
10189TIP3    H254763   0.643   8.022   6.052 -0.7759  0.8398  1.0754
10190TIP3   OH254764   8.113   8.886   6.976 -0.2469 -0.1530  0.5774
10190TIP3    H154765   8.201   8.894   6.940 -0.5789  0.4708 -0.1430
10190TIP3    H254766   8.110   8.798   7.013  0.5133 -0.3728  0.1462
10191TIP3   OH254767   7.777   4.615   5.870  0.1090  0.1424 -0.6630
10191TIP3    H154768   7.827   4.668   5.931 -0.7536 -1.0614  1.1790
10191TIP3    H254769   7.834   4.541   5.850  0.4101  0.5608 -1.3787
10192TIP3   OH254770   6.728   8.466   5.511 -0.4950  0.4412  0.4612
10192TIP3    H154771   6.699   8.547   5.554  0.2832  0.9032  0.1358
10192TIP3    H254772   6.820   8.482   5.490 -0.5317 -0.2575 -0.2551
10193TIP3   OH254773   6.993   3.793   5.518  0.1544 -0.1721  0.2633
10193TIP3    H154774   6.927   3.825   5.456  0.2714  0.1273  0.2922
10193TIP3    H254775   7.045   3.730   5.467 -0.6643 -1.0300  0.4675
10194TIP3   OH254776   7.551   8.345   6.584  0.3138  0.5241  0.3055
10194TIP3    H154777   7.618   8.285   6.617  0.3870 -0.5756 -1.6477
10194TIP3    H254778   7.599   8.407   6.530 -0.2471 -1.1951 -2.3905
10195TIP3   OH254779   6.950   3.424   6.411 -0.1818 -0.2238  0.2319
10195TIP3    H154780   6.897   3.495   6.375  0.0513  0.2434  0.7958
10195TIP3    H254781   6.887   3.364   6.449 -0.3369  0.1340  0.5513
10196TIP3   OH254782   2.073   6.925   6.021 -0.3336  0.6675 -0.0620
10196TIP3    H154783   2.103   6.941   6.110 -0.6895 -1.2157  0.4362
10196TIP3    H254784   2.137   6.971   5.966  1.8215 -0.8222  1.0586
10197TIP3   OH254785   8.735   1.681   5.308 -0.3402  0.7511  0.1510
10197TIP3    H154786   8.712   1.719   5.392 -0.2097 -0.3576  0.7019
10197TIP3    H254787   8.688   1.597   5.306 -1.1188  1.1711 -1.2868
10198TIP3   OH254788   4.324   0.068   6.284  0.0194 -0.1950  0.3698
10198TIP3    H154789   4.252   0.013   6.254  1.3254 -1.0592 -1.3330
10198TIP3    H254790   4.297   0.157   6.265 -1.0078 -0.4273  0.7070
10199TIP3   OH254791   0.279   8.024   6.051  0.1922  0.0502  0.1677
10199TIP3    H154792   0.298   7.946   5.998 -0.5794 -0.6842  0.9504
10199TIP3    H254793   0.232   7.991   6.127  1.5653  1.0329  1.5134
10200TIP3   OH254794   1.254   5.144   5.880 -0.4376  0.0795  0.1718
10200TIP3    H154795   1.224   5.080   5.816 -1.2757 -0.1344  0.7555
10200TIP3    H254796   1.260   5.095   5.962  1.4343  0.1515  0.1190
10201TIP3   OH254797   9.115   8.330   5.481  0.0456 -0.1271 -0.7326
10201TIP3    H154798   9.114   8.328   5.385  0.2569  1.3861 -0.7844
10201TIP3    H254799   9.032   8.373   5.505  0.0468 -0.3889 -0.2420
10202TIP3   OH254800   0.501   4.172   5.992 -0.3038 -0.0112  0.5560
10202TIP3    H154801   0.528   4.236   6.058 -1.6796  2.5395 -1.1540
10202TIP3    H254802   0.409   4.155   6.012 -0.0342 -1.2557  0.7954
10203TIP3   OH254803   2.398   1.325   6.871 -0.3772 -0.3960  0.3246
10203TIP3    H154804   2.378   1.402   6.923  0.0353 -0.6571  0.8701
10203TIP3    H254805   2.480   1.292   6.906  0.3344 -0.1124 -1.0289
10204TIP3   OH254806   5.535   3.765   5.649 -0.5284 -0.2822  0.0122
10204TIP3    H154807   5.495   3.846   5.679  0.9227  0.3458  0.3315
10204TIP3    H254808   5.497   3.749   5.562 -0.7553  0.7885 -0.0917
10205TIP3   OH254809   1.647   6.646   6.641  0.2365  0.1023 -0.4031
10205TIP3    H154810   1.635   6.552   6.651  0.7788  0.0337 -0.4006
10205TIP3    H254811   1.715   6.669   6.705  0.4896  0.4043 -0.7768
10206TIP3   OH254812   4.448   2.021   6.258 -0.4355  0.3532  0.3483
10206TIP3    H154813   4.518   2.071   6.301  0.0186 -0.2317  0.2944
10206TIP3    H254814   4.369   2.045   6.307  0.0964 -0.4297  1.6412
10207TIP3   OH254815   2.459   7.200   5.300 -0.1629  0.3235  0.5841
10207TIP3    H154816   2.536   7.154   5.267  0.7049  1.3683  1.0595
10207TIP3    H254817   2.403   7.213   5.223  0.8006  0.7897 -0.0583
10208TIP3   OH254818   1.030   3.181   6.140 -0.1992  0.0866 -0.2767
10208TIP3    H154819   1.107   3.228   6.169  1.0096 -0.3510 -2.5033
10208TIP3    H254820   1.012   3.118   6.210  1.3958  0.2676  0.3301
10209TIP3   OH254821   0.354   6.207   4.762 -0.4032  0.0684  0.4787
10209TIP3    H154822   0.362   6.144   4.690 -0.3709  0.7819 -0.1585
10209TIP3    H254823   0.409   6.281   4.735 -0.3393  0.3207  1.2723
10210TIP3   OH254824   4.897   0.230   5.173 -0.1498 -0.4888  0.3095
10210TIP3    H154825   4.950   0.187   5.107  0.7615  2.4281 -1.0240
10210TIP3    H254826   4.956   0.290   5.217 -1.6000  0.4229  1.1192
10211TIP3   OH254827   7.820   7.825   6.847 -0.1498  0.0221  0.1699
10211TIP3    H154828   7.904   7.795   6.883 -1.1195  0.0772  2.6373
10211TIP3    H254829   7.765   7.841   6.924 -2.6734 -0.6376 -1.3821
10212TIP3   OH254830   7.707   0.823   7.217  0.0925 -0.2799 -0.2832
10212TIP3    H154831   7.801   0.811   7.203  0.2468 -1.0102  1.1697
10212TIP3    H254832   7.675   0.862   7.136  1.6283 -0.1318 -0.8456
10213TIP3   OH254833   7.172   1.014   5.198 -0.3947 -0.1592 -0.0368
10213TIP3    H154834   7.249   1.069   5.186 -1.3024  1.5537  1.5083
10213TIP3    H254835   7.202   0.944   5.257  0.4565 -0.7148 -1.0774
10214TIP3   OH254836   6.024   3.853   5.093  0.3274  0.2525  0.2977
10214TIP3    H154837   6.092   3.875   5.158  1.3331  1.5959 -1.1283
10214TIP3    H254838   6.070   3.857   5.009 -1.3252  0.2711 -0.6336
10215TIP3   OH254839   1.492   7.507   5.937  0.2275  0.3229 -0.1482
10215TIP3    H154840   1.406   7.510   5.894  0.1234 -0.1354  0.0180
10215TIP3    H254841   1.526   7.420   5.915 -0.5271 -0.5795  2.0002
10216TIP3   OH254842   8.942   6.451   6.370  0.2077  0.3201 -0.1601
10216TIP3    H154843   8.967   6.414   6.454  1.0344  0.5981 -0.2682
10216TIP3    H254844   8.852   6.423   6.356 -0.3921  1.3378  1.4131
10217TIP3   OH254845   4.898   0.356   6.532 -0.1137 -0.1680 -0.2073
10217TIP3    H154846   4.966   0.353   6.599  0.0221 -0.3850 -0.3563
10217TIP3    H254847   4.925   0.428   6.474  0.1800 -0.4884 -0.4714
10218TIP3   OH254848   5.726   2.555   5.470  0.6404  0.6936 -0.0081
10218TIP3    H154849   5.721   2.468   5.429 -3.1728 -0.2438  1.9577
10218TIP3    H254850   5.689   2.614   5.405  0.9441  0.4261 -0.4317
10219TIP3   OH254851   1.785   5.140   5.578  0.2008  0.4669  0.0792
10219TIP3    H154852   1.691   5.142   5.596  0.4111 -0.6369  1.4898
10219TIP3    H254853   1.808   5.048   5.585  1.1858  0.5714 -1.4901
10220TIP3   OH254854   6.289   7.344   5.809 -0.3943 -0.5817 -0.6135
10220TIP3    H154855   6.206   7.298   5.797  0.3615 -1.8642 -1.0790
10220TIP3    H254856   6.321   7.360   5.720  0.0469 -0.4536 -0.4348
10221TIP3   OH254857   3.886   6.617   6.907 -0.1357 -0.0081  0.6749
10221TIP3    H154858   3.925   6.658   6.829 -1.0573  0.1559  0.2946
10221TIP3    H254859   3.951   6.632   6.976  0.3709  0.4706  0.1100
10222TIP3   OH254860   3.113   5.681   6.786 -0.4671 -0.3037 -0.5724
10222TIP3    H154861   3.059   5.747   6.830  0.9426  0.4857  0.0603
10222TIP3    H254862   3.064   5.658   6.707 -2.0177 -0.1094  0.2993
10223TIP3   OH254863   6.408   5.630   5.426  0.4627 -0.2155 -0.2234
10223TIP3    H154864   6.395   5.684   5.504 -0.1785 -1.3173  0.4666
10223TIP3    H254865   6.501   5.639   5.406  0.8343 -0.6009  1.2094
10224TIP3   OH254866   7.089   1.341   6.855 -0.3558  0.9206  0.4833
10224TIP3    H154867   7.167   1.321   6.802 -0.5987  1.4729 -0.0954
10224TIP3    H254868   7.020   1.356   6.791 -0.4721  2.3885  0.9097
10225TIP3   OH254869   8.441   1.782   6.100 -0.3797 -0.6137  0.0875
10225TIP3    H154870   8.414   1.691   6.106 -1.4529 -0.3530 -0.5484
10225TIP3    H254871   8.378   1.830   6.153  0.9861 -0.3649  1.5485
10226TIP3   OH254872   7.624   5.522   6.347 -0.4816 -0.5817 -0.3705
10226TIP3    H154873   7.638   5.614   6.372  1.1896 -1.1170  0.9056
10226TIP3    H254874   7.531   5.507   6.360 -0.3595  0.2754  1.9405
10227TIP3   OH254875   5.974   6.605   5.282 -0.3819  0.0290  0.3444
10227TIP3    H154876   6.020   6.661   5.219  0.0485 -0.3133  0.3530
10227TIP3    H254877   5.992   6.646   5.367  1.0189 -0.8288  0.4955
10228TIP3   OH254878   1.956   8.910   6.030 -0.0856 -0.2914  0.6832
10228TIP3    H154879   1.921   8.982   5.978 -0.0672 -1.1841 -0.5975
10228TIP3    H254880   2.033   8.946   6.073 -1.1990  1.0239  1.6975
10229TIP3   OH254881   4.403   1.891   6.011 -0.6803 -0.0098 -0.4931
10229TIP3    H154882   4.392   1.796   6.015  2.2423 -0.4327 -0.1730
10229TIP3    H254883   4.390   1.920   6.101 -0.1347 -0.3407 -0.2997
10230TIP3   OH254884   7.018   1.422   5.422  0.0897 -0.3158  0.3259
10230TIP3    H154885   6.925   1.442   5.415  0.4811  1.7928  0.5348
10230TIP3    H254886   7.033   1.405   5.515  0.0223 -0.1100  0.3731
10231TIP3   OH254887   8.388   0.480   4.832 -0.6122 -0.2026  0.2559
10231TIP3    H154888   8.423   0.542   4.897  1.9746  0.5662 -1.7121
10231TIP3    H254889   8.449   0.485   4.759 -2.2409 -2.6073 -1.4085
10232TIP3   OH254890   5.883   7.970   6.669  0.3195 -0.0989 -0.1742
10232TIP3    H154891   5.801   8.011   6.640  0.6104  0.0607 -0.7808
10232TIP3    H254892   5.927   8.038   6.720 -0.7299 -0.7559  1.6777
10233TIP3   OH254893   4.940   3.295   6.348 -0.1732  0.5081  0.0875
10233TIP3    H154894   5.000   3.357   6.388 -0.5981  0.9237  0.0906
10233TIP3    H254895   4.970   3.209   6.379  1.0685  0.6114 -0.7765
10234TIP3   OH254896   0.926   5.695   6.440 -0.0481  0.0390 -0.0546
10234TIP3    H154897   0.893   5.611   6.469 -0.3229 -0.8332 -2.6079
10234TIP3    H254898   0.968   5.676   6.356 -1.2470  2.6230 -1.3533
10235TIP3   OH254899   1.965   2.713   5.409 -0.5020  0.1733  0.5952
10235TIP3    H154900   1.950   2.620   5.422  1.9544 -0.3254  0.2553
10235TIP3    H254901   2.047   2.731   5.456  0.1480  1.7173 -1.0226
10236TIP3   OH254902   2.060   7.883   5.460 -0.0293 -0.6702  1.0026
10236TIP3    H154903   2.070   7.812   5.397  1.3945 -0.1314  0.5787
10236TIP3    H254904   2.054   7.838   5.545  0.4230 -1.3247  0.7033
10237TIP3   OH254905   6.984   3.825   6.030  0.7467 -0.1020 -0.1010
10237TIP3    H154906   6.925   3.809   5.957  0.5725  0.4492 -0.0903
10237TIP3    H254907   6.926   3.841   6.105  0.9188 -0.2996  0.0766
10238TIP3   OH254908   1.026   8.361   6.575  0.1717 -0.4981 -0.7418
10238TIP3    H154909   1.041   8.428   6.641  0.3735 -1.1642 -0.0917
10238TIP3    H254910   1.088   8.291   6.598 -1.8480 -2.0716  0.2259
10239TIP3   OH254911   1.337   0.625   5.818 -0.5433  0.2978 -0.0111
10239TIP3    H154912   1.298   0.627   5.905 -1.5771  1.3394 -0.4801
10239TIP3    H254913   1.336   0.716   5.788  4.3862  0.8903  0.8278
10240TIP3   OH254914   0.767   5.169   5.632 -0.2298 -0.2393 -0.0314
10240TIP3    H154915   0.795   5.080   5.608 -1.4564 -0.6527 -0.0298
10240TIP3    H254916   0.826   5.194   5.703  0.2756 -0.9777 -0.1757
10241TIP3   OH254917   9.116   7.452   5.071 -0.3858 -0.4830  0.1487
10241TIP3    H154918   9.124   7.522   5.006 -0.4196 -1.6995 -1.2158
10241TIP3    H254919   9.025   7.459   5.102 -0.0022  0.9132  1.0684
10242TIP3   OH254920   0.045   6.384   5.925 -0.4726 -0.5410  0.3553
10242TIP3    H154921  -0.015   6.358   5.995 -0.4602 -0.8146  0.2626
10242TIP3    H254922  -0.009   6.386   5.846 -0.2357 -1.3290  0.1743
10243TIP3   OH254923   1.311   6.543   6.202 -0.1138 -0.5148  0.1771
10243TIP3    H154924   1.303   6.485   6.277  0.0627  0.0922  0.6773
10243TIP3    H254925   1.323   6.485   6.127  0.0030 -1.1180  0.6606
10244TIP3   OH254926   7.641   8.238   5.013  0.3325 -0.0263  0.2016
10244TIP3    H154927   7.668   8.147   5.019 -0.9453 -0.3311  3.0860
10244TIP3    H254928   7.557   8.241   5.059 -0.9572  2.1691 -2.0221
10245TIP3   OH254929   1.235   7.313   4.811  0.0896  0.3102  0.5674
10245TIP3    H154930   1.163   7.301   4.873 -0.0652 -0.0978  0.3148
10245TIP3    H254931   1.225   7.241   4.749  0.0246  0.9115 -0.1404
10246TIP3   OH254932   2.323   5.286   5.353  0.7679  0.3600 -0.8227
10246TIP3    H154933   2.398   5.279   5.294  1.5223  0.4870  0.1056
10246TIP3    H254934   2.247   5.286   5.295  1.5259  1.6187 -1.8801
10247TIP3   OH254935   7.284   6.514   7.098  0.2604 -0.0190 -0.4061
10247TIP3    H154936   7.270   6.520   7.193 -1.4228 -0.2442 -0.5968
10247TIP3    H254937   7.342   6.439   7.087 -1.1287 -1.2824  0.3820
10248TIP3   OH254938   4.912   3.597   5.074  0.3871  0.1939 -0.0679
10248TIP3    H154939   4.942   3.507   5.086  0.1889 -0.2775 -2.6217
10248TIP3    H254940   4.991   3.650   5.083  0.5149 -0.1978  1.4088
10249TIP3   OH254941   7.243   4.863   6.442  0.2039 -0.0221 -0.2277
10249TIP3    H154942   7.292   4.809   6.505  0.5268 -0.5033 -0.8732
10249TIP3    H254943   7.311   4.904   6.388 -0.0676 -1.7876 -2.0374
10250TIP3   OH254944   3.562   2.776   6.412  0.6195 -0.3691  0.4646
10250TIP3    H154945   3.517   2.742   6.489  0.4508 -0.2600  0.4144
10250TIP3    H254946   3.648   2.734   6.414  0.9310  0.2738  1.1793
10251TIP3   OH254947   4.886   6.642   5.369 -0.3027  0.7167 -0.8038
10251TIP3    H154948   4.944   6.573   5.340  0.9937  1.4858 -0.1090
10251TIP3    H254949   4.837   6.668   5.290  1.1229  0.8396 -1.6676
10252TIP3   OH254950   6.819   0.574   4.878 -0.3741 -0.7331 -0.0938
10252TIP3    H154951   6.868   0.654   4.898 -0.4150 -0.5590 -0.6874
10252TIP3    H254952   6.728   0.603   4.870 -0.5534 -1.0232  0.7949
10253TIP3   OH254953   8.982   1.138   5.316 -0.6082  0.1725  0.4722
10253TIP3    H154954   8.963   1.220   5.272  0.5140  0.8706  1.2212
10253TIP3    H254955   9.034   1.163   5.392  0.2606 -1.2799  0.4040
10254TIP3   OH254956   6.902   0.287   5.125  0.2348  0.2679 -0.1341
10254TIP3    H154957   6.887   0.211   5.069 -1.8517 -0.0651  0.7965
10254TIP3    H254958   6.844   0.355   5.089 -0.6545  0.2446  1.1854
10255TIP3   OH254959   8.671   8.487   5.917  0.4808 -0.8956  0.1383
10255TIP3    H154960   8.633   8.556   5.972  0.3233 -0.5648 -0.3773
10255TIP3    H254961   8.704   8.423   5.979 -0.3060 -0.8598  0.6132
10256TIP3   OH254962   2.133   4.325   5.776  0.0956 -0.6888  0.1153
10256TIP3    H154963   2.056   4.321   5.719  1.2968  0.5767 -1.7187
10256TIP3    H254964   2.196   4.266   5.734  0.7933 -0.2046  0.4581
10257TIP3   OH254965   3.927   0.711   6.351 -0.0542 -0.3159  0.3329
10257TIP3    H154966   3.865   0.784   6.354  1.5908  1.1998  3.7231
10257TIP3    H254967   3.904   0.657   6.426  0.5351 -1.7275 -0.4614
10258TIP3   OH254968   7.500   7.518   6.168 -0.0173 -0.7060  0.3483
10258TIP3    H154969   7.419   7.570   6.169 -0.0268 -0.7222  0.8308
10258TIP3    H254970   7.535   7.528   6.257  0.1131 -1.3227  0.3646
10259TIP3   OH254971   4.087   0.530   5.897 -0.2131 -0.0238 -0.0594
10259TIP3    H154972   4.151   0.597   5.874 -1.8536  1.7148  0.1484
10259TIP3    H254973   4.014   0.545   5.836 -0.1175 -2.5475 -0.9337
10260TIP3   OH254974   0.106   2.805   6.265  0.1686 -0.1277  0.0923
10260TIP3    H154975   0.182   2.755   6.297  0.4269 -0.3349 -0.8173
10260TIP3    H254976   0.114   2.801   6.169  0.0408  1.4324 -0.0030
10261TIP3   OH254977   8.994   8.770   5.210 -0.3928 -0.2731 -0.4158
10261TIP3    H154978   8.999   8.790   5.303  0.5437 -0.5112 -0.4032
10261TIP3    H254979   8.902   8.785   5.187 -0.4755  0.5207  0.3724
10262TIP3   OH254980   7.850   6.644   4.914 -0.6066  0.1671 -0.6743
10262TIP3    H154981   7.840   6.646   5.009 -0.9855  2.0183 -0.7121
10262TIP3    H254982   7.940   6.617   4.900 -0.7868 -0.9357  0.1747
10263TIP3   OH254983   0.542   3.790   5.827  0.1865 -0.0213 -0.4892
10263TIP3    H154984   0.476   3.752   5.769  0.3290 -0.2107 -0.5315
10263TIP3    H254985   0.616   3.808   5.769  1.0988 -2.0722 -0.0567
10264TIP3   OH254986   0.094   3.246   6.521 -0.0323 -0.1036  0.0529
10264TIP3    H154987   0.116   3.158   6.492  0.1759 -0.3088  0.8033
10264TIP3    H254988   0.004   3.238   6.555  0.2600 -0.2104  0.8264
10265TIP3   OH254989   1.991   4.843   5.196  0.5381 -0.1540  0.2568
10265TIP3    H154990   2.031   4.901   5.261  1.2841 -0.9131  0.5027
10265TIP3    H254991   2.010   4.755   5.228 -0.0589 -0.5377 -0.4168
10266TIP3   OH254992   3.815   5.066   5.680  0.2842 -0.2643  0.2801
10266TIP3    H154993   3.903   5.075   5.643  0.1398 -0.2675 -0.0722
10266TIP3    H254994   3.775   5.152   5.667 -0.0648 -0.5207 -0.3561
10267TIP3   OH254995   3.162   3.511   5.383 -0.1836 -0.4425 -0.5768
10267TIP3    H154996   3.245   3.558   5.392 -0.3613 -0.2333 -0.0210
10267TIP3    H254997   3.182   3.422   5.412 -0.3485 -0.1877  0.3328
10268TIP3   OH254998   1.006   4.930   5.897 -1.0234  0.5501 -0.4542
10268TIP3    H154999   0.964   4.844   5.893  0.1615 -0.1467  1.0639
10268TIP3    H255000   1.088   4.920   5.850 -1.1999  1.0707 -0.8855
10269TIP3   OH255001   1.065   0.744   5.693  1.1136  0.1749 -0.8544
10269TIP3    H155002   1.144   0.783   5.729  1.0630  1.0509 -1.6637
10269TIP3    H255003   1.034   0.685   5.762  0.2757  2.7588  1.1373
10270TIP3   OH255004   3.012   0.708   5.386  0.1447  0.1182 -0.0446
10270TIP3    H155005   3.094   0.673   5.350  0.4021  1.0058 -0.3414
10270TIP3    H255006   3.011   0.678   5.477 -0.1233 -1.4837 -0.5470
10271TIP3   OH255007   1.049   8.966   6.482 -0.2076  0.2758  0.0672
10271TIP3    H155008   1.061   8.957   6.387 -0.5493  2.7258 -0.2926
10271TIP3    H255009   1.015   9.055   6.493  3.7412  1.7488  2.7715
10272TIP3   OH255010   8.464   3.647   5.240 -0.2786 -0.1498 -0.1500
10272TIP3    H155011   8.380   3.659   5.196  0.8147  0.2128 -2.2421
10272TIP3    H255012   8.520   3.605   5.175  0.8229 -1.5820  1.6218
10273TIP3   OH255013   0.130   3.662   6.744  0.4464 -0.3024 -0.4742
10273TIP3    H155014   0.147   3.723   6.672 -0.2986  1.1491  0.5311
10273TIP3    H255015   0.142   3.714   6.823 -0.2399 -1.4641  0.4267
10274TIP3   OH255016   3.303   4.782   6.304 -0.1102 -0.2687 -0.0876
10274TIP3    H155017   3.281   4.875   6.310  1.1753  0.0887 -0.4674
10274TIP3    H255018   3.287   4.748   6.392  0.3426  0.5437  0.3218
10275TIP3   OH255019   1.158   1.400   6.292 -0.5199  0.7823  0.7462
10275TIP3    H155020   1.155   1.485   6.249 -0.2228  0.2452 -0.3564
10275TIP3    H255021   1.182   1.420   6.383 -2.5636  2.0602  1.0704
10276TIP3   OH255022   2.761   6.944   6.022 -0.8431 -0.2894 -0.1965
10276TIP3    H155023   2.782   7.020   5.967  2.2382 -1.8704 -1.4557
10276TIP3    H255024   2.746   6.981   6.109 -1.3423  1.9048 -1.1548
10277TIP3   OH255025   2.716   6.195   6.457 -0.0847  0.6647 -0.6250
10277TIP3    H155026   2.657   6.258   6.498  0.8227  0.3883  1.2173
10277TIP3    H255027   2.658   6.128   6.421 -0.9466  0.6012  0.7921
10278TIP3   OH255028   7.578   5.194   5.751 -0.0054 -0.4438  0.2383
10278TIP3    H155029   7.571   5.237   5.837  0.0120 -0.2786  0.1590
10278TIP3    H255030   7.652   5.238   5.709 -0.5540  0.0889 -0.2011
10279TIP3   OH255031   1.153   4.546   5.394 -0.1065 -0.2148  0.4118
10279TIP3    H155032   1.205   4.625   5.377  2.2750 -1.7524 -0.0217
10279TIP3    H255033   1.086   4.546   5.326  0.0377  1.2715  0.2462
10280TIP3   OH255034   8.436   8.432   6.093  0.0371  0.0315  0.0090
10280TIP3    H155035   8.411   8.459   6.004 -0.7133  2.0623  0.7596
10280TIP3    H255036   8.497   8.501   6.122  1.1700 -1.2102  0.6871
10281TIP3   OH255037   8.029   0.124   6.187  0.6024  0.1912  0.3029
10281TIP3    H155038   8.023   0.156   6.277  1.5819  2.7680 -0.4679
10281TIP3    H255039   7.954   0.066   6.177 -0.3537  1.0036  2.3384
10282TIP3   OH255040   6.072   7.422   5.144 -0.3449 -1.0214  0.3734
10282TIP3    H155041   6.167   7.432   5.136 -0.6206  0.7907 -1.6719
10282TIP3    H255042   6.041   7.508   5.172 -1.4275 -1.5016  0.7120
10283TIP3   OH255043   2.147   2.256   6.083 -0.1835 -0.3679  0.1248
10283TIP3    H155044   2.151   2.215   6.170  1.3704 -0.4652  0.0501
10283TIP3    H255045   2.163   2.184   6.022  1.0391  0.0516 -0.0909
10284TIP3   OH255046   5.864   2.324   6.301 -0.2900  0.2201 -0.0164
10284TIP3    H155047   5.933   2.299   6.362  0.2796 -0.1905 -0.8173
10284TIP3    H255048   5.797   2.366   6.356 -0.0464 -0.6419  0.9633
10285TIP3   OH255049   6.497   0.988   4.910 -0.1247 -0.1008  0.3291
10285TIP3    H155050   6.478   1.073   4.871  0.2369 -0.3538 -0.4047
10285TIP3    H255051   6.445   0.987   4.991 -1.4604  0.1387 -0.4926
10286TIP3   OH255052   0.210   6.053   5.071  0.4081  0.5307 -0.0063
10286TIP3    H155053   0.148   5.981   5.077  0.7014  0.3587  1.2567
10286TIP3    H255054   0.186   6.112   5.143 -0.8552  2.5673 -1.9842
10287TIP3   OH255055   0.367   3.111   5.780  0.1046 -0.6158  0.4684
10287TIP3    H155056   0.295   3.148   5.831 -0.0638 -0.9748  0.4953
10287TIP3    H255057   0.411   3.052   5.840  2.1540  1.6529  1.3561
10288TIP3   OH255058   3.884   2.025   6.367 -0.1307  0.0314  0.0523
10288TIP3    H155059   3.925   2.031   6.454  0.0366  0.9428 -0.0764
10288TIP3    H255060   3.790   2.023   6.384 -0.0838 -0.3031  0.2754
10289TIP3   OH255061   8.483   6.579   6.475  0.2484 -0.5130  0.6265
10289TIP3    H155062   8.410   6.633   6.505  0.0072 -0.7509  0.4709
10289TIP3    H255063   8.515   6.535   6.554 -0.6627 -1.4744  0.4829
10290TIP3   OH255064   3.323   3.962   6.285  0.3522  0.0246 -0.0910
10290TIP3    H155065   3.289   3.947   6.374  0.0823 -1.0732 -0.3636
10290TIP3    H255066   3.393   4.026   6.297  0.9254 -0.7661  1.0415
10291TIP3   OH255067   2.320   6.725   6.673 -0.7449  0.3682  0.1178
10291TIP3    H155068   2.360   6.782   6.607 -0.8371  0.7224  0.3708
10291TIP3    H255069   2.394   6.675   6.709 -0.6937  0.1687 -0.2563
10292TIP3   OH255070   8.648   8.352   4.896  0.5094  0.2068 -0.2577
10292TIP3    H155071   8.724   8.310   4.936  0.8703  0.7218 -0.3931
10292TIP3    H255072   8.684   8.400   4.822 -0.0273  0.0162 -0.6478
10293TIP3   OH255073   2.540   7.351   6.154 -0.1323  0.0314  0.2384
10293TIP3    H155074   2.610   7.414   6.138  3.5138 -3.6894 -0.1002
10293TIP3    H255075   2.522   7.359   6.248  0.8260  1.0177  0.3548
10294TIP3   OH255076   3.813   5.705   6.334  0.4220  0.3354 -0.0189
10294TIP3    H155077   3.824   5.799   6.348  0.4029  0.8330 -2.7858
10294TIP3    H255078   3.802   5.696   6.240  0.4618 -2.4734  0.1594
10295TIP3   OH255079   0.909   6.989   5.511 -0.1015 -0.0061  0.1293
10295TIP3    H155080   0.835   7.048   5.524  0.4008  1.4969 -2.8093
10295TIP3    H255081   0.885   6.909   5.556 -2.4723  1.2168  1.1938
10296TIP3   OH255082   4.226   0.344   6.301 -0.0297  0.0177 -0.3027
10296TIP3    H155083   4.173   0.381   6.230  1.2287 -0.2225 -1.4160
10296TIP3    H255084   4.167   0.340   6.375 -1.0947  1.3140 -1.0276
10297TIP3   OH255085   7.338   6.584   5.722 -0.3442 -0.3167  0.2807
10297TIP3    H155086   7.347   6.622   5.635  3.1828  0.7446  0.9367
10297TIP3    H255087   7.298   6.653   5.775 -0.4048 -0.1073 -0.0380
10298TIP3   OH255088   0.011   8.329   6.104 -0.0298  0.3872 -0.3400
10298TIP3    H155089   0.019   8.317   6.010  1.1526 -0.3455 -0.1684
10298TIP3    H255090   0.050   8.415   6.120  1.0245 -0.0683 -0.3762
10299TIP3   OH255091   1.439   6.103   5.407  1.0291  0.3796  0.4357
10299TIP3    H155092   1.452   6.050   5.486  1.2970  0.7981  0.6840
10299TIP3    H255093   1.463   6.045   5.335  0.8823  0.0228  0.6692
10300TIP3   OH255094   2.118   8.194   6.540 -0.0121 -0.4127  0.2663
10300TIP3    H155095   2.196   8.234   6.580 -0.1621  0.7792 -0.5752
10300TIP3    H255096   2.114   8.232   6.452 -0.4491 -1.9532 -0.4208
10301TIP3   OH255097   7.244   9.104   6.050  0.5297  0.3296 -0.3673
10301TIP3    H155098   7.202   9.123   5.966 -1.5517  0.5741  0.6619
10301TIP3    H255099   7.189   9.149   6.115  0.2821 -2.2811  1.3923
10302TIP3   OH255100   4.685   3.129   6.205 -0.1764  0.1603 -0.5239
10302TIP3    H155101   4.726   3.215   6.194  1.8812 -0.9007 -1.8798
10302TIP3    H255102   4.624   3.122   6.132  1.2598 -0.3188 -1.7430
10303TIP3   OH255103   0.969   1.015   5.659 -0.6097 -0.3338 -0.4768
10303TIP3    H155104   1.009   0.935   5.624 -2.0645 -0.9230 -0.8266
10303TIP3    H255105   0.966   1.002   5.754 -0.8247 -0.6855 -0.5329
10304TIP3   OH255106   1.272   3.269   5.807 -0.3796 -0.3377 -0.1889
10304TIP3    H155107   1.257   3.180   5.775 -0.0069 -0.0951 -1.0565
10304TIP3    H255108   1.189   3.294   5.848 -0.5717 -0.9810 -0.1750
10305TIP3   OH255109   8.506   8.711   5.679  0.1788  0.0007  0.0265
10305TIP3    H155110   8.464   8.759   5.609  0.9243  2.0205  0.8887
10305TIP3    H255111   8.440   8.704   5.748  0.0521 -0.3000 -0.1222
10306TIP3   OH255112   7.574   8.970   5.371 -0.1143  0.0622 -0.0230
10306TIP3    H155113   7.622   9.036   5.422 -0.0152 -0.7492  0.9608
10306TIP3    H255114   7.641   8.914   5.334 -0.2001  0.4902 -0.8716
10307TIP3   OH255115   0.711   8.129   5.352 -0.0923  0.0606  0.0997
10307TIP3    H155116   0.696   8.059   5.416 -1.2998  0.6678  0.5058
10307TIP3    H255117   0.757   8.085   5.280  0.6319 -0.7951  1.0387
10308TIP3   OH255118   1.291   6.394   6.793  0.1759  0.3549 -0.0033
10308TIP3    H155119   1.196   6.389   6.800  0.2170  0.3795  0.6797
10308TIP3    H255120   1.308   6.411   6.700 -0.5241  1.2591  0.0253
10309TIP3   OH255121   0.648   5.901   5.811 -0.1262  0.0627 -0.2110
10309TIP3    H155122   0.688   5.934   5.730  2.0076  0.4545  0.9367
10309TIP3    H255123   0.716   5.911   5.877 -1.2724 -1.7275  1.3312
10310TIP3   OH255124   3.784   4.865   6.461  0.3940  0.3492 -0.1774
10310TIP3    H155125   3.707   4.875   6.404 -0.6892 -1.0258  0.9393
10310TIP3    H255126   3.802   4.771   6.459  0.7648  0.3769  1.1672
10311TIP3   OH255127   2.252   5.128   6.339  0.5615  0.6405 -0.1710
10311TIP3    H155128   2.183   5.147   6.403 -1.5222 -0.6804 -1.8927
10311TIP3    H255129   2.305   5.061   6.380 -1.5450 -1.1771 -0.2348
10312TIP3   OH255130   8.615   2.784   5.885 -0.0682 -0.2065  0.1681
10312TIP3    H155131   8.568   2.759   5.964  0.7013  0.8100  0.9568
10312TIP3    H255132   8.598   2.878   5.875  2.3480  0.3549  0.8794
10313TIP3   OH255133   7.405   6.294   5.580  0.0902  0.1537  0.0007
10313TIP3    H155134   7.314   6.292   5.549  0.1340  1.4312 -0.2345
10313TIP3    H255135   7.401   6.340   5.664  0.5532  0.3503 -0.0850
10314TIP3   OH255136   5.159   7.124   6.331 -0.3203  0.3191 -0.2324
10314TIP3    H155137   5.233   7.160   6.283 -0.2826 -0.1612 -0.5414
10314TIP3    H255138   5.152   7.034   6.300 -2.0533  0.8081 -1.4538
10315TIP3   OH255139   3.387   3.679   5.112  0.2487  0.0798  0.2601
10315TIP3    H155140   3.292   3.669   5.109  0.3489 -0.8090 -1.2194
10315TIP3    H255141   3.401   3.773   5.124 -0.7764 -0.0858  3.5899
10316TIP3   OH255142   1.574   4.382   5.392  0.3873  0.4410 -0.4033
10316TIP3    H155143   1.635   4.452   5.369 -0.3140  0.9375 -0.8405
10316TIP3    H255144   1.547   4.346   5.308 -0.5611  0.8131 -0.2778
10317TIP3   OH255145   9.094   6.637   5.024  0.0740  0.1586  0.2401
10317TIP3    H155146   9.189   6.651   5.032 -0.2105  2.8222 -0.3630
10317TIP3    H255147   9.068   6.688   4.948 -2.0896  0.8013  1.3191
10318TIP3   OH255148   8.171   6.700   5.038 -0.1383 -0.4347 -0.7992
10318TIP3    H155149   8.223   6.622   5.054  0.1985  0.0958  0.8813
10318TIP3    H255150   8.133   6.721   5.123  0.5590  1.7700 -0.9745
10319TIP3   OH255151   3.177   8.805   5.313  0.2409  0.5730 -0.1071
10319TIP3    H155152   3.181   8.719   5.355  0.5157  1.2882  1.3672
10319TIP3    H255153   3.086   8.831   5.321  0.1564  0.4242 -0.5605
10320TIP3   OH255154   8.744   1.186   5.563  0.5539  0.2040 -0.3764
10320TIP3    H155155   8.790   1.103   5.573 -0.4002 -0.3774 -0.7026
10320TIP3    H255156   8.733   1.196   5.468 -0.4494  0.0682 -0.2854
10321TIP3   OH255157   7.246   9.072   6.806  0.2396  0.0108 -0.3326
10321TIP3    H155158   7.204   9.156   6.822 -0.6382 -0.3952 -0.4343
10321TIP3    H255159   7.276   9.076   6.716 -0.1302  0.0903 -0.4564
10322TIP3   OH255160   7.926   1.710   5.103 -0.3295 -0.3202 -0.0094
10322TIP3    H155161   7.867   1.638   5.127  0.1777 -0.1491  1.9720
10322TIP3    H255162   8.012   1.680   5.131  0.0336  0.6695 -0.0315
10323TIP3   OH255163   6.754   6.295   5.084  0.0919 -0.1644  0.2353
10323TIP3    H155164   6.784   6.222   5.138  1.1879  0.0594 -0.0303
10323TIP3    H255165   6.661   6.305   5.104  0.8001  1.0716  3.4852
10324TIP3   OH255166   5.395   8.777   5.446 -0.3597 -0.5502  0.0695
10324TIP3    H155167   5.349   8.716   5.389 -1.2084 -0.8832  1.0616
10324TIP3    H255168   5.325   8.826   5.491  0.2893  0.2617  0.2287
10325TIP3   OH255169   0.103   0.323   6.706 -0.4668 -0.0142 -0.3404
10325TIP3    H155170   0.013   0.352   6.713 -0.1694  1.6718 -2.3184
10325TIP3    H255171   0.122   0.327   6.612  0.8822 -2.9044 -0.3067
10326TIP3   OH255172   8.114   7.876   4.957 -0.6761  0.1758 -0.0642
10326TIP3    H155173   8.149   7.950   4.908 -0.2963  0.2267  0.2768
10326TIP3    H255174   8.185   7.811   4.957 -0.4888  0.3780  0.8412
10327TIP3   OH255175   6.744   4.002   5.499  0.2167  0.5221 -0.0074
10327TIP3    H155176   6.648   4.004   5.489  0.2294  0.5176 -0.1238
10327TIP3    H255177   6.757   3.979   5.591  0.1396 -3.0065 -0.7621
10328TIP3   OH255178   6.551   6.627   6.521 -0.7321 -0.0092 -0.4520
10328TIP3    H155179   6.466   6.614   6.564 -1.2363 -0.8020 -1.6172
10328TIP3    H255180   6.616   6.603   6.587 -1.5117 -2.6902 -0.5405
10329TIP3   OH255181   3.437   5.412   5.245 -0.1900  0.1674 -1.0233
10329TIP3    H155182   3.500   5.484   5.252  0.0712 -0.1180 -0.4253
10329TIP3    H255183   3.488   5.333   5.263 -1.0850  0.0728  1.5121
10330TIP3   OH255184   2.044   7.872   5.986  0.3756  0.4080  0.0113
10330TIP3    H155185   2.090   7.874   5.902 -0.5830 -1.0007 -0.5800
10330TIP3    H255186   1.975   7.807   5.975  0.4578 -0.1008  2.0281
10331TIP3   OH255187   7.973   4.664   5.066  0.4755 -0.1175 -0.1075
10331TIP3    H155188   7.937   4.740   5.113 -0.1362 -0.0580 -0.6579
10331TIP3    H255189   8.062   4.656   5.099  0.6387  1.0042 -0.2373
10332TIP3   OH255190   1.901   8.963   5.649  0.4808 -0.8095 -0.5864
10332TIP3    H155191   1.909   8.869   5.662  0.3820 -0.9183 -1.2676
10332TIP3    H255192   1.845   8.993   5.721  0.9963 -1.1756 -0.0216
10333TIP3   OH255193   1.623   2.445   6.175 -0.3074 -0.4463 -0.3007
10333TIP3    H155194   1.577   2.502   6.236 -0.6814 -0.5058 -0.5259
10333TIP3    H255195   1.659   2.375   6.230 -1.3105 -0.9311 -0.2405
10334TIP3   OH255196   2.559   2.218   5.828 -0.1942  0.3840 -0.4530
10334TIP3    H155197   2.486   2.196   5.886 -0.4622 -0.1892 -0.9945
10334TIP3    H255198   2.604   2.290   5.872 -1.3832  1.0915 -0.3733
10335TIP3   OH255199   4.674   5.469   6.354  0.3556  0.0860  0.4261
10335TIP3    H155200   4.669   5.393   6.413  1.8064  0.7663  1.4785
10335TIP3    H255201   4.655   5.432   6.267  0.9376 -1.4836  0.9165
10336TIP3   OH255202   3.497   8.201   6.628 -0.0476 -0.4198  0.4097
10336TIP3    H155203   3.470   8.232   6.714 -2.2777 -0.1284 -0.3296
10336TIP3    H255204   3.564   8.264   6.600  0.6354 -0.4640  1.8488
10337TIP3   OH255205   7.695   5.264   5.118 -0.8112  0.1569  0.1033
10337TIP3    H155206   7.749   5.329   5.164 -0.9148  1.0205 -0.9552
10337TIP3    H255207   7.637   5.229   5.185  0.0074  0.3495  0.9285
10338TIP3   OH255208   0.337   7.881   4.895  0.1847 -0.0317  0.6245
10338TIP3    H155209   0.376   7.968   4.889  0.8818 -0.3111  0.9349
10338TIP3    H255210   0.308   7.861   4.806  1.6219 -0.1895  0.1612
10339TIP3   OH255211   2.357   0.498   5.831 -0.5737  0.7956  0.0844
10339TIP3    H155212   2.355   0.580   5.783  1.0165  0.9561  0.2446
10339TIP3    H255213   2.398   0.436   5.771 -3.5669 -0.4855 -0.8289
10340TIP3   OH255214   8.849   0.157   5.706 -0.1083  0.3500  0.0209
10340TIP3    H155215   8.797   0.159   5.786 -2.9793  2.2644 -1.7154
10340TIP3    H255216   8.829   0.072   5.667  0.3411 -0.0833  0.7127
10341TIP3   OH255217   0.649   5.351   4.902 -0.5023  0.1432 -0.8015
10341TIP3    H155218   0.632   5.319   4.991  0.9744  0.2912 -0.4502
10341TIP3    H255219   0.638   5.446   4.909 -1.2878  0.0789 -1.0096
10342TIP3   OH255220   2.004   3.339   4.928 -0.3458  0.0927  0.4293
10342TIP3    H155221   1.911   3.332   4.906 -0.2763  0.9050 -0.1437
10342TIP3    H255222   2.013   3.288   5.008 -1.5946  1.3011  1.3794
10343TIP3   OH255223   1.869   6.602   6.837  0.0711 -0.2029 -0.0198
10343TIP3    H155224   1.901   6.690   6.818 -1.0051  0.8897  2.6734
10343TIP3    H255225   1.941   6.544   6.812  1.0968  1.4818 -1.1928
10344TIP3   OH255226   7.265   1.650   5.161 -0.5321 -0.1579  0.1201
10344TIP3    H155227   7.331   1.685   5.102  2.2310 -2.9257  1.3106
10344TIP3    H255228   7.259   1.557   5.139 -1.6327 -0.6416  2.1810
10345TIP3   OH255229   7.916   7.543   6.121 -0.0467  0.4669  0.3956
10345TIP3    H155230   7.840   7.487   6.136 -0.7144  1.2344  0.0195
10345TIP3    H255231   7.927   7.591   6.204  0.3587 -0.0174  0.6266
10346TIP3   OH255232   8.764   2.210   5.284 -0.4766  1.0288 -0.4048
10346TIP3    H155233   8.670   2.215   5.298 -0.8444 -0.2958 -2.1062
10346TIP3    H255234   8.800   2.282   5.337 -2.3830  1.3648  0.5155
10347TIP3   OH255235   1.645   3.258   5.753  0.0695 -0.2722 -0.2920
10347TIP3    H155236   1.557   3.296   5.751  0.7277  1.2687 -1.1071
10347TIP3    H255237   1.655   3.226   5.842 -0.9641  0.4148  0.0859
10348TIP3   OH255238   7.532   9.174   6.799  0.2001  0.1844  0.0006
10348TIP3    H155239   7.576   9.258   6.813 -0.3507  0.2622  1.4071
10348TIP3    H255240   7.490   9.183   6.714 -0.7987  1.7809  0.6189
10349TIP3   OH255241   6.133   7.831   5.739  0.6552 -0.4463  0.0066
10349TIP3    H155242   6.143   7.859   5.829  2.2313  1.3438 -0.6480
10349TIP3    H255243   6.039   7.831   5.723  0.4209  0.3502  1.3100
10350TIP3   OH255244   8.952   1.998   5.356 -0.1845 -0.2625  0.4300
10350TIP3    H155245   8.950   2.066   5.289 -1.7294  0.2014  0.9201
10350TIP3    H255246   9.007   1.929   5.318 -1.0335 -0.0293 -1.3370
10351TIP3   OH255247   8.866   8.608   6.544  0.2827  0.2228  0.2730
10351TIP3    H155248   8.918   8.680   6.579  1.6152 -0.8757  0.6185
10351TIP3    H255249   8.789   8.604   6.601  0.8479  0.5265  1.0717
10352TIP3   OH255250   4.930   5.996   6.661 -0.5880 -0.3423 -1.2323
10352TIP3    H155251   4.944   5.917   6.609 -0.2995 -0.9206 -0.3068
10352TIP3    H255252   5.014   6.042   6.657  0.7647 -2.2164  1.6681
10353TIP3   OH255253   5.822   3.802   5.482  0.3964 -0.6964  0.2327
10353TIP3    H155254   5.789   3.847   5.559  2.2943  0.5333  0.3967
10353TIP3    H255255   5.866   3.724   5.517 -1.0532 -1.5947  0.1261
10354TIP3   OH255256   4.976   6.928   5.063  0.2371 -0.4772  0.0132
10354TIP3    H155257   4.900   6.960   5.014  1.7776  2.2982 -0.7192
10354TIP3    H255258   4.946   6.927   5.154 -1.4882 -2.1684 -0.4827
10355TIP3   OH255259   2.423   4.131   6.020  0.6032  0.1678  0.1072
10355TIP3    H155260   2.346   4.159   5.969  1.0814  2.0797  0.3780
10355TIP3    H255261   2.386   4.078   6.090 -0.3692  0.1486 -0.3916
10356TIP3   OH255262   3.851   7.389   5.499  0.3192  0.2831 -0.1097
10356TIP3    H155263   3.920   7.430   5.552  1.2933  0.8588 -1.7292
10356TIP3    H255264   3.867   7.422   5.411  0.1254 -2.3474 -1.2039
10357TIP3   OH255265   5.179   7.234   5.334 -0.3781  0.4430 -0.0701
10357TIP3    H155266   5.143   7.323   5.339 -1.9104 -0.1548  0.2170
10357TIP3    H255267   5.126   7.183   5.396  1.1252 -0.4766  0.5120
10358TIP3   OH255268   2.848   2.540   6.299  0.9441  0.1693  0.4248
10358TIP3    H155269   2.794   2.462   6.296  1.8852 -0.5123  0.5743
10358TIP3    H255270   2.859   2.559   6.392  0.7003  0.5028  0.3896
10359TIP3   OH255271   6.215   4.851   5.919 -0.1269 -0.1529  0.0755
10359TIP3    H155272   6.131   4.886   5.947 -0.8436 -2.3871  0.9146
10359TIP3    H255273   6.214   4.760   5.947  2.0967 -0.5695 -0.9635
10360TIP3   OH255274   0.963   7.228   5.682  0.0385 -0.4673  0.5933
10360TIP3    H155275   0.938   7.270   5.600  2.0018 -0.4540 -0.0633
10360TIP3    H255276   0.968   7.134   5.660  0.5086 -0.4701  0.6922
10361TIP3   OH255277   2.659   2.857   5.362 -0.1806 -0.3425  0.3567
10361TIP3    H155278   2.620   2.780   5.320 -1.3680  1.7872 -2.8256
10361TIP3    H255279   2.751   2.855   5.336 -0.4952 -0.0477 -0.8233
10362TIP3   OH255280   0.861   7.013   6.602 -0.1631 -0.4193 -0.0985
10362TIP3    H155281   0.928   7.020   6.670 -0.6422 -0.4931  0.3940
10362TIP3    H255282   0.889   6.940   6.548 -0.1637 -0.8522  0.4730
10363TIP3   OH255283   5.588   4.857   6.604 -0.0651  0.2956 -0.4491
10363TIP3    H155284   5.633   4.929   6.559 -0.2577  1.0260  0.4999
10363TIP3    H255285   5.496   4.886   6.608 -0.3677 -0.5384 -1.0989
10364TIP3   OH255286   7.926   8.032   6.587 -0.2079 -0.1430  0.7979
10364TIP3    H155287   7.998   8.004   6.644  0.7424  2.1078  0.7828
10364TIP3    H255288   7.968   8.081   6.517 -1.8311  2.9849  1.8551
10365TIP3   OH255289   0.745   1.529   4.976  0.1017  0.3625  0.2584
10365TIP3    H155290   0.838   1.510   4.963  0.1601  0.3450  0.6869
10365TIP3    H255291   0.700   1.467   4.919  0.3874  1.5885 -1.3764
10366TIP3   OH255292   3.287   2.869   5.499  0.1074 -0.1100  0.2540
10366TIP3    H155293   3.311   2.797   5.440 -0.7518 -0.5295  0.4141
10366TIP3    H255294   3.344   2.856   5.575  0.1666 -0.4493  0.1577
10367TIP3   OH255295   4.856   2.200   5.733 -0.4500 -0.3119  0.5384
10367TIP3    H155296   4.837   2.294   5.728  0.0756 -0.2677 -1.8976
10367TIP3    H255297   4.886   2.186   5.822  1.8978  2.3607  0.2993
10368TIP3   OH255298   5.011   1.288   5.251  0.1678 -0.1560 -0.4717
10368TIP3    H155299   5.010   1.196   5.276 -0.5647 -0.6697 -2.2576
10368TIP3    H255300   4.922   1.319   5.269 -0.4605 -0.6067 -2.4885
10369TIP3   OH255301   1.759   6.700   5.316  0.0327  0.1646  0.0101
10369TIP3    H155302   1.828   6.636   5.295  1.3573  0.9643  1.6674
10369TIP3    H255303   1.799   6.785   5.295 -0.1099  0.6939  1.7448
10370TIP3   OH255304   1.531   1.175   6.513  0.7114  0.2371  0.7260
10370TIP3    H155305   1.443   1.146   6.537  0.4639 -1.6768 -2.0780
10370TIP3    H255306   1.519   1.266   6.485 -0.4492 -0.0750  0.1404
10371TIP3   OH255307   3.683   2.227   5.331 -0.5937 -0.3054 -0.1695
10371TIP3    H155308   3.598   2.226   5.288  0.4395 -3.4054 -2.5017
10371TIP3    H255309   3.704   2.134   5.345  3.1170  0.1897 -1.3653
10372TIP3   OH255310   4.155   7.480   7.039 -0.4427  0.4824 -0.5861
10372TIP3    H155311   4.121   7.569   7.028 -1.5126  0.2261  0.4645
10372TIP3    H255312   4.248   7.493   7.060 -0.8817  1.4484  0.9347
10373TIP3   OH255313   3.083   3.975   5.908  0.3290 -0.3170  0.0406
10373TIP3    H155314   3.141   3.922   5.961  1.1698 -0.3710 -0.9040
10373TIP3    H255315   3.047   3.915   5.843  0.5288  0.0563 -0.4265
10374TIP3   OH255316   8.916   3.876   4.799  0.0672  0.3243 -0.3360
10374TIP3    H155317   9.009   3.861   4.784  0.4461  1.2747  0.8615
10374TIP3    H255318   8.887   3.799   4.849 -0.1573 -0.6668 -1.9332
10375TIP3   OH255319   8.961   8.536   6.298 -0.6605  0.1678 -0.2277
10375TIP3    H155320   9.031   8.583   6.253 -1.0236  0.6591 -0.2908
10375TIP3    H255321   8.964   8.570   6.388  0.5351 -1.3303  0.3360
10376TIP3   OH255322   0.994   8.527   4.899 -0.2597 -0.4425  0.0076
10376TIP3    H155323   0.899   8.535   4.901 -0.1515  0.8969  1.3849
10376TIP3    H255324   1.026   8.615   4.917  1.2893 -0.4997 -2.0178
10377TIP3   OH255325   7.260   3.703   5.573  0.8751 -0.3089 -0.4464
10377TIP3    H155326   7.287   3.764   5.641 -1.1568  0.6787 -0.4554
10377TIP3    H255327   7.326   3.712   5.504  0.1219  2.6808 -0.9112
10378TIP3   OH255328   5.877   0.880   5.732 -0.5633 -0.0435  0.0358
10378TIP3    H155329   5.827   0.949   5.689 -0.9622 -0.6785 -0.5327
10378TIP3    H255330   5.963   0.918   5.747 -1.3441  1.2609  1.5356
10379TIP3   OH255331   4.698   7.511   6.861 -0.3954  0.5948 -0.0179
10379TIP3    H155332   4.694   7.448   6.789 -1.1063  0.7946 -0.1658
10379TIP3    H255333   4.751   7.583   6.827  3.2491 -1.2737  1.2636
10380TIP3   OH255334   0.639   1.295   4.784 -0.0562 -0.2952 -0.0374
10380TIP3    H155335   0.593   1.212   4.777 -1.3431  0.4436 -0.6483
10380TIP3    H255336   0.732   1.271   4.787 -0.3252 -1.6848 -1.5637
10381TIP3   OH255337   8.613   0.329   5.645 -0.4594  0.1977 -0.0369
10381TIP3    H155338   8.540   0.266   5.643 -0.1902 -0.1508  0.7230
10381TIP3    H255339   8.683   0.287   5.596 -0.6279  0.3494 -0.4066
10382TIP3   OH255340   8.218   0.847   6.975 -0.2660 -0.2745  0.0811
10382TIP3    H155341   8.202   0.753   6.968 -0.6259 -0.1002 -2.5247
10382TIP3    H255342   8.313   0.855   6.968 -0.2258 -0.4500  0.4079
10383TIP3   OH255343   0.753   7.877   4.966  0.0353 -0.0957  0.2004
10383TIP3    H155344   0.748   7.853   5.059  0.3712 -0.7903  0.0467
10383TIP3    H255345   0.830   7.933   4.960 -0.8756  1.2645  0.5999
10384TIP3   OH255346   7.519   7.278   5.796  0.1644  0.4493 -0.0882
10384TIP3    H155347   7.587   7.345   5.805 -0.2239  0.7070  1.0716
10384TIP3    H255348   7.559   7.198   5.829  0.6566  0.0473 -1.5517
10385TIP3   OH255349   1.486   6.854   5.183  0.0338  0.2897 -0.1033
10385TIP3    H155350   1.511   6.822   5.269 -2.5344 -0.5590  0.4151
10385TIP3    H255351   1.525   6.792   5.121  2.2470  1.1406  0.3566
10386TIP3   OH255352   5.975   0.506   6.321  0.2946 -0.5074 -0.4325
10386TIP3    H155353   5.923   0.449   6.378 -1.6595  0.4488 -1.1562
10386TIP3    H255354   5.990   0.585   6.374  0.1772 -0.4019 -0.5558
10387TIP3   OH255355   5.712   6.915   5.244 -0.0126 -0.3750 -0.2936
10387TIP3    H155356   5.804   6.924   5.223 -0.5020  0.1722 -2.4292
10387TIP3    H255357   5.699   6.820   5.253  0.6016 -0.5124 -0.7777
10388TIP3   OH255358   7.017   8.243   6.652  0.3321  0.0581  0.3916
10388TIP3    H155359   7.082   8.312   6.661 -1.4112  1.6668  1.4759
10388TIP3    H255360   6.936   8.282   6.685 -1.6534 -1.1932 -2.5679
10389TIP3   OH255361   8.416   1.567   6.837  0.3749  0.0063 -0.3483
10389TIP3    H155362   8.432   1.501   6.770 -0.7700 -0.0991 -0.5441
10389TIP3    H255363   8.426   1.521   6.920 -1.5818 -0.7670 -0.4789
10390TIP3   OH255364   7.555   7.437   4.982  0.3092 -0.2420  0.1240
10390TIP3    H155365   7.561   7.347   4.949 -1.6294 -0.5262  0.4028
10390TIP3    H255366   7.461   7.453   4.988  0.5864  0.7731  2.9026
10391TIP3   OH255367   4.245   5.939   5.292  0.1697  0.3478  0.0829
10391TIP3    H155368   4.287   5.884   5.226 -0.1272 -0.5445  0.6227
10391TIP3    H255369   4.265   5.896   5.376 -0.8918  0.4995  0.4358
10392TIP3   OH255370   8.843   6.322   5.133 -0.6465 -0.2188  0.0584
10392TIP3    H155371   8.842   6.326   5.037  0.4258 -0.8863  0.0013
10392TIP3    H255372   8.754   6.294   5.157 -1.2329  0.9444 -0.6725
10393TIP3   OH255373   7.818   1.276   5.676  0.2204 -0.1892  0.0264
10393TIP3    H155374   7.774   1.360   5.663 -1.1483 -1.0040 -0.9033
10393TIP3    H255375   7.910   1.293   5.656 -0.2613  0.7922 -1.5578
10394TIP3   OH255376   7.158   5.242   5.126  0.1008 -0.4216  0.0721
10394TIP3    H155377   7.071   5.241   5.086 -0.2158  0.5604  0.6970
10394TIP3    H255378   7.176   5.334   5.142  1.2170 -0.6237  0.0598
10395TIP3   OH255379   0.330   4.262   4.984  0.2309  0.6997 -0.0168
10395TIP3    H155380   0.321   4.296   5.073 -0.2164  0.1882  0.1364
10395TIP3    H255381   0.412   4.213   4.985  0.1215  0.5166  0.1781
10396TIP3   OH255382   3.949   6.325   5.334 -0.2509 -0.4584 -0.2390
10396TIP3    H155383   3.988   6.249   5.377 -0.4515  0.1316  1.0254
10396TIP3    H255384   3.915   6.378   5.406 -1.2502  0.2078 -1.1789
10397TIP3   OH255385   6.802   6.603   5.253 -0.0068 -0.2832  0.4684
10397TIP3    H155386   6.728   6.554   5.218 -0.7408  1.2052 -0.1155
10397TIP3    H255387   6.846   6.638   5.176  1.7539 -1.6981  0.7533
10398TIP3   OH255388   8.535   8.938   6.522  0.6728 -0.3159 -0.2159
10398TIP3    H155389   8.499   9.026   6.515 -2.2016 -1.1362  2.1509
10398TIP3    H255390   8.613   8.948   6.577  0.3950  0.7336  0.0097
10399TIP3   OH255391   2.695   8.960   4.855  0.2787  0.3612  0.8033
10399TIP3    H155392   2.707   8.897   4.926 -0.6807 -0.4123  0.3160
10399TIP3    H255393   2.601   8.979   4.855  0.2799  0.4409 -0.1629
10400TIP3   OH255394   2.388   1.124   5.179 -0.1696  0.6362 -0.0235
10400TIP3    H155395   2.474   1.136   5.138  0.2972 -0.1325  0.6962
10400TIP3    H255396   2.358   1.039   5.148  0.2051  0.0291  1.2373
10401TIP3   OH255397   4.603   4.690   5.813  0.0527 -0.0716  0.8097
10401TIP3    H155398   4.519   4.736   5.810 -1.0933 -1.9195  2.0552
10401TIP3    H255399   4.655   4.738   5.878  0.3927  1.6573 -0.6676
10402TIP3   OH255400   8.716   3.441   5.697  0.4563  0.0001 -0.3572
10402TIP3    H155401   8.663   3.510   5.737  0.4557 -0.4058  0.3434
10402TIP3    H255402   8.760   3.398   5.770 -0.7322 -1.7594 -0.6195
10403TIP3   OH255403   7.483   7.883   6.661  0.1317 -0.6206  0.1630
10403TIP3    H155404   7.405   7.828   6.663  0.5523 -1.4283 -2.1429
10403TIP3    H255405   7.461   7.955   6.602  1.2103 -1.1131 -0.9084
10404TIP3   OH255406   8.284   1.429   5.507 -0.5246  0.1393 -0.5774
10404TIP3    H155407   8.252   1.518   5.518 -0.8736  0.1204 -1.3609
10404TIP3    H255408   8.378   1.435   5.521 -0.3204  0.9165 -2.0457
10405TIP3   OH255409   1.896   0.656   6.190 -0.1863  0.1871 -0.5052
10405TIP3    H155410   1.964   0.691   6.249 -0.2975  1.1624 -0.9342
10405TIP3    H255411   1.946   0.616   6.118 -0.0156  2.0167 -1.4716
10406TIP3   OH255412   2.183   7.092   5.102  0.3854  0.4373 -0.0321
10406TIP3    H155413   2.127   7.021   5.071  0.4106  0.6961 -0.6734
10406TIP3    H255414   2.126   7.169   5.101  0.0092  0.2336  1.7799
10407TIP3   OH255415   2.665   5.333   6.422  0.0258 -0.3731  0.5402
10407TIP3    H155416   2.664   5.237   6.429 -1.6018 -0.3276  1.3116
10407TIP3    H255417   2.686   5.362   6.511 -1.2375 -0.0026  0.7262
10408TIP3   OH255418   0.773   4.888   5.623 -0.2976 -0.0190  0.3891
10408TIP3    H155419   0.757   4.907   5.715 -0.4581 -0.7751  0.5232
10408TIP3    H255420   0.830   4.812   5.623  0.2227  0.3586 -0.1363
10409TIP3   OH255421   7.318   6.049   6.545  0.4693  0.2831 -0.1358
10409TIP3    H155422   7.243   5.995   6.520  1.0570 -0.4721 -0.3041
10409TIP3    H255423   7.385   6.029   6.479  0.8497  0.8769  0.0654
10410TIP3   OH255424   1.663   1.187   6.188 -0.6308 -0.1756 -0.4013
10410TIP3    H155425   1.722   1.256   6.218  0.2967  0.1140 -2.6464
10410TIP3    H255426   1.661   1.123   6.259 -0.2153  1.3569  1.0603
10411TIP3   OH255427   2.543   7.342   6.801  0.0940 -0.2411  0.0634
10411TIP3    H155428   2.459   7.378   6.772  0.2907 -0.0553 -0.2779
10411TIP3    H255429   2.603   7.361   6.729  0.0901 -1.6881 -0.3414
10412TIP3   OH255430   5.673   3.173   5.207  0.1715 -0.0290  0.3492
10412TIP3    H155431   5.692   3.232   5.280 -0.4203  1.0151 -0.3071
10412TIP3    H255432   5.608   3.220   5.155 -0.5338 -1.3997 -0.0540
10413TIP3   OH255433   8.638   3.608   4.998  0.4209  0.2186 -0.0726
10413TIP3    H155434   8.610   3.685   4.948  2.1242 -0.6876 -2.5724
10413TIP3    H255435   8.732   3.618   5.007  0.4304 -0.7088  1.1936
10414TIP3   OH255436   6.733   5.946   6.790 -0.1350 -0.1417 -0.4021
10414TIP3    H155437   6.663   5.944   6.855  1.2834 -0.6783  1.1732
10414TIP3    H255438   6.696   5.901   6.714 -0.7320 -2.6390  1.2479
10415TIP3   OH255439   7.064   4.553   5.610  0.0141  0.4181  0.1534
10415TIP3    H155440   7.023   4.469   5.629  1.2395 -0.2980 -0.2870
10415TIP3    H255441   7.000   4.618   5.640 -0.9216 -0.6565  0.5552
10416TIP3   OH255442   3.828   7.045   4.977  0.0957  0.3091 -0.2621
10416TIP3    H155443   3.920   7.069   4.972 -0.1442  1.3335  0.0001
10416TIP3    H255444   3.826   6.970   5.037  0.6153  1.1702  0.8729
10417TIP3   OH255445   5.688   6.592   5.269 -0.4823  0.1558  0.5541
10417TIP3    H155446   5.630   6.524   5.235 -0.2072  1.1392 -2.0730
10417TIP3    H255447   5.776   6.560   5.248 -0.1986  0.1384  1.6903
10418TIP3   OH255448   1.308   4.362   5.541  0.0088  0.4855 -0.8590
10418TIP3    H155449   1.388   4.340   5.495  1.1473 -0.1027  1.2792
10418TIP3    H255450   1.251   4.399   5.473  1.9173  0.5923 -2.5024
10419TIP3   OH255451   8.882   7.325   4.699 -0.0170  0.8856  0.1236
10419TIP3    H155452   8.849   7.397   4.754  1.7946  2.2383 -0.4490
10419TIP3    H255453   8.840   7.247   4.734 -0.6814  1.9902  1.9474
10420TIP3   OH255454   2.587   6.270   5.485 -0.5738  0.7350 -0.3124
10420TIP3    H155455   2.587   6.297   5.576 -0.6579  1.5310 -0.5401
10420TIP3    H255456   2.546   6.183   5.485  0.5942  0.1516  0.5583
10421TIP3   OH255457   0.465   4.496   4.923  0.3086 -0.4097 -0.2297
10421TIP3    H155458   0.422   4.533   4.846 -0.3076 -0.1062  0.2539
10421TIP3    H255459   0.411   4.421   4.947  1.2442 -1.3157 -0.8762
10422TIP3   OH255460   2.183   2.588   4.596  0.3892  0.0918 -0.2029
10422TIP3    H155461   2.245   2.579   4.524 -0.0009  1.5348 -0.7531
10422TIP3    H255462   2.231   2.634   4.665  0.4590 -0.3779  0.0636
10423TIP3   OH255463   1.201   1.243   6.043  0.0984 -0.1903  0.3402
10423TIP3    H155464   1.182   1.278   6.130  0.6934  1.6791 -0.2286
10423TIP3    H255465   1.151   1.300   5.983  1.5695  0.0970 -0.6705
10424TIP3   OH255466   6.793   7.452   6.149 -0.1723  0.2293  0.1321
10424TIP3    H155467   6.721   7.503   6.112 -0.3347  0.1505  0.3340
10424TIP3    H255468   6.824   7.503   6.224 -2.0356 -1.1247  1.9657
10425TIP3   OH255469   9.134   5.627   5.037  0.1773 -0.2533  0.2102
10425TIP3    H155470   9.076   5.616   4.962 -0.1006 -0.3418  0.4373
10425TIP3    H255471   9.213   5.578   5.013 -0.1837 -0.8747  0.2720
10426TIP3   OH255472   5.187   8.639   5.283  0.1147 -0.1677  0.5231
10426TIP3    H155473   5.153   8.725   5.308  0.6695 -0.1185  1.1207
10426TIP3    H255474   5.113   8.596   5.240 -0.2088  0.5525  0.3444
10427TIP3   OH255475   1.031   2.439   6.537  0.0428 -0.1530 -0.4425
10427TIP3    H155476   1.020   2.371   6.603  2.7419 -0.1323  0.1516
10427TIP3    H255477   1.103   2.493   6.570  0.9636  0.3490 -2.9841
10428TIP3   OH255478   1.446   7.212   6.608 -0.5139 -0.3146 -0.3718
10428TIP3    H155479   1.370   7.269   6.611 -0.4921 -0.3273  0.8682
10428TIP3    H255480   1.516   7.262   6.649 -0.1361 -0.7140 -0.5132
10429TIP3   OH255481   8.866   5.665   6.125 -0.2670 -0.2663  0.2188
10429TIP3    H155482   8.795   5.605   6.102 -0.4894 -0.1877  0.6837
10429TIP3    H255483   8.843   5.697   6.212 -0.1661  0.5192 -0.0336
10430TIP3   OH255484   0.418   0.793   5.314  0.1356  0.1246 -0.2733
10430TIP3    H155485   0.346   0.849   5.343  0.4583  1.6239 -2.1468
10430TIP3    H255486   0.493   0.819   5.368 -0.4325 -0.7680  1.0126
10431TIP3   OH255487   0.475   5.392   6.356  0.4571 -0.1221 -0.3940
10431TIP3    H155488   0.434   5.309   6.380 -1.5805 -0.2184 -3.5289
10431TIP3    H255489   0.430   5.457   6.411  2.3127 -0.9979  2.3330
10432TIP3   OH255490   5.759   4.725   6.377  0.0037  0.4307  0.2417
10432TIP3    H155491   5.848   4.743   6.347  0.5945  0.5878  1.9575
10432TIP3    H255492   5.734   4.803   6.426 -0.9025  0.1952  0.1710
10433TIP3   OH255493   2.407   3.567   5.556  0.0613 -0.2254 -0.2968
10433TIP3    H155494   2.416   3.628   5.483  1.5631 -0.7789 -0.6168
10433TIP3    H255495   2.445   3.613   5.631 -1.3324  0.2782  0.1455
10434TIP3   OH255496   3.544   7.721   5.948 -0.1501  0.0180  0.5246
10434TIP3    H155497   3.576   7.637   5.916  0.5891  0.8152 -0.9467
10434TIP3    H255498   3.462   7.735   5.901 -0.4022  0.0036  0.9588
10435TIP3   OH255499   4.825   8.828   5.577  0.3186 -0.3984  0.0649
10435TIP3    H155500   4.810   8.922   5.565 -0.9752 -0.7825 -1.6014
10435TIP3    H255501   4.745   8.796   5.619 -0.0774 -1.0696 -1.1695
10436TIP3   OH255502   2.513   7.676   5.778 -0.0328 -0.1842  0.2020
10436TIP3    H155503   2.593   7.629   5.799  0.2639 -0.7132 -1.8479
10436TIP3    H255504   2.531   7.715   5.692 -0.5471  3.0455  1.3970
10437TIP3   OH255505   8.497   4.986   6.358 -0.2340  0.2132  0.6438
10437TIP3    H155506   8.475   5.073   6.325 -3.0780 -1.1288 -1.4849
10437TIP3    H255507   8.583   4.967   6.320 -0.2104  1.5475 -0.0240
10438TIP3   OH255508   1.704   5.821   5.921  0.1398 -0.1630  0.5917
10438TIP3    H155509   1.710   5.905   5.876  1.9954 -1.4032 -1.7341
10438TIP3    H255510   1.723   5.841   6.012  1.5875  1.8371 -0.0695
10439TIP3   OH255511   5.582   8.771   6.151 -0.0905  0.0366 -0.1113
10439TIP3    H155512   5.545   8.739   6.069  1.1734 -1.4485 -0.1480
10439TIP3    H255513   5.508   8.772   6.212 -0.8060  0.0402 -0.9534
   9.21659   9.21659  30.00000
